    -----------------------------------------------------------------------
          Psi4: An Open-Source Ab Initio Electronic Structure Package
                              Psi4 1.0.54 Driver

                          Git: Rev {master} 8d4cec3 dirty

    J. M. Turney, A. C. Simmonett, R. M. Parrish, E. G. Hohenstein,
    F. A. Evangelista, J. T. Fermann, B. J. Mintz, L. A. Burns, J. J. Wilke,
    M. L. Abrams, N. J. Russ, M. L. Leininger, C. L. Janssen, E. T. Seidl,
    W. D. Allen, H. F. Schaefer, R. A. King, E. F. Valeev, C. D. Sherrill,
    and T. D. Crawford, WIREs Comput. Mol. Sci. 2, 556-565 (2012)
    (doi: 10.1002/wcms.93)

                         Additional Contributions by
    A. E. DePrince, U. Bozkaya, A. Yu. Sokolov, D. G. A. Smith, R. Di Remigio,
    R. M. Richard, J. F. Gonthier, H. R. McAlexander, M. Saitow, and
    B. P. Pritchard
    -----------------------------------------------------------------------


    Psi4 started on: Sat Sep 10 21:23:19 2016

    Process ID:  11543
    PSI4DATADIR: /export131/home/mjharvey/miniconda3/share/psi4
    Memory level set to 256.000 MB

  ==> Input File <==

--------------------------------------------------------------------------
set {
	reference rhf
	basis cc-pvtz
}


set_num_threads( 4 )
memory 2 gb

molecule MOL {
0 1

O	 -2.071633	 -1.227563	 -0.223463
C	 -1.652164	 -0.152425	 0.058082
C	 -0.327811	 0.006324	 0.778296
C	 -2.402515	 1.108629	 -0.298924
C	 -0.318683	 1.271837	 1.644216
H	 -0.129563	 -0.863312	 1.395998
H	 0.447915	 0.074457	 0.026335
C	 1.006062	 1.477494	 2.372904
H	 -1.123773	 1.224659	 2.373117
H	 -0.523957	 2.127662	 1.010345
C	 1.024194	 2.741596	 3.225477
H	 1.209446	 0.614835	 3.001377
H	 1.810314	 1.521503	 1.644357
H	 0.252276	 2.711788	 3.987244
H	 0.855034	 3.624590	 2.618785
H	 1.977821	 2.861668	 3.726056
H	 -3.240910	 0.874416	 -0.936711
H	 -1.747554	 1.818823	 -0.790984
H	 -2.760419	 1.579708	 0.610998

	symmetry c1
}
set optking {
	frozen_dihedral = ("
		5 3 2 4
	")
}

ee,wfn = optimize('scf', return_wfn=True)
oeprop( wfn, 'DIPOLE', 'QUADRUPOLE', 'MULLIKEN_CHARGES')
f=open( 'psi4out.xyz', 'w' )
f.write( "19  " )
f.write( str(ee) + "\n" )
f.write( MOL.save_string_xyz() )
f.close()
--------------------------------------------------------------------------

  Memory set to   2.000 GiB by Python script.
gradient() will perform analytic gradient computation.

*** tstart() called on cx1-27-3-4
*** at Sat Sep 10 21:23:20 2016


         ---------------------------------------------------------
                                   SCF
            by Justin Turney, Rob Parrish, and Andy Simmonett
                              RHF Reference
                        4 Threads,   2000 MiB Core
         ---------------------------------------------------------

  ==> Geometry <==

    Molecular point group: c1
    Full point group: C1

    Geometry (in Angstrom), charge = 0, multiplicity = 1:

       Center              X                  Y                   Z               Mass       
    ------------   -----------------  -----------------  -----------------  -----------------
           O         -1.390405695324    -1.988084329889    -1.308492597101    15.994914619560
           C         -0.970936695324    -0.912946329889    -1.026947597101    12.000000000000
           C          0.353416304676    -0.754197329889    -0.306733597101    12.000000000000
           C         -1.721287695324     0.348107670111    -1.383953597101    12.000000000000
           C          0.362544304676     0.511315670111     0.559186402899    12.000000000000
           H          0.551664304676    -1.623833329889     0.310968402899     1.007825032070
           H          1.129142304676    -0.686064329889    -1.058694597101     1.007825032070
           C          1.687289304676     0.716972670111     1.287874402899    12.000000000000
           H         -0.442545695324     0.464137670111     1.288087402899     1.007825032070
           H          0.157270304676     1.367140670111    -0.074684597101     1.007825032070
           C          1.705421304676     1.981074670111     2.140447402899    12.000000000000
           H          1.890673304676    -0.145686329889     1.916347402899     1.007825032070
           H          2.491541304676     0.760981670111     0.559327402899     1.007825032070
           H          0.933503304676     1.951266670111     2.902214402899     1.007825032070
           H          1.536261304676     2.864068670111     1.533755402899     1.007825032070
           H          2.659048304676     2.101146670111     2.641026402899     1.007825032070
           H         -2.559682695324     0.113894670111    -2.021740597101     1.007825032070
           H         -1.066326695324     1.058301670111    -1.876013597101     1.007825032070
           H         -2.079191695324     0.819186670111    -0.474031597101     1.007825032070

  Running in c1 symmetry.

  Rotational constants: A =      0.22165  B =      0.03688  C =      0.03304 [cm^-1]
  Rotational constants: A =   6644.93500  B =   1105.50101  C =    990.57878 [MHz]
  Nuclear repulsion =  303.676098750588665

  Charge       = 0
  Multiplicity = 1
  Electrons    = 56
  Nalpha       = 28
  Nbeta        = 28

  ==> Algorithm <==

  SCF Algorithm Type is DF.
  DIIS enabled.
  MOM disabled.
  Fractional occupation disabled.
  Guess Type is SAD.
  Energy threshold   = 1.00e-08
  Density threshold  = 1.00e-08
  Integral threshold = 0.00e+00

  ==> Primary Basis <==

  Basis Set: CC-PVTZ
    Number of shells: 142
    Number of basis function: 378
    Number of Cartesian functions: 425
    Spherical Harmonics?: true
    Max angular momentum: 3

  ==> Pre-Iterations <==

   -------------------------------------------------------
    Irrep   Nso     Nmo     Nalpha   Nbeta   Ndocc  Nsocc
   -------------------------------------------------------
     A        378     378       0       0       0       0
   -------------------------------------------------------
    Total     378     378      28      28      28       0
   -------------------------------------------------------

  ==> Integral Setup <==

  ==> DFJK: Density-Fitted J/K Matrices <==

    J tasked:                  Yes
    K tasked:                  Yes
    wK tasked:                  No
    OpenMP threads:              4
    Integrals threads:           4
    Memory (MB):              1430
    Algorithm:                Core
    Integral Cache:           NONE
    Schwarz Cutoff:          1E-12
    Fitting Condition:       1E-12

   => Auxiliary Basis Set <=

  Basis Set: 
    Number of shells: 295
    Number of basis function: 913
    Number of Cartesian functions: 1092
    Spherical Harmonics?: true
    Max angular momentum: 4

  Minimum eigenvalue in the overlap matrix is 3.0147072781E-04.
  Using Symmetric Orthogonalization.
  SCF Guess: Superposition of Atomic Densities via on-the-fly atomic UHF.

  ==> Iterations <==

                           Total Energy        Delta E     RMS |[F,P]|

   @DF-RHF iter   0:  -312.27433298676425   -3.12274e+02   1.35898e-02 
   @DF-RHF iter   1:  -308.95145677111594    3.32288e+00   1.40355e-03 
   @DF-RHF iter   2:  -309.11766248592761   -1.66206e-01   8.95850e-04 DIIS
   @DF-RHF iter   3:  -309.16138336658918   -4.37209e-02   2.63202e-04 DIIS
   @DF-RHF iter   4:  -309.17153947165565   -1.01561e-02   7.66125e-05 DIIS
   @DF-RHF iter   5:  -309.17250855416199   -9.69083e-04   3.17836e-05 DIIS
   @DF-RHF iter   6:  -309.17271178390746   -2.03230e-04   1.19142e-05 DIIS
   @DF-RHF iter   7:  -309.17274239710122   -3.06132e-05   3.86767e-06 DIIS
   @DF-RHF iter   8:  -309.17274698810837   -4.59101e-06   1.49873e-06 DIIS
   @DF-RHF iter   9:  -309.17274775734876   -7.69240e-07   7.69703e-07 DIIS
   @DF-RHF iter  10:  -309.17274802070568   -2.63357e-07   2.84751e-07 DIIS
   @DF-RHF iter  11:  -309.17274805829487   -3.75892e-08   7.67049e-08 DIIS
   @DF-RHF iter  12:  -309.17274805982123   -1.52636e-09   2.09532e-08 DIIS
   @DF-RHF iter  13:  -309.17274805992105   -9.98170e-11   6.21133e-09 DIIS

  ==> Post-Iterations <==

    Orbital Energies (a.u.)
    -----------------------

    Doubly Occupied:                                                      

       1A    -20.535910     2A    -11.319611     3A    -11.229432  
       4A    -11.228158     5A    -11.226678     6A    -11.224279  
       7A    -11.215210     8A     -1.396010     9A     -1.098155  
      10A     -1.032083    11A     -0.981314    12A     -0.894951  
      13A     -0.810255    14A     -0.734117    15A     -0.666419  
      16A     -0.651938    17A     -0.630657    18A     -0.614577  
      19A     -0.585552    20A     -0.574212    21A     -0.552649  
      22A     -0.536288    23A     -0.523545    24A     -0.493340  
      25A     -0.486952    26A     -0.478384    27A     -0.473695  
      28A     -0.398693  

    Virtual:                                                              

      29A      0.126788    30A      0.149908    31A      0.153553  
      32A      0.163616    33A      0.175429    34A      0.194976  
      35A      0.210084    36A      0.212580    37A      0.219246  
      38A      0.226273    39A      0.247291    40A      0.261209  
      41A      0.269312    42A      0.301561    43A      0.315175  
      44A      0.328381    45A      0.347878    46A      0.370384  
      47A      0.376443    48A      0.391417    49A      0.397747  
      50A      0.417540    51A      0.432279    52A      0.465312  
      53A      0.476762    54A      0.494625    55A      0.506841  
      56A      0.539284    57A      0.551758    58A      0.561925  
      59A      0.580066    60A      0.595325    61A      0.601004  
      62A      0.608636    63A      0.620397    64A      0.620749  
      65A      0.629563    66A      0.638186    67A      0.644453  
      68A      0.648806    69A      0.657314    70A      0.664817  
      71A      0.677018    72A      0.681771    73A      0.687682  
      74A      0.697838    75A      0.711794    76A      0.719141  
      77A      0.736901    78A      0.763385    79A      0.785008  
      80A      0.824575    81A      0.830292    82A      0.867744  
      83A      0.881260    84A      0.894280    85A      0.902761  
      86A      0.913457    87A      0.927259    88A      0.961783  
      89A      0.966277    90A      1.001187    91A      1.014766  
      92A      1.045305    93A      1.047872    94A      1.079811  
      95A      1.087282    96A      1.113726    97A      1.115754  
      98A      1.135086    99A      1.147685   100A      1.172633  
     101A      1.200546   102A      1.204211   103A      1.220153  
     104A      1.232513   105A      1.247012   106A      1.269716  
     107A      1.276458   108A      1.284183   109A      1.287981  
     110A      1.319028   111A      1.321990   112A      1.329289  
     113A      1.336036   114A      1.343415   115A      1.350400  
     116A      1.389787   117A      1.392698   118A      1.396548  
     119A      1.412495   120A      1.429697   121A      1.437281  
     122A      1.452540   123A      1.470866   124A      1.487208  
     125A      1.491848   126A      1.493345   127A      1.519691  
     128A      1.530823   129A      1.549187   130A      1.553851  
     131A      1.573414   132A      1.588230   133A      1.598489  
     134A      1.611458   135A      1.617843   136A      1.630843  
     137A      1.638750   138A      1.653816   139A      1.681095  
     140A      1.706975   141A      1.726027   142A      1.756052  
     143A      1.771934   144A      1.795232   145A      1.809927  
     146A      1.824464   147A      1.837589   148A      1.864489  
     149A      1.880132   150A      1.927159   151A      1.947951  
     152A      1.993843   153A      2.050539   154A      2.117489  
     155A      2.197550   156A      2.322234   157A      2.449602  
     158A      2.473848   159A      2.485558   160A      2.511738  
     161A      2.558595   162A      2.592411   163A      2.622792  
     164A      2.652697   165A      2.668875   166A      2.682986  
     167A      2.695234   168A      2.698007   169A      2.741895  
     170A      2.744444   171A      2.788216   172A      2.808208  
     173A      2.817171   174A      2.848626   175A      2.852203  
     176A      2.872474   177A      2.887618   178A      2.902658  
     179A      2.921938   180A      2.926631   181A      2.950860  
     182A      2.961683   183A      2.970736   184A      2.998882  
     185A      3.030360   186A      3.046040   187A      3.051136  
     188A      3.082893   189A      3.096101   190A      3.126879  
     191A      3.131116   192A      3.138599   193A      3.164720  
     194A      3.175918   195A      3.193585   196A      3.213682  
     197A      3.227028   198A      3.237018   199A      3.251337  
     200A      3.281057   201A      3.292271   202A      3.307134  
     203A      3.315961   204A      3.320492   205A      3.338637  
     206A      3.353173   207A      3.379187   208A      3.388676  
     209A      3.393891   210A      3.396843   211A      3.407342  
     212A      3.421956   213A      3.428782   214A      3.434127  
     215A      3.449801   216A      3.453688   217A      3.461609  
     218A      3.465579   219A      3.503913   220A      3.507423  
     221A      3.527940   222A      3.540831   223A      3.550619  
     224A      3.555761   225A      3.584085   226A      3.594926  
     227A      3.600174   228A      3.623450   229A      3.656451  
     230A      3.680363   231A      3.686354   232A      3.713244  
     233A      3.725349   234A      3.734384   235A      3.768709  
     236A      3.777686   237A      3.789632   238A      3.800616  
     239A      3.814652   240A      3.830218   241A      3.859626  
     242A      3.870389   243A      3.884578   244A      3.902865  
     245A      3.909462   246A      3.941672   247A      3.962722  
     248A      3.980403   249A      3.991256   250A      4.008757  
     251A      4.033096   252A      4.050056   253A      4.072755  
     254A      4.077544   255A      4.086123   256A      4.117249  
     257A      4.133909   258A      4.142272   259A      4.153284  
     260A      4.159923   261A      4.167637   262A      4.190364  
     263A      4.196765   264A      4.207402   265A      4.223715  
     266A      4.245691   267A      4.255417   268A      4.265184  
     269A      4.284437   270A      4.310552   271A      4.313907  
     272A      4.317337   273A      4.340087   274A      4.352743  
     275A      4.370562   276A      4.373189   277A      4.403337  
     278A      4.406661   279A      4.426439   280A      4.441704  
     281A      4.443896   282A      4.467376   283A      4.485163  
     284A      4.510410   285A      4.524144   286A      4.535254  
     287A      4.575825   288A      4.578786   289A      4.608003  
     290A      4.617117   291A      4.619426   292A      4.631696  
     293A      4.642893   294A      4.648600   295A      4.661534  
     296A      4.678535   297A      4.696327   298A      4.717446  
     299A      4.744366   300A      4.777504   301A      4.784654  
     302A      4.815466   303A      4.843588   304A      4.882468  
     305A      4.898819   306A      4.950094   307A      4.995997  
     308A      5.040923   309A      5.043419   310A      5.061354  
     311A      5.082919   312A      5.117421   313A      5.148059  
     314A      5.167706   315A      5.200665   316A      5.222688  
     317A      5.227099   318A      5.256246   319A      5.260112  
     320A      5.290100   321A      5.303370   322A      5.349215  
     323A      5.357270   324A      5.385824   325A      5.395927  
     326A      5.406301   327A      5.430085   328A      5.452962  
     329A      5.475487   330A      5.511489   331A      5.514552  
     332A      5.550042   333A      5.572251   334A      5.614710  
     335A      5.623515   336A      5.651095   337A      5.659475  
     338A      5.662277   339A      5.701453   340A      5.736281  
     341A      5.741553   342A      5.751858   343A      5.761320  
     344A      5.785281   345A      5.800503   346A      5.854581  
     347A      5.874387   348A      5.898293   349A      5.906227  
     350A      5.927907   351A      5.940032   352A      5.987673  
     353A      6.029250   354A      6.074569   355A      6.136272  
     356A      6.242753   357A      6.287511   358A      6.300646  
     359A      6.322194   360A      6.334565   361A      6.352360  
     362A      6.404555   363A      6.462542   364A      6.823273  
     365A      6.841994   366A      6.950054   367A      7.028517  
     368A      7.232189   369A      7.390050   370A      7.567080  
     371A      7.605635   372A      9.847607   373A     13.402972  
     374A     13.434750   375A     13.874746   376A     14.252630  
     377A     14.356345   378A     14.414078  

    Final Occupation by Irrep:
              A 
    DOCC [    28 ]

  Energy converged.

  @DF-RHF Final Energy:  -309.17274805992105

   => Energetics <=

    Nuclear Repulsion Energy =            303.6760987505886646
    One-Electron Energy =               -1020.5115630728031419
    Two-Electron Energy =                 407.6627162622935998
    DFT Exchange-Correlation Energy =       0.0000000000000000
    Empirical Dispersion Energy =           0.0000000000000000
    PCM Polarization Energy =               0.0000000000000000
    EFP Energy =                            0.0000000000000000
    Total Energy =                       -309.1727480599208207


  Saving occupied orbitals to File 180.

*** tstop() called on cx1-27-3-4 at Sat Sep 10 21:23:31 2016
Module time:
	user time   =      38.66 seconds =       0.64 minutes
	system time =       0.91 seconds =       0.02 minutes
	total time  =         11 seconds =       0.18 minutes
Total time:
	user time   =      38.66 seconds =       0.64 minutes
	system time =       0.91 seconds =       0.02 minutes
	total time  =         11 seconds =       0.18 minutes


Properties will be evaluated at   0.000000,   0.000000,   0.000000 Bohr

Properties computed using the SCF density matrix

  Nuclear Dipole Moment: (a.u.)
     X:     4.8694      Y:     8.4694      Z:     5.2872

  Electronic Dipole Moment: (a.u.)
     X:    -4.3609      Y:    -7.3098      Z:    -4.9292

  Dipole Moment: (a.u.)
     X:     0.5086      Y:     1.1596      Z:     0.3580     Total:     1.3158

  Dipole Moment: (Debye)
     X:     1.2926      Y:     2.9474      Z:     0.9099     Total:     3.3445


*** tstart() called on cx1-27-3-4
*** at Sat Sep 10 21:23:31 2016


         ------------------------------------------------------------
                                   SCF GRAD                          
                          Rob Parrish, Justin Turney,                
                       Andy Simmonett, and Alex Sokolov              
         ------------------------------------------------------------

  ==> Geometry <==

    Molecular point group: c1
    Full point group: C1

    Geometry (in Angstrom), charge = 0, multiplicity = 1:

       Center              X                  Y                   Z               Mass       
    ------------   -----------------  -----------------  -----------------  -----------------
           O         -1.390405695324    -1.988084329889    -1.308492597101    15.994914619560
           C         -0.970936695324    -0.912946329889    -1.026947597101    12.000000000000
           C          0.353416304676    -0.754197329889    -0.306733597101    12.000000000000
           C         -1.721287695324     0.348107670111    -1.383953597101    12.000000000000
           C          0.362544304676     0.511315670111     0.559186402899    12.000000000000
           H          0.551664304676    -1.623833329889     0.310968402899     1.007825032070
           H          1.129142304676    -0.686064329889    -1.058694597101     1.007825032070
           C          1.687289304676     0.716972670111     1.287874402899    12.000000000000
           H         -0.442545695324     0.464137670111     1.288087402899     1.007825032070
           H          0.157270304676     1.367140670111    -0.074684597101     1.007825032070
           C          1.705421304676     1.981074670111     2.140447402899    12.000000000000
           H          1.890673304676    -0.145686329889     1.916347402899     1.007825032070
           H          2.491541304676     0.760981670111     0.559327402899     1.007825032070
           H          0.933503304676     1.951266670111     2.902214402899     1.007825032070
           H          1.536261304676     2.864068670111     1.533755402899     1.007825032070
           H          2.659048304676     2.101146670111     2.641026402899     1.007825032070
           H         -2.559682695324     0.113894670111    -2.021740597101     1.007825032070
           H         -1.066326695324     1.058301670111    -1.876013597101     1.007825032070
           H         -2.079191695324     0.819186670111    -0.474031597101     1.007825032070

  Nuclear repulsion =  303.676098750588665

  ==> Basis Set <==

  Basis Set: CC-PVTZ
    Number of shells: 142
    Number of basis function: 378
    Number of Cartesian functions: 425
    Spherical Harmonics?: true
    Max angular momentum: 3

  ==> DFJKGrad: Density-Fitted SCF Gradients <==

    Gradient:                    1
    J tasked:                  Yes
    K tasked:                  Yes
    wK tasked:                  No
    OpenMP threads:              4
    Integrals threads:           4
    Memory (MB):              1430
    Schwarz Cutoff:          0E+00
    Fitting Condition:       1E-12

   => Auxiliary Basis Set <=

  Basis Set: 
    Number of shells: 295
    Number of basis function: 913
    Number of Cartesian functions: 1092
    Spherical Harmonics?: true
    Max angular momentum: 4


  -Total Gradient:
     Atom            X                  Y                   Z
    ------   -----------------  -----------------  -----------------
       1        0.001907572529    -0.000524583486    -0.000043200584
       2       -0.002322973074     0.008731978629     0.002522934506
       3        0.006985382566    -0.011560277736    -0.010565595525
       4        0.002973921655    -0.000321604772     0.001542771080
       5       -0.008643432368     0.001160154598    -0.000533861812
       6        0.002319647600     0.001313658675     0.005883554551
       7       -0.001936844422     0.000900352511     0.002084696810
       8        0.001001504445    -0.000838132287    -0.000373247713
       9       -0.000438598038     0.000588468960     0.000243325396
      10       -0.002982087630    -0.001126328416    -0.004183548692
      11       -0.000525374149     0.000278665065    -0.000273769519
      12        0.000038329669    -0.000137624221     0.000257289296
      13       -0.000363559973     0.000037225882     0.000054407569
      14       -0.000024718366     0.000042024040     0.000034478926
      15       -0.000029338726    -0.000223599010     0.000056379733
      16        0.000080991317    -0.000172802144    -0.000086987420
      17       -0.000550517102     0.001180719360    -0.000134551997
      18        0.001481582463     0.000576066211     0.000884175787
      19        0.001028511600     0.000095638138     0.002630749605


*** tstop() called on cx1-27-3-4 at Sat Sep 10 21:23:42 2016
Module time:
	user time   =      40.08 seconds =       0.67 minutes
	system time =       0.90 seconds =       0.02 minutes
	total time  =         11 seconds =       0.18 minutes
Total time:
	user time   =      78.83 seconds =       1.31 minutes
	system time =       1.81 seconds =       0.03 minutes
	total time  =         22 seconds =       0.37 minutes

			-----------------------------------------
			 OPTKING 2.0: for geometry optimizations 
			  - R.A. King,  Bethel University        
			-----------------------------------------

	Internal coordinates to be generated automatically.
	Detected frag 1 with atoms:  1 2 3 4 5 6 7 8 9 10 11 12 13 14 15 16 17 18 19
	---Fragment 1 Bond Connectivity---
	 1 : 2
	 2 : 1 3 4
	 3 : 2 5 6 7
	 4 : 2 17 18 19
	 5 : 3 8 9 10
	 6 : 3
	 7 : 3
	 8 : 5 11 12 13
	 9 : 5
	 10 : 5
	 11 : 8 14 15 16
	 12 : 8
	 13 : 8
	 14 : 11
	 15 : 11
	 16 : 11
	 17 : 4
	 18 : 4
	 19 : 4

	Assuming in current code that numbering for constraints corresponds to unified fragment.
	Frozen dihedral atom list: 
	     5     3     2     4
	---Fragment 1 Geometry and Gradient---
	 O          -2.6274859778       -3.7569349126       -2.4726926554
	 C          -1.8348044465       -1.7252185375       -1.9406497113
	 C           0.6678600267       -1.4252264036       -0.5796424943
	 C          -3.2527623401        0.6578281613       -2.6152932791
	 C           0.6851094469        0.9662465840        1.0567091587
	 H           1.0424944531       -3.0686002789        0.5876451175
	 H           2.1337697209       -1.2964736930       -2.0006428469
	 C           3.1885146928        1.3548819913        2.4337299150
	 H          -0.8362901654        0.8770930845        2.4341324267
	 H           0.2971978047        2.5835214516       -0.1411334349
	 C           3.2227792070        3.7436885753        4.0448593933
	 H           3.5728547526       -0.2753072648        3.6213717669
	 H           4.7083307146        1.4380469487        1.0569756101
	 H           1.7640655900        3.6873596187        5.4843904004
	 H           2.9031131344        5.4123054123        2.8983776663
	 H           5.0248730700        3.9705917715        4.9908166112
	 H          -4.8370992812        0.2152297345       -3.8205360403
	 H          -2.0150654223        1.9999003225       -3.5451519201
	 H          -3.9291028819        1.5480384582       -0.8957898969
	             0.0019075725       -0.0005245835       -0.0000432006
	            -0.0023229731        0.0087319786        0.0025229345
	             0.0069853826       -0.0115602777       -0.0105655955
	             0.0029739217       -0.0003216048        0.0015427711
	            -0.0086434324        0.0011601546       -0.0005338618
	             0.0023196476        0.0013136587        0.0058835546
	            -0.0019368444        0.0009003525        0.0020846968
	             0.0010015044       -0.0008381323       -0.0003732477
	            -0.0004385980        0.0005884690        0.0002433254
	            -0.0029820876       -0.0011263284       -0.0041835487
	            -0.0005253741        0.0002786651       -0.0002737695
	             0.0000383297       -0.0001376242        0.0002572893
	            -0.0003635600        0.0000372259        0.0000544076
	            -0.0000247184        0.0000420240        0.0000344789
	            -0.0000293387       -0.0002235990        0.0000563797
	             0.0000809913       -0.0001728021       -0.0000869874
	            -0.0005505171        0.0011807194       -0.0001345520
	             0.0014815825        0.0005760662        0.0008841758
	             0.0010285116        0.0000956381        0.0026307496

	Previous optimization step data not found.  Starting new optimization.

	---Fragment 1 Intrafragment Coordinates---
	 - Coordinate -           - BOHR/RAD -       - ANG/DEG -
	 R(1,2)           =         2.244835	       1.187916
	 R(2,3)           =         2.864553	       1.515856
	 R(2,4)           =         2.853885	       1.510211
	 R(3,5)           =         2.897773	       1.533435
	 R(3,6)           =         2.050266	       1.084954
	 R(3,7)           =         2.045656	       1.082515
	 R(4,17)          =         2.039271	       1.079136
	 R(4,18)          =         2.048826	       1.084192
	 R(4,19)          =         2.051000	       1.085343
	 R(5,8)           =         2.883446	       1.525854
	 R(5,9)           =         2.054240	       1.087057
	 R(5,10)          =         2.049605	       1.084604
	 R(8,11)          =         2.881546	       1.524849
	 R(8,12)          =         2.053224	       1.086519
	 R(8,13)          =         2.052367	       1.086066
	 R(11,14)         =         2.050187	       1.084912
	 R(11,15)         =         2.049607	       1.084605
	 R(11,16)         =         2.047892	       1.083698
	 B(1,2,3)         =         2.112847	     121.057215
	 B(1,2,4)         =         2.122656	     121.619217
	 B(2,3,5)         =         1.938984	     111.095625
	 B(2,3,6)         =         1.924315	     110.255132
	 B(2,3,7)         =         1.878235	     107.614959
	 B(2,4,17)        =         1.922496	     110.150887
	 B(2,4,18)        =         1.932762	     110.739118
	 B(2,4,19)        =         1.905071	     109.152552
	 B(3,2,4)         =         2.047610	     117.319433
	 B(3,5,8)         =         1.967170	     112.710540
	 B(3,5,9)         =         1.916030	     109.780417
	 B(3,5,10)        =         1.896582	     108.666118
	 B(5,3,6)         =         1.916554	     109.810434
	 B(5,3,7)         =         1.913518	     109.636486
	 B(5,8,11)        =         1.970420	     112.896743
	 B(5,8,12)        =         1.908943	     109.374389
	 B(5,8,13)        =         1.905009	     109.148959
	 B(6,3,7)         =         1.891246	     108.360395
	 B(8,5,9)         =         1.905652	     109.185818
	 B(8,5,10)        =         1.914593	     109.698106
	 B(8,11,14)       =         1.940508	     111.182908
	 B(8,11,15)       =         1.939381	     111.118349
	 B(8,11,16)       =         1.939689	     111.136008
	 B(9,5,10)        =         1.860793	     106.615577
	 B(11,8,12)       =         1.909816	     109.424387
	 B(11,8,13)       =         1.909926	     109.430725
	 B(12,8,13)       =         1.856229	     106.354106
	 B(14,11,15)      =         1.879848	     107.707378
	 B(14,11,16)      =         1.880541	     107.747041
	 B(15,11,16)      =         1.881179	     107.783641
	 B(17,4,18)       =         1.921193	     110.076256
	 B(17,4,19)       =         1.910809	     109.481266
	 B(18,4,19)       =         1.870661	     107.180955
	 D(1,2,3,5)       =        -2.630701	    -150.728092
	 D(1,2,3,6)       =        -0.501824	     -28.752397
	 D(1,2,3,7)       =         1.557629	      89.245562
	 D(1,2,4,17)      =        -0.141341	      -8.098229
	 D(1,2,4,18)      =        -2.270661	    -130.099285
	 D(1,2,4,19)      =         1.957107	     112.133985
	 D(2,3,5,8)       =        -3.128620	    -179.256722
	 D(2,3,5,9)       =         1.026218	      58.797978
	 D(2,3,5,10)      =        -1.002677	     -57.449135
	 D(3,2,4,17)      =         2.987468	     171.169315
	 D(3,2,4,18)      =         0.858148	      49.168259
	 D(3,2,4,19)      =        -1.197269	     -68.598472
	 D(3,5,8,11)      =         3.132542	     179.481412
	 D(3,5,8,12)      =        -1.019833	     -58.432122
	 D(3,5,8,13)      =         1.004408	      57.548366
	*D(4,2,3,5)       =         0.523599	      30.000003
	 D(4,2,3,6)       =         2.652476	     151.975698
	 D(4,2,3,7)       =        -1.571256	     -90.026344
	 D(5,8,11,14)     =         1.050931	      60.213915
	 D(5,8,11,15)     =        -1.042725	     -59.743752
	 D(5,8,11,16)     =        -3.137516	    -179.766428
	 D(6,3,5,8)       =         1.021177	      58.509150
	 D(6,3,5,9)       =        -1.107170	     -63.436150
	 D(6,3,5,10)      =        -3.136065	    -179.683263
	 D(7,3,5,8)       =        -1.054851	     -60.438522
	 D(7,3,5,9)       =         3.099987	     177.616177
	 D(7,3,5,10)      =         1.071092	      61.369065
	 D(9,5,8,11)      =        -1.016447	     -58.238108
	 D(9,5,8,12)      =         1.114364	      63.848357
	 D(9,5,8,13)      =         3.138605	     179.828845
	 D(10,5,8,11)     =         1.016818	      58.259355
	 D(10,5,8,12)     =        -3.135557	    -179.654179
	 D(10,5,8,13)     =        -1.111316	     -63.673691
	 D(12,8,11,14)    =        -1.079389	     -61.844454
	 D(12,8,11,15)    =         3.110140	     178.197879
	 D(12,8,11,16)    =         1.015349	      58.175204
	 D(13,8,11,14)    =        -3.106891	    -178.011759
	 D(13,8,11,15)    =         1.082638	      62.030573
	 D(13,8,11,16)    =        -1.012153	     -57.992102

	Current energy   :      -309.1727480599

	Generating empirical Hessian (Schlegel '84) for each fragment.
	Taking RFO optimization step.
	Going to follow RFO solution 1.
	Using RFO vector 1.
	Norm of target step-size    0.27649
	Projected energy change by RFO approximation:        -0.0106146933

	Back-transformation to cartesian coordinates...
	Could not converge backtransformation.
	Using first guess instead.

	Back-transformation to cartesian coordinates to adjust frozen coordinates...
	Successfully converged to displaced geometry.

	--- Internal Coordinate Step in ANG or DEG, aJ/ANG or AJ/DEG ---
	 ---------------------------------------------------------------------------
	   Coordinate                Previous        Force       Change         New 
	   ----------                --------       ------       ------       ------
	    1 R(1,2)          =      1.187916     0.001554     0.028332     1.216248
	    2 R(2,3)          =      1.515856     0.069901     0.102060     1.617917
	    3 R(2,4)          =      1.510211     0.019252     0.078803     1.589014
	    4 R(3,5)          =      1.533435     0.025605     0.074435     1.607870
	    5 R(3,6)          =      1.084954    -0.022414     0.013509     1.098462
	    6 R(3,7)          =      1.082515     0.022899     0.047041     1.129556
	    7 R(4,17)         =      1.079136    -0.002068     0.069702     1.148838
	    8 R(4,18)         =      1.084192    -0.007177     0.008663     1.092855
	    9 R(4,19)         =      1.085343    -0.015719     0.065204     1.150546
	   10 R(5,8)          =      1.525854     0.001158     0.088780     1.614634
	   11 R(5,9)          =      1.087057    -0.003810     0.044324     1.131380
	   12 R(5,10)         =      1.084604    -0.017471     0.015401     1.100005
	   13 R(8,11)         =      1.524849     0.001809     0.070369     1.595218
	   14 R(8,12)         =      1.086519    -0.002185     0.016970     1.103489
	   15 R(8,13)         =      1.086066     0.002506     0.045737     1.131802
	   16 R(11,14)        =      1.084912    -0.000335     0.045374     1.130286
	   17 R(11,15)        =      1.084605     0.001722     0.015714     1.100320
	   18 R(11,16)        =      1.083698    -0.000098     0.063387     1.147085
	   19 B(1,2,3)        =    121.057215    -0.000432    -1.460113   119.597102
	   20 B(1,2,4)        =    121.619217    -0.000730    -3.667224   117.951993
	   21 B(2,3,5)        =    111.095625     0.002323     7.907701   119.003326
	   22 B(2,3,6)        =    110.255132    -0.001061    -2.167424   108.087708
	   23 B(2,3,7)        =    107.614959    -0.000642    -2.297632   105.317327
	   24 B(2,4,17)       =    110.150887    -0.000236     0.411695   110.562581
	   25 B(2,4,18)       =    110.739118     0.000104    -1.507075   109.232043
	   26 B(2,4,19)       =    109.152552     0.000239     2.063018   111.215569
	   27 B(3,2,4)        =    117.319433     0.001163     5.122732   122.442165
	   28 B(3,5,8)        =    112.710540    -0.000041    -0.432229   112.278310
	   29 B(3,5,9)        =    109.780417    -0.000067     1.765340   111.545757
	   30 B(3,5,10)       =    108.666118     0.000290     0.601692   109.267810
	   31 B(5,3,6)        =    109.810434    -0.000334    -1.680919   108.129515
	   32 B(5,3,7)        =    109.636486    -0.000560     1.303277   110.939763
	   33 B(5,8,11)       =    112.896743     0.000059     0.024668   112.921411
	   34 B(5,8,12)       =    109.374389    -0.000026     1.766938   111.141327
	   35 B(5,8,13)       =    109.148959    -0.000005    -0.120588   109.028372
	   36 B(6,3,7)        =    108.360395     0.000222    -3.973743   104.386651
	   37 B(8,5,9)        =    109.185818     0.000030    -0.671524   108.514294
	   38 B(8,5,10)       =    109.698106    -0.000216     0.668788   110.366894
	   39 B(8,11,14)      =    111.182908    -0.000010     2.184250   113.367158
	   40 B(8,11,15)      =    111.118349     0.000006    -1.605178   109.513172
	   41 B(8,11,16)      =    111.136008     0.000022    -0.074930   111.061078
	   42 B(9,5,10)       =    106.615577     0.000006    -2.019516   104.596061
	   43 B(11,8,12)      =    109.424387    -0.000013    -1.704036   107.720350
	   44 B(11,8,13)      =    109.430725    -0.000021     2.118685   111.549410
	   45 B(12,8,13)      =    106.354106     0.000004    -2.219758   104.134348
	   46 B(14,11,15)     =    107.707378     0.000000    -2.063070   105.644308
	   47 B(14,11,16)     =    107.747041    -0.000007    -0.205070   107.541971
	   48 B(15,11,16)     =    107.783641    -0.000013     1.740292   109.523933
	   49 B(17,4,18)      =    110.076256    -0.000022    -1.194218   108.882038
	   50 B(17,4,19)      =    109.481266    -0.000049    -0.002253   109.479013
	   51 B(18,4,19)      =    107.180955    -0.000027     0.206148   107.387103
	   52 D(1,2,3,5)      =   -150.728092     0.000001     1.826056  -148.902035
	   53 D(1,2,3,6)      =    -28.752397     0.000097     3.585169   -25.167228
	   54 D(1,2,3,7)      =     89.245562    -0.000064    -3.284016    85.961546
	   55 D(1,2,4,17)     =     -8.098229    -0.000004    -0.770521    -8.868750
	   56 D(1,2,4,18)     =   -130.099285     0.000023     1.432711  -128.666573
	   57 D(1,2,4,19)     =    112.133985    -0.000017     0.845151   112.979136
	   58 D(2,3,5,8)      =   -179.256722    -0.000026    -3.302591  -182.559313
	   59 D(2,3,5,9)      =     58.797978    -0.000017    -3.409694    55.388284
	   60 D(2,3,5,10)     =    -57.449135    -0.000048    -2.315185   -59.764320
	   61 D(3,2,4,17)     =    171.169315    -0.000003     1.042716   172.212031
	   62 D(3,2,4,18)     =     49.168259     0.000024     3.245949    52.414208
	   63 D(3,2,4,19)     =    -68.598472    -0.000016     2.658388   -65.940083
	   64 D(3,5,8,11)     =    179.481412     0.000022     1.126081   180.607493
	   65 D(3,5,8,12)     =    -58.432122     0.000023     0.226411   -58.205711
	   66 D(3,5,8,13)     =     57.548366     0.000020    -1.529361    56.019005
	   67 *D(4,2,3,5)     =     30.000003    -0.000000    -0.000000    30.000003
	   68 D(4,2,3,6)      =    151.975698     0.000096     1.759113   153.734810
	   69 D(4,2,3,7)      =    -90.026344    -0.000064    -5.110073   -95.136416
	   70 D(5,8,11,14)    =     60.213915    -0.000002    -1.332397    58.881518
	   71 D(5,8,11,15)    =    -59.743752    -0.000001     0.929945   -58.813807
	   72 D(5,8,11,16)    =   -179.766428    -0.000002    -0.139305  -179.905733
	   73 D(6,3,5,8)      =     58.509150    -0.000022    -4.782790    53.726360
	   74 D(6,3,5,9)      =    -63.436150    -0.000014    -4.889893   -68.326043
	   75 D(6,3,5,10)     =   -179.683263    -0.000045    -3.795384  -183.478647
	   76 D(7,3,5,8)      =    -60.438522     0.000040     0.259891   -60.178631
	   77 D(7,3,5,9)      =    177.616177     0.000049     0.152788   177.768965
	   78 D(7,3,5,10)     =     61.369065     0.000018     1.247298    62.616362
	   79 D(9,5,8,11)     =    -58.238108     0.000001     2.606173   -55.631936
	   80 D(9,5,8,12)     =     63.848357     0.000002     1.706503    65.554860
	   81 D(9,5,8,13)     =    179.828845    -0.000001    -0.049269   179.779576
	   82 D(10,5,8,11)    =     58.259355    -0.000021     0.175249    58.434604
	   83 D(10,5,8,12)    =   -179.654179    -0.000020    -0.724421  -180.378600
	   84 D(10,5,8,13)    =    -63.673691    -0.000023    -2.480193   -66.153884
	   85 D(12,8,11,14)   =    -61.844454    -0.000001    -2.381486   -64.225940
	   86 D(12,8,11,15)   =    178.197879    -0.000001    -0.119144   178.078735
	   87 D(12,8,11,16)   =     58.175204    -0.000001    -1.188395    56.986809
	   88 D(13,8,11,14)   =   -178.011759     0.000002     0.094367  -177.917392
	   89 D(13,8,11,15)   =     62.030573     0.000003     2.356710    64.387283
	   90 D(13,8,11,16)   =    -57.992102     0.000002     1.287459   -56.704643
	 ---------------------------------------------------------------------------
	Successfully symmetrized geometry.

  ==> Convergence Check <==

  Measures of convergence in internal coordinates in au.
  Criteria marked as inactive (o), active & met (*), and active & unmet ( ).
  --------------------------------------------------------------------------------------------- ~
   Step     Total Energy     Delta E     MAX Force     RMS Force      MAX Disp      RMS Disp    ~
  --------------------------------------------------------------------------------------------- ~
    Convergence Criteria    1.00e-06 *    3.00e-04 *             o    1.20e-03 *             o  ~
  --------------------------------------------------------------------------------------------- ~
      1    -309.17274806   -3.09e+02      3.05e-02      4.63e-03 o    1.93e-01      6.02e-02 o  ~
  ---------------------------------------------------------------------------------------------

	Writing optimization data to binary file.
	Structure for next step:
	Cartesian Geometry (in Angstrom)
	    O    -2.1123574180  -1.6442906053  -1.1029689132
	    C    -1.5730005315  -0.5837340776  -0.8508323063
	    C    -0.0103848708  -0.5615919596  -0.4320287270
	    C    -2.4546180099   0.7362383003  -0.9242512318
	    C     0.5099156093   0.5759113758   0.5782289498
	    H     0.2416507015  -1.5409464418  -0.0031203469
	    H     0.5593224362  -0.5270837836  -1.4067798677
	    C     2.0752205567   0.4070018037   0.9364658832
	    H    -0.0813153523   0.5769441650   1.5428358656
	    H     0.3227756504   1.5661651671   0.1373350569
	    C     2.6040334612   1.5191570427   1.9504618941
	    H     2.2762766909  -0.5804119205   1.3862205703
	    H     2.6748631792   0.4007599542  -0.0234123929
	    H     2.0500835839   1.5273182879   2.9356622859
	    H     2.4489447922   2.5174830096   1.5145766648
	    H     3.7177716942   1.3704254813   2.1812655559
	    H    -3.4850345734   0.5085098070  -1.3783538542
	    H    -1.9470719652   1.4737226218  -1.5510256607
	    H    -2.5896768455   1.2052055041   0.1176632291
			--------------------------
			 OPTKING Finished Execution 
			--------------------------

    Structure for next step:
    Molecular point group: c1
    Full point group: C1

    Geometry (in Angstrom), charge = 0, multiplicity = 1:

    O           -1.975119645157    -1.718026033946    -1.132444493586
    C           -1.435762758607    -0.657469506201    -0.880307886734
    C            0.126852902046    -0.635327388188    -0.461504307406
    C           -2.317380237049     0.662502871701    -0.953726812213
    C            0.647153382178     0.502175947147     0.548753369399
    H            0.378888474355    -1.614681870438    -0.032595927366
    H            0.696560209100    -0.600819212272    -1.436255448129
    C            2.212458329562     0.333266375054     0.906990302732
    H            0.055922420536     0.503208736381     1.513360285174
    H            0.460013423304     1.492429738499     0.107859476474
    C            2.741271234060     1.445421614025     1.920986313703
    H            2.413514463759    -0.654147349169     1.356744989864
    H            2.812100952072     0.327024525566    -0.052887973305
    H            2.187321356777     1.453582859275     2.906186705448
    H            2.586182565100     2.443747581015     1.485101084400
    H            3.855009467035     1.296690052701     2.151789975421
    H           -3.347796800526     0.434774378385    -1.407829434618
    H           -1.809834192324     1.399987193176    -1.580501241132
    H           -2.452439072602     1.131470075423     0.088187648659

gradient() will perform analytic gradient computation.

*** tstart() called on cx1-27-3-4
*** at Sat Sep 10 21:23:43 2016


         ---------------------------------------------------------
                                   SCF
            by Justin Turney, Rob Parrish, and Andy Simmonett
                              RHF Reference
                        4 Threads,   2000 MiB Core
         ---------------------------------------------------------

  ==> Geometry <==

    Molecular point group: c1
    Full point group: C1

    Geometry (in Angstrom), charge = 0, multiplicity = 1:

       Center              X                  Y                   Z               Mass       
    ------------   -----------------  -----------------  -----------------  -----------------
           O         -1.975119645157    -1.718026033946    -1.132444493586    15.994914619560
           C         -1.435762758607    -0.657469506201    -0.880307886734    12.000000000000
           C          0.126852902046    -0.635327388188    -0.461504307406    12.000000000000
           C         -2.317380237049     0.662502871701    -0.953726812213    12.000000000000
           C          0.647153382178     0.502175947147     0.548753369399    12.000000000000
           H          0.378888474355    -1.614681870438    -0.032595927366     1.007825032070
           H          0.696560209100    -0.600819212272    -1.436255448129     1.007825032070
           C          2.212458329562     0.333266375054     0.906990302732    12.000000000000
           H          0.055922420536     0.503208736381     1.513360285174     1.007825032070
           H          0.460013423304     1.492429738499     0.107859476474     1.007825032070
           C          2.741271234060     1.445421614025     1.920986313703    12.000000000000
           H          2.413514463759    -0.654147349169     1.356744989864     1.007825032070
           H          2.812100952072     0.327024525566    -0.052887973305     1.007825032070
           H          2.187321356777     1.453582859275     2.906186705448     1.007825032070
           H          2.586182565100     2.443747581015     1.485101084400     1.007825032070
           H          3.855009467035     1.296690052701     2.151789975421     1.007825032070
           H         -3.347796800526     0.434774378385    -1.407829434618     1.007825032070
           H         -1.809834192324     1.399987193176    -1.580501241132     1.007825032070
           H         -2.452439072602     1.131470075423     0.088187648659     1.007825032070

  Running in c1 symmetry.

  Rotational constants: A =      0.20779  B =      0.03140  C =      0.02837 [cm^-1]
  Rotational constants: A =   6229.42592  B =    941.35764  C =    850.50756 [MHz]
  Nuclear repulsion =  286.908093267758375

  Charge       = 0
  Multiplicity = 1
  Electrons    = 56
  Nalpha       = 28
  Nbeta        = 28

  ==> Algorithm <==

  SCF Algorithm Type is DF.
  DIIS enabled.
  MOM disabled.
  Fractional occupation disabled.
  Guess Type is READ.
  Energy threshold   = 1.00e-08
  Density threshold  = 1.00e-08
  Integral threshold = 0.00e+00

  ==> Primary Basis <==

  Basis Set: CC-PVTZ
    Number of shells: 142
    Number of basis function: 378
    Number of Cartesian functions: 425
    Spherical Harmonics?: true
    Max angular momentum: 3

  ==> Pre-Iterations <==

   -------------------------------------------------------
    Irrep   Nso     Nmo     Nalpha   Nbeta   Ndocc  Nsocc
   -------------------------------------------------------
     A        378     378       0       0       0       0
   -------------------------------------------------------
    Total     378     378      28      28      28       0
   -------------------------------------------------------

  ==> Integral Setup <==

  ==> DFJK: Density-Fitted J/K Matrices <==

    J tasked:                  Yes
    K tasked:                  Yes
    wK tasked:                  No
    OpenMP threads:              4
    Integrals threads:           4
    Memory (MB):              1430
    Algorithm:                Core
    Integral Cache:           NONE
    Schwarz Cutoff:          1E-12
    Fitting Condition:       1E-12

   => Auxiliary Basis Set <=

  Basis Set: 
    Number of shells: 295
    Number of basis function: 913
    Number of Cartesian functions: 1092
    Spherical Harmonics?: true
    Max angular momentum: 4

  Minimum eigenvalue in the overlap matrix is 4.6442868935E-04.
  Using Symmetric Orthogonalization.
  SCF Guess: Reading in previously saved MOs, projecting if necessary.

  Using orbitals from previous SCF, no projection.
  Recomputing DOCC and SOCC from number of alpha and beta electrons from previous calculation.
              A 
    DOCC [    28 ]

  ==> Iterations <==

                           Total Energy        Delta E     RMS |[F,P]|

   @DF-RHF iter   0:  -308.31895634062442   -3.08319e+02   1.99398e-03 
   @DF-RHF iter   1:  -309.08996442099652   -7.71008e-01   6.72451e-04 
   @DF-RHF iter   2:  -309.12794953357349   -3.79851e-02   3.48578e-04 DIIS
   @DF-RHF iter   3:  -309.13676547255324   -8.81594e-03   8.87913e-05 DIIS
   @DF-RHF iter   4:  -309.13778271004816   -1.01724e-03   4.74741e-05 DIIS
   @DF-RHF iter   5:  -309.13805664710054   -2.73937e-04   1.56423e-05 DIIS
   @DF-RHF iter   6:  -309.13815360189170   -9.69548e-05   8.65613e-06 DIIS
   @DF-RHF iter   7:  -309.13818801125677   -3.44094e-05   3.41177e-06 DIIS
   @DF-RHF iter   8:  -309.13819338531226   -5.37406e-06   6.60100e-07 DIIS
   @DF-RHF iter   9:  -309.13819350727664   -1.21964e-07   2.06360e-07 DIIS
   @DF-RHF iter  10:  -309.13819351563683   -8.36019e-09   8.08924e-08 DIIS
   @DF-RHF iter  11:  -309.13819351713579   -1.49896e-09   2.82736e-08 DIIS
   @DF-RHF iter  12:  -309.13819351734770   -2.11912e-10   7.80207e-09 DIIS

  ==> Post-Iterations <==

    Orbital Energies (a.u.)
    -----------------------

    Doubly Occupied:                                                      

       1A    -20.543959     2A    -11.343573     3A    -11.257195  
       4A    -11.254109     5A    -11.252774     6A    -11.249537  
       7A    -11.238725     8A     -1.380070     9A     -1.057111  
      10A     -0.997475    11A     -0.961351    12A     -0.878789  
      13A     -0.804455    14A     -0.729202    15A     -0.635428  
      16A     -0.629050    17A     -0.611433    18A     -0.591969  
      19A     -0.571423    20A     -0.560700    21A     -0.541784  
      22A     -0.521982    23A     -0.512759    24A     -0.489964  
      25A     -0.481721    26A     -0.472365    27A     -0.471454  
      28A     -0.395072  

    Virtual:                                                              

      29A      0.124610    30A      0.142702    31A      0.147499  
      32A      0.158203    33A      0.172459    34A      0.190587  
      35A      0.202284    36A      0.207467    37A      0.213641  
      38A      0.223017    39A      0.235036    40A      0.249539  
      41A      0.266207    42A      0.276104    43A      0.307091  
      44A      0.317701    45A      0.330603    46A      0.366607  
      47A      0.376405    48A      0.379403    49A      0.388070  
      50A      0.397729    51A      0.423995    52A      0.434880  
      53A      0.458640    54A      0.468043    55A      0.493864  
      56A      0.519953    57A      0.534078    58A      0.553625  
      59A      0.572226    60A      0.580418    61A      0.591134  
      62A      0.593633    63A      0.600396    64A      0.610696  
      65A      0.613756    66A      0.622689    67A      0.623888  
      68A      0.638185    69A      0.640665    70A      0.646825  
      71A      0.652858    72A      0.660848    73A      0.666541  
      74A      0.671226    75A      0.677875    76A      0.692198  
      77A      0.718193    78A      0.727993    79A      0.760083  
      80A      0.781381    81A      0.799844    82A      0.832645  
      83A      0.874945    84A      0.879079    85A      0.891465  
      86A      0.899171    87A      0.910675    88A      0.930782  
      89A      0.946794    90A      0.962564    91A      0.981703  
      92A      0.990775    93A      1.029117    94A      1.045292  
      95A      1.066697    96A      1.078092    97A      1.087774  
      98A      1.109716    99A      1.138992   100A      1.151658  
     101A      1.166768   102A      1.185338   103A      1.192617  
     104A      1.202297   105A      1.234183   106A      1.242969  
     107A      1.250920   108A      1.262118   109A      1.264182  
     110A      1.274606   111A      1.290601   112A      1.295004  
     113A      1.298647   114A      1.320374   115A      1.333449  
     116A      1.341243   117A      1.353802   118A      1.362995  
     119A      1.369191   120A      1.375473   121A      1.386749  
     122A      1.408212   123A      1.429329   124A      1.451148  
     125A      1.470371   126A      1.477701   127A      1.489562  
     128A      1.497178   129A      1.521934   130A      1.528706  
     131A      1.535452   132A      1.555343   133A      1.563487  
     134A      1.575913   135A      1.576576   136A      1.589429  
     137A      1.596660   138A      1.611108   139A      1.645669  
     140A      1.666196   141A      1.672118   142A      1.710135  
     143A      1.724126   144A      1.757550   145A      1.764472  
     146A      1.770173   147A      1.782829   148A      1.814875  
     149A      1.821616   150A      1.858187   151A      1.905142  
     152A      1.940621   153A      1.991714   154A      2.073727  
     155A      2.144986   156A      2.251261   157A      2.433425  
     158A      2.461400   159A      2.466232   160A      2.497307  
     161A      2.544135   162A      2.566496   163A      2.574526  
     164A      2.602187   165A      2.611024   166A      2.636208  
     167A      2.661741   168A      2.680124   169A      2.691420  
     170A      2.734430   171A      2.738614   172A      2.760425  
     173A      2.774268   174A      2.789335   175A      2.813515  
     176A      2.838185   177A      2.842669   178A      2.858232  
     179A      2.868241   180A      2.888871   181A      2.907706  
     182A      2.919804   183A      2.933517   184A      2.941031  
     185A      2.955057   186A      2.998827   187A      3.030211  
     188A      3.040027   189A      3.067410   190A      3.076501  
     191A      3.088647   192A      3.095510   193A      3.117053  
     194A      3.124941   195A      3.144816   196A      3.160443  
     197A      3.175804   198A      3.211510   199A      3.224320  
     200A      3.231773   201A      3.243859   202A      3.250988  
     203A      3.277393   204A      3.286357   205A      3.288680  
     206A      3.305831   207A      3.324459   208A      3.334158  
     209A      3.341574   210A      3.364206   211A      3.373059  
     212A      3.377324   213A      3.391810   214A      3.400974  
     215A      3.406174   216A      3.423821   217A      3.426520  
     218A      3.432235   219A      3.452947   220A      3.473597  
     221A      3.485687   222A      3.493330   223A      3.496173  
     224A      3.515260   225A      3.518452   226A      3.532435  
     227A      3.554486   228A      3.561804   229A      3.591783  
     230A      3.598826   231A      3.621503   232A      3.640447  
     233A      3.649214   234A      3.663022   235A      3.684631  
     236A      3.715752   237A      3.718836   238A      3.725318  
     239A      3.738992   240A      3.749122   241A      3.756891  
     242A      3.789692   243A      3.798090   244A      3.801036  
     245A      3.811679   246A      3.829609   247A      3.848498  
     248A      3.858256   249A      3.881638   250A      3.907226  
     251A      3.924025   252A      3.960284   253A      3.978054  
     254A      4.001060   255A      4.009942   256A      4.018066  
     257A      4.033145   258A      4.044006   259A      4.068896  
     260A      4.087457   261A      4.094166   262A      4.103265  
     263A      4.115507   264A      4.128555   265A      4.131023  
     266A      4.142340   267A      4.163289   268A      4.169442  
     269A      4.187973   270A      4.218080   271A      4.231019  
     272A      4.245496   273A      4.258944   274A      4.273590  
     275A      4.283862   276A      4.303550   277A      4.310597  
     278A      4.314478   279A      4.330075   280A      4.342348  
     281A      4.350162   282A      4.353207   283A      4.371009  
     284A      4.383274   285A      4.400071   286A      4.411164  
     287A      4.442819   288A      4.462410   289A      4.468406  
     290A      4.490771   291A      4.493757   292A      4.525368  
     293A      4.537963   294A      4.548189   295A      4.563372  
     296A      4.573232   297A      4.581633   298A      4.597523  
     299A      4.607579   300A      4.618255   301A      4.645835  
     302A      4.655934   303A      4.707575   304A      4.746932  
     305A      4.781811   306A      4.817268   307A      4.831724  
     308A      4.877444   309A      4.899078   310A      4.939202  
     311A      4.956918   312A      4.985114   313A      5.011239  
     314A      5.018737   315A      5.049727   316A      5.059700  
     317A      5.077730   318A      5.103479   319A      5.117586  
     320A      5.147368   321A      5.160787   322A      5.179444  
     323A      5.212906   324A      5.232256   325A      5.260104  
     326A      5.269983   327A      5.287832   328A      5.312673  
     329A      5.327960   330A      5.339557   331A      5.366597  
     332A      5.396432   333A      5.411824   334A      5.416480  
     335A      5.438951   336A      5.446625   337A      5.497198  
     338A      5.504894   339A      5.563660   340A      5.575336  
     341A      5.580748   342A      5.615975   343A      5.627266  
     344A      5.652511   345A      5.673741   346A      5.687370  
     347A      5.706601   348A      5.724306   349A      5.729095  
     350A      5.743857   351A      5.768887   352A      5.799193  
     353A      5.815628   354A      5.852712   355A      6.030859  
     356A      6.142563   357A      6.190033   358A      6.206540  
     359A      6.228962   360A      6.234606   361A      6.274133  
     362A      6.333880   363A      6.407130   364A      6.655026  
     365A      6.692445   366A      6.918905   367A      6.973132  
     368A      6.983180   369A      7.363773   370A      7.525236  
     371A      7.569563   372A      8.913064   373A     12.220705  
     374A     12.327665   375A     12.533047   376A     13.028505  
     377A     13.149100   378A     13.453533  

    Final Occupation by Irrep:
              A 
    DOCC [    28 ]

  Energy converged.

  @DF-RHF Final Energy:  -309.13819351734770

   => Energetics <=

    Nuclear Repulsion Energy =            286.9080932677583746
    One-Electron Energy =                -987.2217096239882039
    Two-Electron Energy =                 391.1754228388821275
    DFT Exchange-Correlation Energy =       0.0000000000000000
    Empirical Dispersion Energy =           0.0000000000000000
    PCM Polarization Energy =               0.0000000000000000
    EFP Energy =                            0.0000000000000000
    Total Energy =                       -309.1381935173477586


  Saving occupied orbitals to File 180.

*** tstop() called on cx1-27-3-4 at Sat Sep 10 21:23:53 2016
Module time:
	user time   =      36.08 seconds =       0.60 minutes
	system time =       0.78 seconds =       0.01 minutes
	total time  =         10 seconds =       0.17 minutes
Total time:
	user time   =     117.26 seconds =       1.95 minutes
	system time =       2.68 seconds =       0.04 minutes
	total time  =         33 seconds =       0.55 minutes


Properties will be evaluated at   0.000000,   0.000000,   0.000000 Bohr

Properties computed using the SCF density matrix

  Nuclear Dipole Moment: (a.u.)
     X:     7.3360      Y:     7.1290      Z:     4.7749

  Electronic Dipole Moment: (a.u.)
     X:    -6.6769      Y:    -6.0374      Z:    -4.4604

  Dipole Moment: (a.u.)
     X:     0.6591      Y:     1.0915      Z:     0.3145     Total:     1.3133

  Dipole Moment: (Debye)
     X:     1.6753      Y:     2.7744      Z:     0.7994     Total:     3.3381


*** tstart() called on cx1-27-3-4
*** at Sat Sep 10 21:23:53 2016


         ------------------------------------------------------------
                                   SCF GRAD                          
                          Rob Parrish, Justin Turney,                
                       Andy Simmonett, and Alex Sokolov              
         ------------------------------------------------------------

  ==> Geometry <==

    Molecular point group: c1
    Full point group: C1

    Geometry (in Angstrom), charge = 0, multiplicity = 1:

       Center              X                  Y                   Z               Mass       
    ------------   -----------------  -----------------  -----------------  -----------------
           O         -1.975119645157    -1.718026033946    -1.132444493586    15.994914619560
           C         -1.435762758607    -0.657469506201    -0.880307886734    12.000000000000
           C          0.126852902046    -0.635327388188    -0.461504307406    12.000000000000
           C         -2.317380237049     0.662502871701    -0.953726812213    12.000000000000
           C          0.647153382178     0.502175947147     0.548753369399    12.000000000000
           H          0.378888474355    -1.614681870438    -0.032595927366     1.007825032070
           H          0.696560209100    -0.600819212272    -1.436255448129     1.007825032070
           C          2.212458329562     0.333266375054     0.906990302732    12.000000000000
           H          0.055922420536     0.503208736381     1.513360285174     1.007825032070
           H          0.460013423304     1.492429738499     0.107859476474     1.007825032070
           C          2.741271234060     1.445421614025     1.920986313703    12.000000000000
           H          2.413514463759    -0.654147349169     1.356744989864     1.007825032070
           H          2.812100952072     0.327024525566    -0.052887973305     1.007825032070
           H          2.187321356777     1.453582859275     2.906186705448     1.007825032070
           H          2.586182565100     2.443747581015     1.485101084400     1.007825032070
           H          3.855009467035     1.296690052701     2.151789975421     1.007825032070
           H         -3.347796800526     0.434774378385    -1.407829434618     1.007825032070
           H         -1.809834192324     1.399987193176    -1.580501241132     1.007825032070
           H         -2.452439072602     1.131470075423     0.088187648659     1.007825032070

  Nuclear repulsion =  286.908093267758375

  ==> Basis Set <==

  Basis Set: CC-PVTZ
    Number of shells: 142
    Number of basis function: 378
    Number of Cartesian functions: 425
    Spherical Harmonics?: true
    Max angular momentum: 3

  ==> DFJKGrad: Density-Fitted SCF Gradients <==

    Gradient:                    1
    J tasked:                  Yes
    K tasked:                  Yes
    wK tasked:                  No
    OpenMP threads:              4
    Integrals threads:           4
    Memory (MB):              1430
    Schwarz Cutoff:          0E+00
    Fitting Condition:       1E-12

   => Auxiliary Basis Set <=

  Basis Set: 
    Number of shells: 295
    Number of basis function: 913
    Number of Cartesian functions: 1092
    Spherical Harmonics?: true
    Max angular momentum: 4


  -Total Gradient:
     Atom            X                  Y                   Z
    ------   -----------------  -----------------  -----------------
       1       -0.033088332342    -0.048931429263    -0.010895191016
       2        0.020123792942     0.025145451033    -0.006828029208
       3        0.004477997091    -0.011846910518     0.004217699322
       4        0.006045394916     0.008735035295    -0.012746077863
       5       -0.003514185960     0.012029017297    -0.003701613721
       6        0.010574068404    -0.008422184877     0.005160773018
       7        0.013184835671    -0.005229219669    -0.022964552881
       8        0.007503575562    -0.007967871293     0.003350974712
       9       -0.013754800870     0.006161213646     0.024724928991
      10       -0.006735352170     0.009171314210    -0.003045726527
      11       -0.005373951207     0.009929738976    -0.000211074089
      12        0.009001782477    -0.010148224174     0.004750190416
      13        0.014564529063    -0.006939759195    -0.024676097570
      14       -0.012498698009     0.006621600513     0.025769817736
      15       -0.006271992312     0.009495703929    -0.004017743015
      16        0.036789914379    -0.005322980706     0.009199713036
      17       -0.038701347445    -0.003459244633    -0.018054405673
      18        0.003329717857     0.002717676486    -0.004506467420
      19       -0.005656948050     0.018261072937     0.034472881752


*** tstop() called on cx1-27-3-4 at Sat Sep 10 21:24:04 2016
Module time:
	user time   =      39.47 seconds =       0.66 minutes
	system time =       0.73 seconds =       0.01 minutes
	total time  =         11 seconds =       0.18 minutes
Total time:
	user time   =     156.82 seconds =       2.61 minutes
	system time =       3.41 seconds =       0.06 minutes
	total time  =         44 seconds =       0.73 minutes

			-----------------------------------------
			 OPTKING 2.0: for geometry optimizations 
			  - R.A. King,  Bethel University        
			-----------------------------------------

	Previous internal coordinate definitions found.
	---Fragment 1 Geometry and Gradient---
	 O          -3.7324352090       -3.2465986933       -2.1400099536
	 C          -2.7131984056       -1.2424373074       -1.6635408185
	 C           0.2397172440       -1.2005947684       -0.8721167501
	 C          -4.3792139938        1.2519489898       -1.8022824807
	 C           1.2229426583        0.9489750106        1.0369935827
	 H           0.7159954514       -3.0513065269       -0.0615973758
	 H           1.3163080303       -1.1353837666       -2.7141294538
	 C           4.1809403233        0.6297821782        1.7139632773
	 H           0.1056780595        0.9509266994        2.8598364794
	 H           0.8692993875        2.8202834783        0.2038248714
	 C           5.1802518883        2.7314509971        3.6301380379
	 H           4.5608813543       -1.2361593405        2.5638764630
	 H           5.3141006574        0.6179867921       -0.0999437853
	 H           4.1334383289        2.7468735155        5.4918969643
	 H           4.8871767777        4.6180136660        2.8064343292
	 H           7.2849121324        2.4503890788        4.0662937490
	 H          -6.3264191015        0.8216045047       -2.6604120732
	 H          -3.4200909694        2.6455923846       -2.9867144984
	 H          -4.6344382048        2.1381685701        0.1666505043
	            -0.0330883323       -0.0489314293       -0.0108951910
	             0.0201237929        0.0251454510       -0.0068280292
	             0.0044779971       -0.0118469105        0.0042176993
	             0.0060453949        0.0087350353       -0.0127460779
	            -0.0035141860        0.0120290173       -0.0037016137
	             0.0105740684       -0.0084221849        0.0051607730
	             0.0131848357       -0.0052292197       -0.0229645529
	             0.0075035756       -0.0079678713        0.0033509747
	            -0.0137548009        0.0061612136        0.0247249290
	            -0.0067353522        0.0091713142       -0.0030457265
	            -0.0053739512        0.0099297390       -0.0002110741
	             0.0090017825       -0.0101482242        0.0047501904
	             0.0145645291       -0.0069397592       -0.0246760976
	            -0.0124986980        0.0066216005        0.0257698177
	            -0.0062719923        0.0094957039       -0.0040177430
	             0.0367899144       -0.0053229807        0.0091997130
	            -0.0387013474       -0.0034592446       -0.0180544057
	             0.0033297179        0.0027176765       -0.0045064674
	            -0.0056569481        0.0182610729        0.0344728818

	---Fragment 1 Intrafragment Coordinates---
	 - Coordinate -           - BOHR/RAD -       - ANG/DEG -
	 R(1,2)           =         2.298375	       1.216248
	 R(2,3)           =         3.057419	       1.617917
	 R(2,4)           =         3.002802	       1.589014
	 R(3,5)           =         3.038435	       1.607870
	 R(3,6)           =         2.075793	       1.098462
	 R(3,7)           =         2.134552	       1.129556
	 R(4,17)          =         2.170988	       1.148838
	 R(4,18)          =         2.065197	       1.092855
	 R(4,19)          =         2.174217	       1.150546
	 R(5,8)           =         3.051217	       1.614634
	 R(5,9)           =         2.137999	       1.131380
	 R(5,10)          =         2.078709	       1.100005
	 R(8,11)          =         3.014525	       1.595218
	 R(8,12)          =         2.085293	       1.103489
	 R(8,13)          =         2.138796	       1.131802
	 R(11,14)         =         2.135931	       1.130286
	 R(11,15)         =         2.079303	       1.100320
	 R(11,16)         =         2.167677	       1.147085
	 B(1,2,3)         =         2.087363	     119.597102
	 B(1,2,4)         =         2.058651	     117.951993
	 B(2,3,5)         =         2.077000	     119.003326
	 B(2,3,6)         =         1.886486	     108.087708
	 B(2,3,7)         =         1.838134	     105.317327
	 B(2,4,17)        =         1.929681	     110.562581
	 B(2,4,18)        =         1.906459	     109.232043
	 B(2,4,19)        =         1.941078	     111.215569
	 B(3,2,4)         =         2.137019	     122.442165
	 B(3,5,8)         =         1.959626	     112.278310
	 B(3,5,9)         =         1.946841	     111.545757
	 B(3,5,10)        =         1.907083	     109.267810
	 B(5,3,6)         =         1.887216	     108.129515
	 B(5,3,7)         =         1.936264	     110.939763
	 B(5,8,11)        =         1.970850	     112.921411
	 B(5,8,12)        =         1.939782	     111.141327
	 B(5,8,13)        =         1.902904	     109.028372
	 B(6,3,7)         =         1.821891	     104.386651
	 B(8,5,9)         =         1.893932	     108.514294
	 B(8,5,10)        =         1.926266	     110.366894
	 B(8,11,14)       =         1.978630	     113.367158
	 B(8,11,15)       =         1.911365	     109.513172
	 B(8,11,16)       =         1.938381	     111.061078
	 B(9,5,10)        =         1.825546	     104.596061
	 B(11,8,12)       =         1.880075	     107.720350
	 B(11,8,13)       =         1.946904	     111.549410
	 B(12,8,13)       =         1.817487	     104.134348
	 B(14,11,15)      =         1.843841	     105.644308
	 B(14,11,16)      =         1.876961	     107.541971
	 B(15,11,16)      =         1.911553	     109.523933
	 B(17,4,18)       =         1.900350	     108.882038
	 B(17,4,19)       =         1.910769	     109.479013
	 B(18,4,19)       =         1.874259	     107.387103
	 D(1,2,3,5)       =        -2.598831	    -148.902035
	 D(1,2,3,6)       =        -0.439251	     -25.167228
	 D(1,2,3,7)       =         1.500312	      85.961546
	 D(1,2,4,17)      =        -0.154789	      -8.868750
	 D(1,2,4,18)      =        -2.245655	    -128.666573
	 D(1,2,4,19)      =         1.971858	     112.979136
	 D(2,3,5,8)       =         3.096924	     177.440687
	 D(2,3,5,9)       =         0.966708	      55.388284
	 D(2,3,5,10)      =        -1.043084	     -59.764320
	 D(3,2,4,17)      =         3.005667	     172.212031
	 D(3,2,4,18)      =         0.914801	      52.414208
	 D(3,2,4,19)      =        -1.150872	     -65.940083
	 D(3,5,8,11)      =        -3.130990	    -179.392507
	 D(3,5,8,12)      =        -1.015881	     -58.205711
	 D(3,5,8,13)      =         0.977716	      56.019005
	*D(4,2,3,5)       =         0.523599	      30.000003
	 D(4,2,3,6)       =         2.683179	     153.734810
	 D(4,2,3,7)       =        -1.660444	     -95.136416
	 D(5,8,11,14)     =         1.027676	      58.881518
	 D(5,8,11,15)     =        -1.026495	     -58.813807
	 D(5,8,11,16)     =        -3.139947	    -179.905733
	 D(6,3,5,8)       =         0.937702	      53.726360
	 D(6,3,5,9)       =        -1.192514	     -68.326043
	 D(6,3,5,10)      =         3.080879	     176.521353
	 D(7,3,5,8)       =        -1.050315	     -60.178631
	 D(7,3,5,9)       =         3.102654	     177.768965
	 D(7,3,5,10)      =         1.092862	      62.616362
	 D(9,5,8,11)      =        -0.970960	     -55.631936
	 D(9,5,8,12)      =         1.144148	      65.554860
	 D(9,5,8,13)      =         3.137746	     179.779576
	 D(10,5,8,11)     =         1.019876	      58.434604
	 D(10,5,8,12)     =         3.134985	     179.621400
	 D(10,5,8,13)     =        -1.154603	     -66.153884
	 D(12,8,11,14)    =        -1.120954	     -64.225940
	 D(12,8,11,15)    =         3.108060	     178.078735
	 D(12,8,11,16)    =         0.994607	      56.986809
	 D(13,8,11,14)    =        -3.105244	    -177.917392
	 D(13,8,11,15)    =         1.123770	      64.387283
	 D(13,8,11,16)    =        -0.989683	     -56.704643

	Current energy   :      -309.1381935173

	Energy change for the previous step:
		Projected    :        -0.0106146933
		Actual       :         0.0345545426

	Performing BFGS update.
	Previous computed or guess Hessian on step 1.
	Steps to be used in Hessian update: 1
	Taking RFO optimization step.
	Going to follow RFO solution 1.
	Using RFO vector 1.
	Norm of target step-size    0.40836
	Projected energy change by RFO approximation:        -0.0480323389

	Back-transformation to cartesian coordinates...
	Could not converge backtransformation.
	Using first guess instead.

	Back-transformation to cartesian coordinates to adjust frozen coordinates...
	Successfully converged to displaced geometry.

	--- Internal Coordinate Step in ANG or DEG, aJ/ANG or AJ/DEG ---
	 ---------------------------------------------------------------------------
	   Coordinate                Previous        Force       Change         New 
	   ----------                --------       ------       ------       ------
	    1 R(1,2)          =      1.216248    -0.491026    -0.027880     1.188368
	    2 R(2,3)          =      1.617917    -0.420823    -0.076774     1.541143
	    3 R(2,4)          =      1.589014    -0.339907    -0.063548     1.525467
	    4 R(3,5)          =      1.607870    -0.353172    -0.061664     1.546206
	    5 R(3,6)          =      1.098462    -0.098454    -0.015228     1.083235
	    6 R(3,7)          =      1.129556    -0.216740    -0.037193     1.092363
	    7 R(4,17)         =      1.148838    -0.350427    -0.060607     1.088230
	    8 R(4,18)         =      1.092855    -0.049143    -0.008544     1.084312
	    9 R(4,19)         =      1.150546    -0.323991    -0.057935     1.092611
	   10 R(5,8)          =      1.614634    -0.378781    -0.075196     1.539438
	   11 R(5,9)          =      1.131380    -0.232940    -0.039172     1.092208
	   12 R(5,10)         =      1.100005    -0.087519    -0.015572     1.084434
	   13 R(8,11)         =      1.595218    -0.314559    -0.060159     1.535059
	   14 R(8,12)         =      1.103489    -0.104277    -0.015542     1.087948
	   15 R(8,13)         =      1.131802    -0.236307    -0.039528     1.092274
	   16 R(11,14)        =      1.130286    -0.235919    -0.039294     1.090992
	   17 R(11,15)        =      1.100320    -0.091377    -0.013760     1.086559
	   18 R(11,16)        =      1.147085    -0.315227    -0.054949     1.092136
	   19 B(1,2,3)        =    119.597102    -0.000016     0.130789   119.727891
	   20 B(1,2,4)        =    117.951993     0.001199     1.855593   119.807586
	   21 B(2,3,5)        =    119.003326    -0.000740    -0.274860   118.728466
	   22 B(2,3,6)        =    108.087708    -0.000229    -1.647552   106.440156
	   23 B(2,3,7)        =    105.317327     0.000425     0.826087   106.143415
	   24 B(2,4,17)       =    110.562581    -0.000551    -1.540542   109.022039
	   25 B(2,4,18)       =    109.232043     0.000360     1.485943   110.717986
	   26 B(2,4,19)       =    111.215569    -0.000288    -0.735681   110.479888
	   27 B(3,2,4)        =    122.442165    -0.001180    -1.980517   120.461648
	   28 B(3,5,8)        =    112.278310    -0.000228     0.067824   112.346134
	   29 B(3,5,9)        =    111.545757    -0.000240    -1.481376   110.064380
	   30 B(3,5,10)       =    109.267810     0.000283     1.118716   110.386526
	   31 B(5,3,6)        =    108.129515     0.000628     1.637922   109.767437
	   32 B(5,3,7)        =    110.939763    -0.000107    -1.438091   109.501672
	   33 B(5,8,11)       =    112.921411    -0.000116     0.117310   113.038721
	   34 B(5,8,12)       =    111.141327    -0.000331    -1.443840   109.697487
	   35 B(5,8,13)       =    109.028372     0.000202     0.413559   109.441931
	   36 B(6,3,7)        =    104.386651     0.000103     1.036691   105.423343
	   37 B(8,5,9)        =    108.514294     0.000243     0.435824   108.950118
	   38 B(8,5,10)       =    110.366894    -0.000185    -1.291863   109.075031
	   39 B(8,11,14)      =    113.367158    -0.000672    -2.015287   111.351871
	   40 B(8,11,15)      =    109.513172     0.000354     1.239827   110.752998
	   41 B(8,11,16)      =    111.061078    -0.000052     0.141573   111.202651
	   42 B(9,5,10)       =    104.596061     0.000150     1.199706   105.795767
	   43 B(11,8,12)      =    107.720350     0.000370     1.219025   108.939376
	   44 B(11,8,13)      =    111.549410    -0.000296    -1.442476   110.106935
	   45 B(12,8,13)      =    104.134348     0.000186     1.193245   105.327593
	   46 B(14,11,15)     =    105.644308     0.000314     1.342360   106.986668
	   47 B(14,11,16)     =    107.541971     0.000265     0.408318   107.950289
	   48 B(15,11,16)     =    109.523933    -0.000193    -1.089616   108.434317
	   49 B(17,4,18)      =    108.882038     0.000221     0.576650   109.458688
	   50 B(17,4,19)      =    109.479013     0.000243     0.112127   109.591139
	   51 B(18,4,19)      =    107.387103     0.000045     0.163085   107.550188
	   52 D(1,2,3,5)      =   -148.902035    -0.000042    -0.480038  -149.382073
	   53 D(1,2,3,6)      =    -25.167228    -0.000020     0.108198   -25.059029
	   54 D(1,2,3,7)      =     85.961546     0.000030     0.946892    86.908438
	   55 D(1,2,4,17)     =     -8.868750     0.000054     0.943592    -7.925159
	   56 D(1,2,4,18)     =   -128.666573     0.000017     0.268718  -128.397855
	   57 D(1,2,4,19)     =    112.979136    -0.000008    -0.415834   112.563301
	   58 D(2,3,5,8)      =    177.440687    -0.000004    -0.379921   177.060766
	   59 D(2,3,5,9)      =     55.388284     0.000002     0.075600    55.463884
	   60 D(2,3,5,10)     =    -59.764320    -0.000047    -1.188567   -60.952886
	   61 D(3,2,4,17)     =    172.212031     0.000016     0.481226   172.693257
	   62 D(3,2,4,18)     =     52.414208    -0.000021    -0.193647    52.220561
	   63 D(3,2,4,19)     =    -65.940083    -0.000046    -0.878200   -66.818283
	   64 D(3,5,8,11)     =   -179.392507    -0.000009     0.014999  -179.377508
	   65 D(3,5,8,12)     =    -58.205711     0.000027     0.622276   -57.583435
	   66 D(3,5,8,13)     =     56.019005     0.000064     1.491976    57.510980
	   67 *D(4,2,3,5)     =     30.000003    -0.000000    -0.000000    30.000003
	   68 D(4,2,3,6)      =    153.734810     0.000022     0.588236   154.323047
	   69 D(4,2,3,7)      =    -95.136416     0.000071     1.426930   -93.709486
	   70 D(5,8,11,14)    =     58.881518     0.000015     0.513145    59.394663
	   71 D(5,8,11,15)    =    -58.813807    -0.000033    -0.710790   -59.524597
	   72 D(5,8,11,16)    =   -179.905733    -0.000024    -0.263177  -180.168910
	   73 D(6,3,5,8)      =     53.726360     0.000071     0.655074    54.381434
	   74 D(6,3,5,9)      =    -68.326043     0.000076     1.110596   -67.215448
	   75 D(6,3,5,10)     =    176.521353     0.000027    -0.153572   176.367782
	   76 D(7,3,5,8)      =    -60.178631    -0.000026    -0.722060   -60.900691
	   77 D(7,3,5,9)      =    177.768965    -0.000020    -0.266539   177.502427
	   78 D(7,3,5,10)     =     62.616362    -0.000070    -1.530706    61.085656
[...]
	 R(8,12)          =         2.052217	       1.085986
	 R(8,13)          =         2.053144	       1.086477
	 R(11,14)         =         2.049996	       1.084811
	 R(11,15)         =         2.050183	       1.084910
	 R(11,16)         =         2.047693	       1.083593
	 B(1,2,3)         =         2.096418	     120.115883
	 B(1,2,4)         =         2.109500	     120.865465
	 B(2,3,5)         =         2.045426	     117.194305
	 B(2,3,6)         =         1.861356	     106.647854
	 B(2,3,7)         =         1.845012	     105.711385
	 B(2,4,17)        =         1.906917	     109.258304
	 B(2,4,18)        =         1.933848	     110.801319
	 B(2,4,19)        =         1.921355	     110.085560
	 B(3,2,4)         =         2.077148	     119.011793
	 B(3,5,8)         =         1.958953	     112.239752
	 B(3,5,9)         =         1.915033	     109.723307
	 B(3,5,10)        =         1.923997	     110.236901
	 B(5,3,6)         =         1.938623	     111.074901
	 B(5,3,7)         =         1.905621	     109.184064
	 B(5,8,11)        =         1.972321	     113.005653
	 B(5,8,12)        =         1.906933	     109.259238
	 B(5,8,13)        =         1.906344	     109.225465
	 B(6,3,7)         =         1.856979	     106.397044
	 B(8,5,9)         =         1.902442	     109.001900
	 B(8,5,10)        =         1.902297	     108.993583
	 B(8,11,14)       =         1.940057	     111.157104
	 B(8,11,15)       =         1.940695	     111.193604
	 B(8,11,16)       =         1.939814	     111.143163
	 B(9,5,10)        =         1.858247	     106.469700
	 B(11,8,12)       =         1.909907	     109.429609
	 B(11,8,13)       =         1.909797	     109.423328
	 B(12,8,13)       =         1.854841	     106.274544
	 B(14,11,15)      =         1.879834	     107.706549
	 B(14,11,16)      =         1.880339	     107.735491
	 B(15,11,16)      =         1.880348	     107.736006
	 B(17,4,18)       =         1.917535	     109.866657
	 B(17,4,19)       =         1.911173	     109.502153
	 B(18,4,19)       =         1.872751	     107.300749
	 D(1,2,3,5)       =        -2.634476	    -150.944368
	 D(1,2,3,6)       =        -0.450339	     -25.802541
	 D(1,2,3,7)       =         1.521299	      87.164004
	 D(1,2,4,17)      =        -0.098675	      -5.653635
	 D(1,2,4,18)      =        -2.213750	    -126.838558
	 D(1,2,4,19)      =         2.000676	     114.630319
	 D(2,3,5,8)       =         3.115715	     178.517326
	 D(2,3,5,9)       =         0.997732	      57.165807
	 D(2,3,5,10)      =        -1.043372	     -59.780835
	 D(3,2,4,17)      =         3.026308	     173.394690
	 D(3,2,4,18)      =         0.911232	      52.209768
	 D(3,2,4,19)      =        -1.157526	     -66.321356
	 D(3,5,8,11)      =        -3.139502	    -179.880207
	 D(3,5,8,12)      =        -1.008729	     -57.795940
	 D(3,5,8,13)      =         1.013476	      58.067877
	*D(4,2,3,5)       =         0.523599	      30.000003
	 D(4,2,3,6)       =         2.707736	     155.141830
	 D(4,2,3,7)       =        -1.603811	     -91.891625
	 D(5,8,11,14)     =         1.047225	      60.001558
	 D(5,8,11,15)     =        -1.046992	     -59.988210
	 D(5,8,11,16)     =         3.141490	     179.994115
	 D(6,3,5,8)       =         0.970695	      55.616739
	 D(6,3,5,9)       =        -1.147288	     -65.734779
	 D(6,3,5,10)      =         3.094793	     177.318579
	 D(7,3,5,8)       =        -1.071792	     -61.409179
	 D(7,3,5,9)       =         3.093409	     177.239302
	 D(7,3,5,10)      =         1.052305	      60.292660
	 D(9,5,8,11)      =        -1.014314	     -58.115918
	 D(9,5,8,12)      =         1.116458	      63.968350
	 D(9,5,8,13)      =         3.138663	     179.832166
	 D(10,5,8,11)     =         1.007236	      57.710359
	 D(10,5,8,12)     =         3.138008	     179.794626
	 D(10,5,8,13)     =        -1.122972	     -64.341557
	 D(12,8,11,14)    =        -1.081879	     -61.987126
	 D(12,8,11,15)    =         3.107089	     178.023105
	 D(12,8,11,16)    =         1.012386	      58.005431
	 D(13,8,11,14)    =        -3.107691	    -178.057581
	 D(13,8,11,15)    =         1.081278	      61.952650
	 D(13,8,11,16)    =        -1.013426	     -58.065024

	Current energy   :      -309.1757787939

	Energy change for the previous step:
		Projected    :         0.0000001697
		Actual       :        -0.0000001368

	Performing BFGS update.
	Previous computed or guess Hessian on step 1.
	Steps to be used in Hessian update: 10 9
	Taking RFO optimization step.
	Going to follow RFO solution 1.
	Rejecting RFO root 1 because normalization gives large value.
	Using RFO vector 2.
	Norm of target step-size    0.00297
	Projected energy change by RFO approximation:         0.0000000170

	Back-transformation to cartesian coordinates...
	Could not converge backtransformation.
	Using first guess instead.

	Back-transformation to cartesian coordinates to adjust frozen coordinates...
	Successfully converged to displaced geometry.

	--- Internal Coordinate Step in ANG or DEG, aJ/ANG or AJ/DEG ---
	 ---------------------------------------------------------------------------
	   Coordinate                Previous        Force       Change         New 
	   ----------                --------       ------       ------       ------
	    1 R(1,2)          =      1.188193     0.000173     0.000003     1.188195
	    2 R(2,3)          =      1.519386     0.000063     0.000022     1.519408
	    3 R(2,4)          =      1.511100    -0.000026    -0.000003     1.511097
	    4 R(3,5)          =      1.527415     0.000137     0.000021     1.527436
	    5 R(3,6)          =      1.082037     0.000016     0.000005     1.082042
	    6 R(3,7)          =      1.088676    -0.000009    -0.000000     1.088676
	    7 R(4,17)         =      1.078901    -0.000039    -0.000000     1.078901
	    8 R(4,18)         =      1.084324     0.000100     0.000026     1.084350
	    9 R(4,19)         =      1.083849    -0.000113    -0.000024     1.083826
	   10 R(5,8)          =      1.526592    -0.000046    -0.000005     1.526587
	   11 R(5,9)          =      1.086980     0.000043     0.000006     1.086986
	   12 R(5,10)         =      1.085092     0.000047     0.000006     1.085098
	   13 R(8,11)         =      1.524690     0.000155     0.000033     1.524724
	   14 R(8,12)         =      1.085986     0.000028     0.000003     1.085989
	   15 R(8,13)         =      1.086477     0.000043     0.000006     1.086484
	   16 R(11,14)        =      1.084811     0.000061     0.000009     1.084821
	   17 R(11,15)        =      1.084910     0.000046     0.000005     1.084915
	   18 R(11,16)        =      1.083593     0.000051     0.000008     1.083601
	   19 B(1,2,3)        =    120.115883     0.000000    -0.000049   120.115834
	   20 B(1,2,4)        =    120.865465     0.000000     0.002483   120.867948
	   21 B(2,3,5)        =    117.194305     0.000001     0.002854   117.197159
	   22 B(2,3,6)        =    106.647854    -0.000000    -0.001304   106.646550
	   23 B(2,3,7)        =    105.711385    -0.000000    -0.003078   105.708307
	   24 B(2,4,17)       =    109.258304     0.000000     0.001272   109.259576
	   25 B(2,4,18)       =    110.801319    -0.000001    -0.013648   110.787671
	   26 B(2,4,19)       =    110.085560     0.000001     0.011121   110.096681
	   27 B(3,2,4)        =    119.011793    -0.000000    -0.002455   119.009338
	   28 B(3,5,8)        =    112.239752     0.000001     0.000515   112.240267
	   29 B(3,5,9)        =    109.723307     0.000000     0.000518   109.723825
	   30 B(3,5,10)       =    110.236901     0.000000     0.001399   110.238300
	   31 B(5,3,6)        =    111.074901    -0.000000     0.001923   111.076824
	   32 B(5,3,7)        =    109.184064    -0.000000    -0.000092   109.183972
	   33 B(5,8,11)       =    113.005653     0.000001     0.000416   113.006068
	   34 B(5,8,12)       =    109.259238    -0.000000    -0.002802   109.256436
	   35 B(5,8,13)       =    109.225465    -0.000000    -0.000539   109.224926
	   36 B(6,3,7)        =    106.397044     0.000000    -0.000854   106.396190
	   37 B(8,5,9)        =    109.001900    -0.000000    -0.001854   109.000047
	   38 B(8,5,10)       =    108.993583    -0.000000    -0.002431   108.991153
	   39 B(8,11,14)      =    111.157104     0.000000     0.000206   111.157310
	   40 B(8,11,15)      =    111.193604    -0.000000    -0.001353   111.192252
	   41 B(8,11,16)      =    111.143163     0.000000     0.000100   111.143263
	   42 B(9,5,10)       =    106.469700     0.000000     0.001873   106.471573
	   43 B(11,8,12)      =    109.429609    -0.000000    -0.000730   109.428879
	   44 B(11,8,13)      =    109.423328     0.000000     0.002178   109.425506
	   45 B(12,8,13)      =    106.274544     0.000000     0.001545   106.276090
	   46 B(14,11,15)     =    107.706549     0.000000     0.000807   107.707357
	   47 B(14,11,16)     =    107.735491    -0.000000    -0.000018   107.735474
	   48 B(15,11,16)     =    107.736006     0.000000     0.000320   107.736327
	   49 B(17,4,18)      =    109.866657     0.000000    -0.004231   109.862426
	   50 B(17,4,19)      =    109.502153    -0.000000     0.004910   109.507063
	   51 B(18,4,19)      =    107.300749     0.000000     0.000732   107.301481
	   52 D(1,2,3,5)      =   -150.944368    -0.000000    -0.001433  -150.945801
	   53 D(1,2,3,6)      =    -25.802541     0.000000     0.002125   -25.800416
	   54 D(1,2,3,7)      =     87.164004    -0.000000    -0.000770    87.163234
	   55 D(1,2,4,17)     =     -5.653635    -0.000000     0.048617    -5.605018
	   56 D(1,2,4,18)     =   -126.838558     0.000000     0.061763  -126.776795
	   57 D(1,2,4,19)     =    114.630319     0.000000     0.062338   114.692657
	   58 D(2,3,5,8)      =    178.517326    -0.000000     0.015278   178.532604
	   59 D(2,3,5,9)      =     57.165807     0.000000     0.016928    57.182735
	   60 D(2,3,5,10)     =    -59.780835    -0.000000     0.013513   -59.767322
	   61 D(3,2,4,17)     =    173.394690    -0.000000     0.047148   173.441838
	   62 D(3,2,4,18)     =     52.209768     0.000000     0.060293    52.270061
	   63 D(3,2,4,19)     =    -66.321356     0.000000     0.060868   -66.260487
	   64 D(3,5,8,11)     =   -179.880207     0.000000     0.026250  -179.853957
	   65 D(3,5,8,12)     =    -57.795940     0.000000     0.023579   -57.772361
	   66 D(3,5,8,13)     =     58.067877    -0.000000     0.023568    58.091444
	   67 *D(4,2,3,5)     =     30.000003     0.000000    -0.000000    30.000003
	   68 D(4,2,3,6)      =    155.141830     0.000000     0.003558   155.145388
	   69 D(4,2,3,7)      =    -91.891625    -0.000000     0.000663   -91.890962
	   70 D(5,8,11,14)    =     60.001558    -0.000000    -0.015985    59.985573
	   71 D(5,8,11,15)    =    -59.988210    -0.000000    -0.016238   -60.004448
	   72 D(5,8,11,16)    =    179.994115    -0.000000    -0.015803   179.978313
	   73 D(6,3,5,8)      =     55.616739     0.000000     0.013156    55.629895
	   74 D(6,3,5,9)      =    -65.734779     0.000000     0.014805   -65.719974
	   75 D(6,3,5,10)     =    177.318579    -0.000000     0.011390   177.329969
	   76 D(7,3,5,8)      =    -61.409179     0.000000     0.013126   -61.396054
	   77 D(7,3,5,9)      =    177.239302     0.000000     0.014775   177.254077
	   78 D(7,3,5,10)     =     60.292660    -0.000000     0.011360    60.304020
	   79 D(9,5,8,11)     =    -58.115918     0.000000     0.025958   -58.089960
	   80 D(9,5,8,12)     =     63.968350     0.000000     0.023287    63.991637
	   81 D(9,5,8,13)     =    179.832166    -0.000000     0.023276   179.855442
	   82 D(10,5,8,11)    =     57.710359     0.000000     0.025838    57.736197
	   83 D(10,5,8,12)    =    179.794626    -0.000000     0.023167   179.817793
	   84 D(10,5,8,13)    =    -64.341557    -0.000000     0.023155   -64.318402
	   85 D(12,8,11,14)   =    -61.987126     0.000000    -0.012149   -61.999276
	   86 D(12,8,11,15)   =    178.023105     0.000000    -0.012402   178.010703
	   87 D(12,8,11,16)   =     58.005431     0.000000    -0.011967    57.993464
	   88 D(13,8,11,14)   =   -178.057581    -0.000000    -0.014825  -178.072406
	   89 D(13,8,11,15)   =     61.952650    -0.000000    -0.015077    61.937573
	   90 D(13,8,11,16)   =    -58.065024    -0.000000    -0.014642   -58.079666
	 ---------------------------------------------------------------------------
	Successfully symmetrized geometry.

  ==> Convergence Check <==

  Measures of convergence in internal coordinates in au.
  Criteria marked as inactive (o), active & met (*), and active & unmet ( ).
  ---------------------------------------------------------------------------------------------
   Step     Total Energy     Delta E     MAX Force     RMS Force      MAX Disp      RMS Disp   
  ---------------------------------------------------------------------------------------------
    Convergence Criteria    1.00e-06 *    3.00e-04 *             o    1.20e-03 *             o
  ---------------------------------------------------------------------------------------------
     11    -309.17577879   -1.37e-07 *    2.10e-05 *    5.99e-06 o    1.09e-03 *    3.13e-04 o  ~
  ---------------------------------------------------------------------------------------------


  **** Optimization is complete! (in 11 steps) ****

  ==> Optimization Summary <==

  Measures of convergence in internal coordinates in au.
  --------------------------------------------------------------------------------------------------------------- ~
   Step         Total Energy             Delta E       MAX Force       RMS Force        MAX Disp        RMS Disp  ~
  --------------------------------------------------------------------------------------------------------------- ~
      1    -309.172748059921   -309.172748059921      0.03052324      0.00463367      0.19286619      0.06020557  ~
      2    -309.138193517348      0.034554542573      0.05959973      0.01600815      0.14508196      0.04305167  ~
      3    -309.174152186299     -0.035958668951      0.01423040      0.00323004      0.05874747      0.01768141  ~
      4    -309.175626341350     -0.001474155051      0.00269730      0.00064037      0.20281339      0.04848469  ~
      5    -309.174135237104      0.001491104246      0.00474447      0.00141092      0.15516581      0.03464488  ~
      6    -309.175604112470     -0.001468875365      0.01602614      0.00173181      0.01658715      0.00636916  ~
      7    -309.175771230679     -0.000167118209      0.00078832      0.00012765      0.07303443      0.02264149  ~
      8    -309.175721793919      0.000049436760      0.00128818      0.00030224      0.05551389      0.01717835  ~
      9    -309.175776734974     -0.000054941056      0.00042914      0.00012102      0.00167676      0.00066302  ~
     10    -309.175778657081     -0.000001922106      0.00006654      0.00001822      0.00163044      0.00063453  ~
     11    -309.175778793887     -0.000000136807      0.00002100      0.00000599      0.00108800      0.00031347  ~
  --------------------------------------------------------------------------------------------------------------- ~

	Writing optimization data to binary file.
	Final energy is   -309.1757787938873
	Final (previous) structure:
	Cartesian Geometry (in Angstrom)
	    O    -1.9609804802  -1.6260313167  -1.0327167830
	    C    -1.3822036881  -0.6174049138  -0.7888068725
	    C     0.0921074420  -0.6537261294  -0.4232644306
	    C    -2.0876949942   0.7171570267  -0.8569855699
	    C     0.6102525041   0.4489515723   0.4979432293
	    H     0.2835461220  -1.6327646063  -0.0041705096
	    H     0.6312169048  -0.6131556218  -1.3682149803
	    C     2.0933037333   0.2834514502   0.8198914753
	    H     0.0443368094   0.4476918386   1.4259862508
	    H     0.4539272856   1.4218732866   0.0436198357
	    C     2.6283521952   1.3740274622   1.7413293674
	    H     2.2541224335  -0.6878164769   1.2783040248
	    H     2.6622546083   0.2812375397  -0.1057016702
	    H     2.1013138465   1.3788743732   2.6894974227
	    H     2.5132811308   2.3560788053   1.2948280110
	    H     3.6815588201   1.2275696636   1.9498448006
	    H    -3.0861636856   0.5727234221  -1.2393821074
	    H    -1.5454740641   1.4072730323  -1.4937699755
	    H    -2.1390755795   1.1618785154   0.1300868708
	Saving final (previous) structure.
			--------------------------
			 OPTKING Finished Execution 
			--------------------------

    Final optimized geometry and variables:
    Molecular point group: c1
    Full point group: C1

    Geometry (in Angstrom), charge = 0, multiplicity = 1:

    O           -1.960980480163    -1.626031316681    -1.032716783029
    C           -1.382203688131    -0.617404913820    -0.788806872467
    C            0.092107441991    -0.653726129378    -0.423264430636
    C           -2.087694994154     0.717157026708    -0.856985569896
    C            0.610252504130     0.448951572268     0.497943229333
    H            0.283546121959    -1.632764606288    -0.004170509645
    H            0.631216904803    -0.613155621838    -1.368214980294
    C            2.093303733323     0.283451450243     0.819891475345
    H            0.044336809433     0.447691838650     1.425986250769
    H            0.453927285591     1.421873286595     0.043619835706
    C            2.628352195170     1.374027462171     1.741329367355
    H            2.254122433473    -0.687816476861     1.278304024837
    H            2.662254608321     0.281237539744    -0.105701670197
    H            2.101313846495     1.378874373171     2.689497422673
    H            2.513281130772     2.356078805294     1.294828010988
    H            3.681558820101     1.227569663598     1.949844800638
    H           -3.086163685565     0.572723422128    -1.239382107409
    H           -1.545474064132     1.407273032307    -1.493769975460
    H           -2.139075579522     1.161878515434     0.130086870779

	Cleaning optimization helper files.


Properties will be evaluated at   0.000000,   0.000000,   0.000000 Bohr

Properties computed using the  density matrix

  Nuclear Dipole Moment: (a.u.)
     X:     7.3543      Y:     6.8558      Z:     4.3083

  Electronic Dipole Moment: (a.u.)
     X:    -6.6503      Y:    -5.7982      Z:    -4.0102

  Dipole Moment: (a.u.)
     X:     0.7039      Y:     1.0576      Z:     0.2981     Total:     1.3050

  Dipole Moment: (Debye)
     X:     1.7892      Y:     2.6882      Z:     0.7577     Total:     3.3169

  Quadrupole Moment: (Debye Ang)
    XX:   -48.7279     YY:   -50.4560     ZZ:   -45.2426
    XY:    -6.5878     XZ:    -2.5061     YZ:    -3.7714

  Traceless Quadrupole Moment: (Debye Ang)
    XX:    -0.5857     YY:    -2.3139     ZZ:     2.8996
    XY:    -6.5878     XZ:    -2.5061     YZ:    -3.7714

  Mulliken Charges: (a.u.)
   Center  Symbol    Alpha    Beta     Spin     Total
       1     O     4.17391  4.17391  0.00000 -0.34783
       2     C     2.86011  2.86011  0.00000  0.27979
       3     C     3.09744  3.09744  0.00000 -0.19489
       4     C     3.16492  3.16492  0.00000 -0.32984
       5     C     3.10109  3.10109  0.00000 -0.20218
       6     H     0.43683  0.43683  0.00000  0.12634
       7     H     0.44453  0.44453  0.00000  0.11094
       8     C     3.08633  3.08633  0.00000 -0.17266
       9     H     0.44865  0.44865  0.00000  0.10270
      10     H     0.45068  0.45068  0.00000  0.09864
      11     C     3.14923  3.14923  0.00000 -0.29847
      12     H     0.45039  0.45039  0.00000  0.09922
      13     H     0.45301  0.45301  0.00000  0.09397
      14     H     0.45411  0.45411  0.00000  0.09179
      15     H     0.45502  0.45502  0.00000  0.08997
      16     H     0.44643  0.44643  0.00000  0.10713
      17     H     0.43192  0.43192  0.00000  0.13616
      18     H     0.44824  0.44824  0.00000  0.10352
      19     H     0.44715  0.44715  0.00000  0.10569

   Total alpha = 28.00000, Total beta = 28.00000, Total charge =  0.00000


*** Psi4 exiting successfully. Buy a developer a beer!
