    -----------------------------------------------------------------------
          Psi4: An Open-Source Ab Initio Electronic Structure Package
                              Psi4 (no tag) Driver

                          Git: Rev {detached?}  

    J. M. Turney, A. C. Simmonett, R. M. Parrish, E. G. Hohenstein,
    F. A. Evangelista, J. T. Fermann, B. J. Mintz, L. A. Burns, J. J. Wilke,
    M. L. Abrams, N. J. Russ, M. L. Leininger, C. L. Janssen, E. T. Seidl,
    W. D. Allen, H. F. Schaefer, R. A. King, E. F. Valeev, C. D. Sherrill,
    and T. D. Crawford, WIREs Comput. Mol. Sci. 2, 556-565 (2012)
    (doi: 10.1002/wcms.93)

                         Additional Contributions by
    A. E. DePrince, M. Saitow, U. Bozkaya, A. Yu. Sokolov
    -----------------------------------------------------------------------


    Psi4 started on: Fri Sep  2 12:05:18 2016

    Process ID:  16001
    PSI4DATADIR: /export131/home/mjharvey/miniconda3/share
    Memory level set to 256.000 MB

  ==> Input File <==

--------------------------------------------------------------------------
set {
	reference rhf
	basis 6-31G*
}


set_num_threads( 4 )
memory 2 gb

molecule MOL {
0 1

H	 -1.836216	 1.387520	 -0.000064
C	 -1.301823	 0.443321	 -0.000031
O	 -0.003969	 0.658512	 0.000451
O	 -1.829879	 -0.616434	 -0.000857
C	 0.850537	 -0.484732	 0.000380
C	 1.298058	 -0.717104	 1.427282
H	 1.687520	 -0.294274	 -0.657270
H	 0.302273	 -1.330275	 -0.391740
H	 1.838342	 0.142930	 1.806052
H	 1.952888	 -1.581091	 1.471517
H	 0.446491	 -0.898101	 2.073007

	symmetry c1
}
set optking {
	frozen_dihedral = ("
		7 5 3 2
	")
}

ee = optimize('scf')
oeprop('DIPOLE', 'QUADRUPOLE', 'MULLIKEN_CHARGES')
f=open( 'psi4out.xyz', 'w' )
f.write( "11  " )
f.write( str(ee) + "\n" )
f.write( MOL.save_string_xyz() )
f.close()
--------------------------------------------------------------------------

  Memory set to   2.000 GiB by Python script.
gradient() will perform analytic gradient computation.

*** tstart() called on cx1-1-2-1.cx1.hpc.ic.ac.uk
*** at Fri Sep  2 12:05:18 2016


         ---------------------------------------------------------
                                   SCF
            by Justin Turney, Rob Parrish, and Andy Simmonett
                              RHF Reference
                        4 Threads,   2000 MiB Core
         ---------------------------------------------------------

  ==> Geometry <==

    Molecular point group: c1
    Full point group: C1

    Geometry (in Angstrom), charge = 0, multiplicity = 1:

       Center              X                  Y                   Z               Mass       
    ------------   -----------------  -----------------  -----------------  -----------------
           H         -1.637053931488     1.536399694010    -0.289923170274     1.007825032070
           C         -1.102660931488     0.592200694010    -0.289890170274    12.000000000000
           O          0.195193068512     0.807391694010    -0.289408170274    15.994914619560
           O         -1.630716931488    -0.467554305990    -0.290716170274    15.994914619560
           C          1.049699068512    -0.335852305990    -0.289479170274    12.000000000000
           C          1.497220068512    -0.568224305990     1.137422829726    12.000000000000
           H          1.886682068512    -0.145394305990    -0.947129170274     1.007825032070
           H          0.501435068512    -1.181395305990    -0.681599170274     1.007825032070
           H          2.037504068512     0.291809694010     1.516192829726     1.007825032070
           H          2.152050068512    -1.432211305990     1.181657829726     1.007825032070
           H          0.645653068512    -0.749221305990     1.783147829726     1.007825032070

  Running in c1 symmetry.

  Rotational constants: A =      0.37890  B =      0.11917  C =      0.10643 [cm^-1]
  Rotational constants: A =  11359.22535  B =   3572.49450  C =   3190.76355 [MHz]
  Nuclear repulsion =  182.114243541763614

  Charge       = 0
  Multiplicity = 1
  Electrons    = 40
  Nalpha       = 20
  Nbeta        = 20

  ==> Algorithm <==

  SCF Algorithm Type is DF.
  DIIS enabled.
  MOM disabled.
  Fractional occupation disabled.
  Guess Type is CORE.
  Energy threshold   = 1.00e-08
  Density threshold  = 1.00e-08
  Integral threshold = 0.00e+00

  ==> Primary Basis <==

  Basis Set: 6-31G*
    Number of shells: 42
    Number of basis function: 87
    Number of Cartesian functions: 87
    Spherical Harmonics?: false
    Max angular momentum: 2

  ==> Pre-Iterations <==

   -------------------------------------------------------
    Irrep   Nso     Nmo     Nalpha   Nbeta   Ndocc  Nsocc
   -------------------------------------------------------
     A         87      87       0       0       0       0
   -------------------------------------------------------
    Total      87      87      20      20      20       0
   -------------------------------------------------------

 OEINTS: Overlap, kinetic, potential, dipole, and quadrupole integrals
         stored in file 35.

  ==> Integral Setup <==

  ==> DFJK: Density-Fitted J/K Matrices <==

    J tasked:                  Yes
    K tasked:                  Yes
    wK tasked:                  No
    OpenMP threads:              4
    Integrals threads:           4
    Memory (MB):              1430
    Algorithm:                Core
    Integral Cache:           NONE
    Schwarz Cutoff:          1E-12
    Fitting Condition:       1E-12

   => Auxiliary Basis Set <=

  Basis Set: 
    Number of shells: 174
    Number of basis function: 555
    Number of Cartesian functions: 555
    Spherical Harmonics?: false
    Max angular momentum: 3

  Minimum eigenvalue in the overlap matrix is 4.9133972777E-03.
  Using Symmetric Orthogonalization.
  SCF Guess: Core (One-Electron) Hamiltonian.

  ==> Iterations <==

                           Total Energy        Delta E     RMS |[F,P]|

   @DF-RHF iter   1:  -216.00483753998944   -2.16005e+02   8.38409e-02 
   @DF-RHF iter   2:  -155.97751449932773    6.00273e+01   9.62349e-02 DIIS
   @DF-RHF iter   3:  -250.93743408911493   -9.49599e+01   3.29895e-02 DIIS
   @DF-RHF iter   4:  -229.92207883527934    2.10154e+01   7.36582e-02 DIIS
   @DF-RHF iter   5:  -249.38061792475443   -1.94585e+01   4.80366e-02 DIIS
   @DF-RHF iter   6:  -262.82376205203320   -1.34431e+01   2.48288e-02 DIIS
   @DF-RHF iter   7:  -266.32191505111120   -3.49815e+00   1.00562e-02 DIIS
   @DF-RHF iter   8:  -266.72661188471432   -4.04697e-01   4.64024e-03 DIIS
   @DF-RHF iter   9:  -266.80289315900427   -7.62813e-02   2.28123e-03 DIIS
   @DF-RHF iter  10:  -266.82135802146774   -1.84649e-02   9.63336e-04 DIIS
   @DF-RHF iter  11:  -266.82585369534968   -4.49567e-03   3.42243e-04 DIIS
   @DF-RHF iter  12:  -266.82649325623629   -6.39561e-04   9.02900e-05 DIIS
   @DF-RHF iter  13:  -266.82652941874562   -3.61625e-05   2.56972e-05 DIIS
   @DF-RHF iter  14:  -266.82653455724085   -5.13850e-06   7.61837e-06 DIIS
   @DF-RHF iter  15:  -266.82653514705771   -5.89817e-07   2.83941e-06 DIIS
   @DF-RHF iter  16:  -266.82653524204432   -9.49866e-08   1.08811e-06 DIIS
   @DF-RHF iter  17:  -266.82653525123146   -9.18715e-09   2.84447e-07 DIIS
   @DF-RHF iter  18:  -266.82653525189892   -6.67455e-10   7.75922e-08 DIIS
   @DF-RHF iter  19:  -266.82653525194405   -4.51337e-11   1.62629e-08 DIIS
   @DF-RHF iter  20:  -266.82653525194598   -1.93268e-12   3.75945e-09 DIIS

  ==> Post-Iterations <==

    Orbital Energies (a.u.)
    -----------------------

    Doubly Occupied:                                                      

       1A    -20.612859     2A    -20.556947     3A    -11.380136  
       4A    -11.289497     5A    -11.223014     6A     -1.477465  
       7A     -1.374673     8A     -1.049185     9A     -0.907583  
      10A     -0.799831    11A     -0.747462    12A     -0.686149  
      13A     -0.656959    14A     -0.619437    15A     -0.572150  
      16A     -0.541531    17A     -0.539170    18A     -0.499905  
      19A     -0.456468    20A     -0.455354  

    Virtual:                                                              

      21A      0.194838    22A      0.248647    23A      0.276365  
      24A      0.291351    25A      0.307433    26A      0.314258  
      27A      0.339566    28A      0.349290    29A      0.397163  
      30A      0.455769    31A      0.507788    32A      0.683654  
      33A      0.711738    34A      0.747422    35A      0.790400  
      36A      0.795555    37A      0.850203    38A      0.909334  
      39A      0.923246    40A      0.986477    41A      1.030662  
      42A      1.093036    43A      1.103863    44A      1.119355  
      45A      1.160458    46A      1.170859    47A      1.197617  
      48A      1.231849    49A      1.234289    50A      1.275542  
      51A      1.324057    52A      1.380210    53A      1.398424  
      54A      1.520822    55A      1.610850    56A      1.691869  
      57A      1.725050    58A      1.764912    59A      1.823252  
      60A      1.889596    61A      1.915014    62A      2.070989  
      63A      2.124982    64A      2.148856    65A      2.213078  
      66A      2.236970    67A      2.258426    68A      2.365172  
      69A      2.439604    70A      2.504858    71A      2.557630  
      72A      2.618786    73A      2.662568    74A      2.728687  
      75A      2.759016    76A      2.851240    77A      2.941551  
      78A      3.041762    79A      3.082985    80A      3.294423  
      81A      3.327997    82A      3.467256    83A      4.286876  
      84A      4.411092    85A      4.589276    86A      4.643198  
      87A      4.856150  

    Final Occupation by Irrep:
              A 
    DOCC [    20 ]

  Energy converged.

  @DF-RHF Final Energy:  -266.82653525194598

   => Energetics <=

    Nuclear Repulsion Energy =            182.1142435417636136
    One-Electron Energy =                -724.9900075532170831
    Two-Electron Energy =                 276.0492287595075709
    DFT Exchange-Correlation Energy =       0.0000000000000000
    Empirical Dispersion Energy =           0.0000000000000000
    PCM Polarization Energy =               0.0000000000000000
    EFP Energy =                            0.0000000000000000
    Total Energy =                       -266.8265352519459270

    Alert: EFP and PCM quantities not currently incorporated into SCF psivars.

Properties will be evaluated at   0.000000,   0.000000,   0.000000 Bohr
  ==> Properties <==


Properties computed using the SCF density matrix

  Nuclear Dipole Moment: (a.u.)
     X:     5.2301      Y:    -1.5733      Z:     2.3993

  Electronic Dipole Moment: (a.u.)
     X:    -4.5292      Y:     1.9146      Z:    -2.3623

  Dipole Moment: (a.u.)
     X:     0.7009      Y:     0.3412      Z:     0.0370     Total:     0.7804

  Dipole Moment: (Debye)
     X:     1.7815      Y:     0.8674      Z:     0.0941     Total:     1.9836


  Saving occupied orbitals to File 180.

*** tstop() called on cx1-1-2-1.cx1.hpc.ic.ac.uk at Fri Sep  2 12:05:21 2016
Module time:
	user time   =       8.15 seconds =       0.14 minutes
	system time =       0.12 seconds =       0.00 minutes
	total time  =          3 seconds =       0.05 minutes
Total time:
	user time   =       8.15 seconds =       0.14 minutes
	system time =       0.12 seconds =       0.00 minutes
	total time  =          3 seconds =       0.05 minutes

*** tstart() called on cx1-1-2-1.cx1.hpc.ic.ac.uk
*** at Fri Sep  2 12:05:21 2016


         ------------------------------------------------------------
                                   SCF GRAD                          
                          Rob Parrish, Justin Turney,                
                       Andy Simmonett, and Alex Sokolov              
         ------------------------------------------------------------

  ==> Geometry <==

    Molecular point group: c1
    Full point group: C1

    Geometry (in Angstrom), charge = 0, multiplicity = 1:

       Center              X                  Y                   Z               Mass       
    ------------   -----------------  -----------------  -----------------  -----------------
           H         -1.637053931488     1.536399694010    -0.289923170274     1.007825032070
           C         -1.102660931488     0.592200694010    -0.289890170274    12.000000000000
           O          0.195193068512     0.807391694010    -0.289408170274    15.994914619560
           O         -1.630716931488    -0.467554305990    -0.290716170274    15.994914619560
           C          1.049699068512    -0.335852305990    -0.289479170274    12.000000000000
           C          1.497220068512    -0.568224305990     1.137422829726    12.000000000000
           H          1.886682068512    -0.145394305990    -0.947129170274     1.007825032070
           H          0.501435068512    -1.181395305990    -0.681599170274     1.007825032070
           H          2.037504068512     0.291809694010     1.516192829726     1.007825032070
           H          2.152050068512    -1.432211305990     1.181657829726     1.007825032070
           H          0.645653068512    -0.749221305990     1.783147829726     1.007825032070

  Nuclear repulsion =  182.114243541763614

  ==> Basis Set <==

  Basis Set: 6-31G*
    Number of shells: 42
    Number of basis function: 87
    Number of Cartesian functions: 87
    Spherical Harmonics?: false
    Max angular momentum: 2

  ==> DFJKGrad: Density-Fitted SCF Gradients <==

    Gradient:                    1
    J tasked:                  Yes
    K tasked:                  Yes
    wK tasked:                  No
    OpenMP threads:              4
    Integrals threads:           4
    Memory (MB):              1430
    Schwarz Cutoff:          0E+00
    Fitting Condition:       1E-12

   => Auxiliary Basis Set <=

  Basis Set: 
    Number of shells: 174
    Number of basis function: 555
    Number of Cartesian functions: 555
    Spherical Harmonics?: false
    Max angular momentum: 3


  -Total Gradient:
     Atom            X                  Y                   Z
    ------   -----------------  -----------------  -----------------
       1       -0.000201635625     0.000233015901    -0.000184332234
       2        0.000301690237    -0.000183273013     0.000238440231
       3       -0.002300268900    -0.002380196002     0.009456858717
       4        0.003575934646    -0.000670644272    -0.000492433180
       5        0.004077968976     0.005722390610    -0.005679871272
       6       -0.004939576136     0.004816929993    -0.000546513403
       7        0.002025875000    -0.007071548081    -0.000626373167
       8       -0.002039297348    -0.001445269952    -0.001723178052
       9       -0.000084416614    -0.000239383567     0.000409860681
      10       -0.000577743192     0.000446609561    -0.001592907090
      11        0.000161468954     0.000771368819     0.000740448770


*** tstop() called on cx1-1-2-1.cx1.hpc.ic.ac.uk at Fri Sep  2 12:05:24 2016
Module time:
	user time   =       8.66 seconds =       0.14 minutes
	system time =       0.14 seconds =       0.00 minutes
	total time  =          3 seconds =       0.05 minutes
Total time:
	user time   =      16.83 seconds =       0.28 minutes
	system time =       0.26 seconds =       0.00 minutes
	total time  =          6 seconds =       0.10 minutes
CURRENT ENERGY: -266.8265352519

			-----------------------------------------
			 OPTKING 2.0: for geometry optimizations 
			  - R.A. King,  Bethel University        
			-----------------------------------------

	Internal coordinates to be generated automatically.
	Detected frag with atoms:  1 2 3 4 5 6 7 8 9 10 11
	---Fragment 1 Bond Connectivity---
	 1 : 2
	 2 : 1 3 4
	 3 : 2 5
	 4 : 2
	 5 : 3 6 7 8
	 6 : 5 9 10 11
	 7 : 5
	 8 : 5
	 9 : 6
	 10 : 6
	 11 : 6

	Assuming in current code that numbering for constraints corresponds to unified fragment.
	Frozen dihedral atom list: 
	     7     5     3     2
	---Fragment 1 Geometry and Gradient---
	 H          -3.0935835953        2.9033746523       -0.5478753914
	 C          -2.0837271779        1.1190971274       -0.5478130304
	 O           0.3688614425        1.5257491836       -0.5469021824
	 O          -3.0816084008       -0.8835495906       -0.5493739442
	 C           1.9836437614       -0.6346688794       -0.5470363530
	 C           2.8293358901       -1.0737883204        2.1494176455
	 H           3.5653124093       -0.2747554196       -1.7898147443
	 H           0.9475749529       -2.2325135830       -1.2880357642
	 H           3.8503246841        0.5514404046        2.8651892128
	 H           4.0667852537       -2.7064871327        2.2330096810
	 H           1.2201074763       -1.4158230812        3.3696610526
	            -0.0002016356        0.0002330159       -0.0001843322
	             0.0003016902       -0.0001832730        0.0002384402
	            -0.0023002689       -0.0023801960        0.0094568587
	             0.0035759346       -0.0006706443       -0.0004924332
	             0.0040779690        0.0057223906       -0.0056798713
	            -0.0049395761        0.0048169300       -0.0005465134
	             0.0020258750       -0.0070715481       -0.0006263732
	            -0.0020392973       -0.0014452700       -0.0017231781
	            -0.0000844166       -0.0002393836        0.0004098607
	            -0.0005777432        0.0004466096       -0.0015929071
	             0.0001614690        0.0007713688        0.0007404488

	Previous optimization step data not found.  Starting new optimization.

	---Fragment 1 Intrafragment Coordinates---
	 - Coordinate -           - BOHR/RAD -       - ANG/DEG -
	 R(1,2)           =         2.050233	       1.084937
	 R(2,3)           =         2.486073	       1.315573
	 R(2,4)           =         2.237490	       1.184029
	 R(3,5)           =         2.697207	       1.427301
	 R(5,6)           =         2.859875	       1.513381
	 R(5,7)           =         2.043456	       1.081350
	 R(5,8)           =         2.043435	       1.081339
	 R(6,9)           =         2.048442	       1.083989
	 R(6,10)          =         2.050359	       1.085004
	 R(6,11)          =         2.048316	       1.083922
	 B(1,2,3)         =         1.921511	     110.094481
	 B(1,2,4)         =         2.164296	     124.005001
	 B(2,3,5)         =         2.048346	     117.361603
	 B(3,2,4)         =         2.197378	     125.900512
	 B(3,5,6)         =         1.875465	     107.456245
	 B(3,5,7)         =         1.899004	     108.804902
	 B(3,5,8)         =         1.899474	     108.831817
	 B(5,6,9)         =         1.933733	     110.794755
	 B(5,6,10)        =         1.916838	     109.826704
	 B(5,6,11)        =         1.933719	     110.793950
	 B(6,5,7)         =         1.951509	     111.813210
	 B(6,5,8)         =         1.951713	     111.824916
	 B(7,5,8)         =         1.885598	     108.036832
	 B(9,6,10)        =         1.893070	     108.464920
	 B(9,6,11)        =         1.892202	     108.415187
	 B(10,6,11)       =         1.893252	     108.475335
	 D(1,2,3,5)       =        -3.141449	    -179.991751
	 D(2,3,5,6)       =        -1.723755	     -98.763897
	*D(2,3,5,7)       =         2.443461	     140.000001
	 D(2,3,5,8)       =         0.392730	      22.501750
	 D(3,5,6,9)       =        -1.050156	     -60.169528
	 D(3,5,6,10)      =        -3.141164	    -179.975450
	 D(3,5,6,11)      =         1.050796	      60.206192
	 D(4,2,3,5)       =        -0.000350	      -0.020076
	 D(7,5,6,9)       =         1.032532	      59.159724
	 D(7,5,6,10)      =        -1.058476	     -60.646199
	 D(7,5,6,11)      =         3.133485	     179.535443
	 D(8,5,6,9)       =        -3.133540	    -179.538641
	 D(8,5,6,10)      =         1.058637	      60.655437
	 D(8,5,6,11)      =        -1.032588	     -59.162921
	 R(4,6)           =         6.500687	       3.440016

	Current energy   :      -266.8265352519

	Generating empirical Hessian (Schlegel '84) for each fragment.
	Taking RFO optimization step.
	Going to follow RFO solution 1.
	Using RFO vector 1.
	Norm of target step-size    0.21990
	Projected energy change by RFO approximation:        -0.0006764401

	Back-transformation to cartesian coordinates...
	Successfully converged to displaced geometry.

	Back-transformation to cartesian coordinates to adjust frozen coordinates...
	Successfully converged to displaced geometry.

	--- Internal Coordinate Step in ANG or DEG, aJ/ANG or AJ/DEG ---
	 ---------------------------------------------------------------------------
	   Coordinate                Previous        Force       Change         New 
	   ----------                --------       ------       ------       ------
	    1 R(1,2)          =      1.084937    -0.002489    -0.000448     1.084489
	    2 R(2,3)          =      1.315573    -0.003580     0.001570     1.317143
	    3 R(2,4)          =      1.184029    -0.005685     0.000094     1.184123
	    4 R(3,5)          =      1.427301     0.005832     0.002850     1.430151
	    5 R(5,6)          =      1.513381     0.003968     0.003941     1.517322
	    6 R(5,7)          =      1.081350    -0.005796    -0.001030     1.080320
	    7 R(5,8)          =      1.081339    -0.022977    -0.004084     1.077255
	    8 R(6,9)          =      1.083989     0.000731     0.000131     1.084120
	    9 R(6,10)         =      1.085004     0.006338     0.001140     1.086144
	   10 R(6,11)         =      1.083922    -0.001528    -0.000274     1.083648
	   11 B(1,2,3)        =    110.094481     0.000003    -0.573450   109.521031
	   12 B(1,2,4)        =    124.005001     0.000013    -0.530424   123.474577
	   13 B(2,3,5)        =    117.361603     0.000061     1.642435   119.004037
	   14 B(3,2,4)        =    125.900512    -0.000016     0.711731   126.612243
	   15 B(3,5,6)        =    107.456245     0.000843     3.458026   110.914271
	   16 B(3,5,7)        =    108.804902    -0.000713    -4.762159   104.042743
	   17 B(3,5,8)        =    108.831817    -0.000085     0.730308   109.562125
	   18 B(5,6,9)        =    110.794755    -0.000061    -0.262068   110.532687
	   19 B(5,6,10)       =    109.826704     0.000190     0.920353   110.747057
	   20 B(5,6,11)       =    110.793950    -0.000089    -0.475238   110.318712
	   21 B(6,5,7)        =    111.813210     0.000151     0.438727   112.251936
	   22 B(6,5,8)        =    111.824916    -0.000371    -0.321759   111.503157
	   23 B(7,5,8)        =    108.036832     0.000149     0.234392   108.271224
	   24 B(9,6,10)       =    108.464920    -0.000048    -0.096627   108.368293
	   25 B(9,6,11)       =    108.415187     0.000066     0.224285   108.639471
	   26 B(10,6,11)      =    108.475335    -0.000060    -0.315813   108.159522
	   27 D(1,2,3,5)      =   -179.991751    -0.000006    -1.052810  -181.044561
	   28 D(2,3,5,6)      =    -98.763897     0.000062    -0.341522   -99.105419
	   29 *D(2,3,5,7)     =    140.000001     0.000000     0.000000   140.000001
	   30 D(2,3,5,8)      =     22.501750     0.000062     1.913362    24.415113
	   31 D(3,5,6,9)      =    -60.169528     0.000041     3.729914   -56.439614
	   32 D(3,5,6,10)     =   -179.975450     0.000036     3.422521  -176.552929
	   33 D(3,5,6,11)     =     60.206192     0.000038     3.527918    63.734110
	   34 D(4,2,3,5)      =     -0.020076     0.000074     6.010761     5.990685
	   35 D(7,5,6,9)      =     59.159724    -0.000016     0.314393    59.474117
	   36 D(7,5,6,10)     =    -60.646199    -0.000022     0.007000   -60.639198
	   37 D(7,5,6,11)     =    179.535443    -0.000020     0.112397   179.647840
	   38 D(8,5,6,9)      =   -179.538641    -0.000008     0.699739  -178.838902
	   39 D(8,5,6,10)     =     60.655437    -0.000013     0.392346    61.047783
	   40 D(8,5,6,11)     =    -59.162921    -0.000012     0.497743   -58.665179
	   41 R(4,6)          =      3.440016     0.036553     0.056353     3.496368
	 ---------------------------------------------------------------------------

  ==> Convergence Check <==

  Measures of convergence in internal coordinates in au.
  Criteria marked as inactive (o), active & met (*), and active & unmet ( ).
  --------------------------------------------------------------------------------------------- ~
   Step     Total Energy     Delta E     MAX Force     RMS Force      MAX Disp      RMS Disp    ~
  --------------------------------------------------------------------------------------------- ~
    Convergence Criteria    1.00e-06 *    3.00e-04 *             o    1.20e-03 *             o  ~
  --------------------------------------------------------------------------------------------- ~
      1    -266.82653525   -2.67e+02      1.11e-02      2.91e-03 o    1.06e-01      3.43e-02 o  ~
  ---------------------------------------------------------------------------------------------

	Writing optimization data to binary file.
	Structure for next step:
	Cartesian Geometry (in Angstrom)
	    H    -1.6272238320   1.5704088039  -0.3660398709
	    C    -1.1247413720   0.6096470273  -0.3422776535
	    O     0.1791340974   0.7952253760  -0.3239706775
	    O    -1.6930742245  -0.4217628441  -0.2184274350
	    C     1.0410877234  -0.3446446144  -0.2686265099
	    C     1.5200154685  -0.5932051321   1.1495098121
	    H     1.8522704562  -0.0925379617  -0.9360966072
	    H     0.5290550535  -1.2038164046  -0.6687819618
	    H     2.0145380089   0.2873589307   1.5436810765
	    H     2.2216158485  -1.4218158296   1.1790042965
	    H     0.6823279530  -0.8369088436   1.7923018517
			--------------------------
			 OPTKING Finished Execution 
			--------------------------

    Structure for next step:
    Molecular point group: c1
    Full point group: C1

    Geometry (in Angstrom), charge = 0, multiplicity = 1:

    H           -1.610177727184     1.566026053630    -0.370789272431
    C           -1.107695305615     0.605264350425    -0.347027056854
    O            0.196180064275     0.790842684944    -0.328720082238
    O           -1.676028114669    -0.426145442253    -0.223176847797
    C            1.058133624434    -0.349027218437    -0.273375918879
    C            1.537061332969    -0.597587717124     1.144760294868
    H            1.869316295258    -0.096920584967    -0.940845965257
    H            0.546100993683    -1.208198943057    -0.673531340217
    H            2.031583835602     0.282976278388     1.538931529075
    H            2.238661659344    -1.426198351407     1.174254776927
    H            0.699373881428    -0.841291410075     1.787552285317

gradient() will perform analytic gradient computation.

*** tstart() called on cx1-1-2-1.cx1.hpc.ic.ac.uk
*** at Fri Sep  2 12:05:24 2016


         ---------------------------------------------------------
                                   SCF
            by Justin Turney, Rob Parrish, and Andy Simmonett
                              RHF Reference
                        4 Threads,   2000 MiB Core
         ---------------------------------------------------------

  ==> Geometry <==

    Molecular point group: c1
    Full point group: C1

    Geometry (in Angstrom), charge = 0, multiplicity = 1:

       Center              X                  Y                   Z               Mass       
    ------------   -----------------  -----------------  -----------------  -----------------
           H         -1.610177727184     1.566026053630    -0.370789272431     1.007825032070
           C         -1.107695305615     0.605264350425    -0.347027056854    12.000000000000
           O          0.196180064275     0.790842684944    -0.328720082238    15.994914619560
           O         -1.676028114669    -0.426145442253    -0.223176847797    15.994914619560
           C          1.058133624434    -0.349027218437    -0.273375918879    12.000000000000
           C          1.537061332969    -0.597587717124     1.144760294868    12.000000000000
           H          1.869316295258    -0.096920584967    -0.940845965257     1.007825032070
           H          0.546100993683    -1.208198943057    -0.673531340217     1.007825032070
           H          2.031583835602     0.282976278388     1.538931529075     1.007825032070
           H          2.238661659344    -1.426198351407     1.174254776927     1.007825032070
           H          0.699373881428    -0.841291410075     1.787552285317     1.007825032070

  Running in c1 symmetry.

  Rotational constants: A =      0.38055  B =      0.11590  C =      0.10248 [cm^-1]
  Rotational constants: A =  11408.56338  B =   3474.50689  C =   3072.40338 [MHz]
  Nuclear repulsion =  180.892091715578005

  Charge       = 0
  Multiplicity = 1
  Electrons    = 40
  Nalpha       = 20
  Nbeta        = 20

  ==> Algorithm <==

  SCF Algorithm Type is DF.
  DIIS enabled.
  MOM disabled.
  Fractional occupation disabled.
  Guess Type is READ.
  Energy threshold   = 1.00e-08
  Density threshold  = 1.00e-08
  Integral threshold = 0.00e+00

  ==> Primary Basis <==

  Basis Set: 6-31G*
    Number of shells: 42
    Number of basis function: 87
    Number of Cartesian functions: 87
    Spherical Harmonics?: false
    Max angular momentum: 2

  ==> Pre-Iterations <==

   -------------------------------------------------------
    Irrep   Nso     Nmo     Nalpha   Nbeta   Ndocc  Nsocc
   -------------------------------------------------------
     A         87      87       0       0       0       0
   -------------------------------------------------------
    Total      87      87      20      20      20       0
   -------------------------------------------------------

 OEINTS: Overlap, kinetic, potential, dipole, and quadrupole integrals
         stored in file 35.

  ==> Integral Setup <==

  ==> DFJK: Density-Fitted J/K Matrices <==

    J tasked:                  Yes
    K tasked:                  Yes
    wK tasked:                  No
    OpenMP threads:              4
    Integrals threads:           4
    Memory (MB):              1430
    Algorithm:                Core
    Integral Cache:           NONE
    Schwarz Cutoff:          1E-12
    Fitting Condition:       1E-12

   => Auxiliary Basis Set <=

  Basis Set: 
    Number of shells: 174
    Number of basis function: 555
    Number of Cartesian functions: 555
    Spherical Harmonics?: false
    Max angular momentum: 3

  Minimum eigenvalue in the overlap matrix is 4.9866358856E-03.
  Using Symmetric Orthogonalization.
  SCF Guess: Reading in previously saved MOs, projecting if necessary.

  Using orbitals from previous SCF, no projection.
  Recomputing DOCC and SOCC from number of alpha and beta electrons from previous calculation.
              A 
    DOCC [    20 ]

  ==> Iterations <==

                           Total Energy        Delta E     RMS |[F,P]|

   @DF-RHF iter   0:  -266.80527588867312   -2.66805e+02   2.83208e-03 
   @DF-RHF iter   1:  -266.82542488148601   -2.01490e-02   4.07974e-04 
   @DF-RHF iter   2:  -266.82654321640541   -1.11833e-03   1.63889e-04 DIIS
   @DF-RHF iter   3:  -266.82672418571781   -1.80969e-04   8.89457e-05 DIIS
   @DF-RHF iter   4:  -266.82677098257045   -4.67969e-05   2.68609e-05 DIIS
   @DF-RHF iter   5:  -266.82677747918137   -6.49661e-06   1.24712e-05 DIIS
   @DF-RHF iter   6:  -266.82677964099889   -2.16182e-06   3.24866e-06 DIIS
   @DF-RHF iter   7:  -266.82677977784840   -1.36850e-07   1.34710e-06 DIIS
   @DF-RHF iter   8:  -266.82677980122605   -2.33777e-08   5.98058e-07 DIIS
   @DF-RHF iter   9:  -266.82677980706649   -5.84043e-09   2.43483e-07 DIIS
   @DF-RHF iter  10:  -266.82677980800509   -9.38599e-10   7.01104e-08 DIIS
   @DF-RHF iter  11:  -266.82677980807500   -6.99174e-11   1.71016e-08 DIIS
   @DF-RHF iter  12:  -266.82677980807819   -3.18323e-12   4.49032e-09 DIIS

  ==> Post-Iterations <==

    Orbital Energies (a.u.)
    -----------------------

    Doubly Occupied:                                                      

       1A    -20.612491     2A    -20.556896     3A    -11.379467  
       4A    -11.291257     5A    -11.225336     6A     -1.474147  
       7A     -1.374260     8A     -1.049309     9A     -0.910737  
      10A     -0.798379    11A     -0.745452    12A     -0.683370  
      13A     -0.655478    14A     -0.619710    15A     -0.573507  
      16A     -0.543754    17A     -0.537746    18A     -0.501414  
      19A     -0.457167    20A     -0.453879  

    Virtual:                                                              

      21A      0.193567    22A      0.248142    23A      0.279448  
      24A      0.290030    25A      0.304818    26A      0.310690  
      27A      0.336115    28A      0.352739    29A      0.395417  
      30A      0.455465    31A      0.507365    32A      0.682148  
      33A      0.713758    34A      0.745397    35A      0.787919  
      36A      0.794899    37A      0.839530    38A      0.907588  
      39A      0.919334    40A      0.986778    41A      1.022574  
      42A      1.096588    43A      1.103878    44A      1.121617  
      45A      1.160831    46A      1.172292    47A      1.192251  
      48A      1.230910    49A      1.233550    50A      1.278962  
      51A      1.318462    52A      1.368736    53A      1.393280  
      54A      1.515141    55A      1.630038    56A      1.673602  
      57A      1.735711    58A      1.766622    59A      1.821576  
      60A      1.883658    61A      1.927590    62A      2.045134  
      63A      2.110196    64A      2.135878    65A      2.214357  
      66A      2.223376    67A      2.263474    68A      2.387218  
      69A      2.422118    70A      2.499195    71A      2.536282  
      72A      2.621503    73A      2.661798    74A      2.720634  
      75A      2.759993    76A      2.847947    77A      2.933445  
      78A      3.053876    79A      3.086438    80A      3.286850  
      81A      3.325051    82A      3.470681    83A      4.282748  
      84A      4.396910    85A      4.589006    86A      4.644578  
      87A      4.853790  

    Final Occupation by Irrep:
              A 
    DOCC [    20 ]

  Energy converged.

  @DF-RHF Final Energy:  -266.82677980807819

   => Energetics <=

    Nuclear Repulsion Energy =            180.8920917155780046
    One-Electron Energy =                -722.5502283695908545
    Two-Electron Energy =                 274.8313568459348062
    DFT Exchange-Correlation Energy =       0.0000000000000000
    Empirical Dispersion Energy =           0.0000000000000000
    PCM Polarization Energy =               0.0000000000000000
    EFP Energy =                            0.0000000000000000
    Total Energy =                       -266.8267798080780722

    Alert: EFP and PCM quantities not currently incorporated into SCF psivars.

Properties will be evaluated at   0.000000,   0.000000,   0.000000 Bohr
  ==> Properties <==


Properties computed using the SCF density matrix

  Nuclear Dipole Moment: (a.u.)
     X:     5.4066      Y:    -1.6141      Z:     2.3556

  Electronic Dipole Moment: (a.u.)
     X:    -4.6479      Y:     1.9242      Z:    -2.3839

  Dipole Moment: (a.u.)
     X:     0.7587      Y:     0.3101      Z:    -0.0283     Total:     0.8202

  Dipole Moment: (Debye)
     X:     1.9285      Y:     0.7883      Z:    -0.0719     Total:     2.0846


  Saving occupied orbitals to File 180.

*** tstop() called on cx1-1-2-1.cx1.hpc.ic.ac.uk at Fri Sep  2 12:05:27 2016
Module time:
	user time   =       7.02 seconds =       0.12 minutes
	system time =       0.11 seconds =       0.00 minutes
	total time  =          3 seconds =       0.05 minutes
Total time:
	user time   =      25.41 seconds =       0.42 minutes
	system time =       0.41 seconds =       0.01 minutes
	total time  =          9 seconds =       0.15 minutes

*** tstart() called on cx1-1-2-1.cx1.hpc.ic.ac.uk
*** at Fri Sep  2 12:05:28 2016


         ------------------------------------------------------------
                                   SCF GRAD                          
                          Rob Parrish, Justin Turney,                
                       Andy Simmonett, and Alex Sokolov              
         ------------------------------------------------------------

  ==> Geometry <==

    Molecular point group: c1
    Full point group: C1

    Geometry (in Angstrom), charge = 0, multiplicity = 1:

       Center              X                  Y                   Z               Mass       
    ------------   -----------------  -----------------  -----------------  -----------------
           H         -1.610177727184     1.566026053630    -0.370789272431     1.007825032070
           C         -1.107695305615     0.605264350425    -0.347027056854    12.000000000000
           O          0.196180064275     0.790842684944    -0.328720082238    15.994914619560
           O         -1.676028114669    -0.426145442253    -0.223176847797    15.994914619560
           C          1.058133624434    -0.349027218437    -0.273375918879    12.000000000000
           C          1.537061332969    -0.597587717124     1.144760294868    12.000000000000
           H          1.869316295258    -0.096920584967    -0.940845965257     1.007825032070
           H          0.546100993683    -1.208198943057    -0.673531340217     1.007825032070
           H          2.031583835602     0.282976278388     1.538931529075     1.007825032070
           H          2.238661659344    -1.426198351407     1.174254776927     1.007825032070
           H          0.699373881428    -0.841291410075     1.787552285317     1.007825032070

  Nuclear repulsion =  180.892091715578005

  ==> Basis Set <==

  Basis Set: 6-31G*
    Number of shells: 42
    Number of basis function: 87
    Number of Cartesian functions: 87
    Spherical Harmonics?: false
    Max angular momentum: 2

  ==> DFJKGrad: Density-Fitted SCF Gradients <==

    Gradient:                    1
    J tasked:                  Yes
    K tasked:                  Yes
    wK tasked:                  No
    OpenMP threads:              4
    Integrals threads:           4
    Memory (MB):              1430
    Schwarz Cutoff:          0E+00
    Fitting Condition:       1E-12

   => Auxiliary Basis Set <=

  Basis Set: 
    Number of shells: 174
    Number of basis function: 555
    Number of Cartesian functions: 555
    Spherical Harmonics?: false
    Max angular momentum: 3


  -Total Gradient:
     Atom            X                  Y                   Z
    ------   -----------------  -----------------  -----------------
       1        0.000278041051    -0.000161739085     0.006732719016
       2        0.000178039390    -0.002474150511    -0.021030352431
       3        0.000936819015     0.002285770807     0.005286582688
       4       -0.000874421579     0.001536239705     0.007202108908
       5       -0.001504080185    -0.000453759528     0.003630019694
       6        0.001126492110    -0.001805473128    -0.000254115918
       7       -0.002548821442     0.000872196436    -0.002172220236
       8        0.001784584978     0.000523960824    -0.000346950546
       9       -0.000062405347     0.000059484189    -0.000267041493
      10        0.000587347982    -0.000472970721     0.001596549471
      11        0.000098404027     0.000090441009    -0.000377299150


*** tstop() called on cx1-1-2-1.cx1.hpc.ic.ac.uk at Fri Sep  2 12:05:30 2016
Module time:
	user time   =       9.06 seconds =       0.15 minutes
	system time =       0.17 seconds =       0.00 minutes
	total time  =          2 seconds =       0.03 minutes
Total time:
	user time   =      34.49 seconds =       0.57 minutes
	system time =       0.58 seconds =       0.01 minutes
	total time  =         12 seconds =       0.20 minutes
CURRENT ENERGY: -266.8267798081

			-----------------------------------------
			 OPTKING 2.0: for geometry optimizations 
			  - R.A. King,  Bethel University        
			-----------------------------------------

	Previous internal coordinate definitions found.
	---Fragment 1 Geometry and Gradient---
	 H          -3.0427949296        2.9593603583       -0.7006901779
	 C          -2.0932407663        1.1437838603       -0.6557860982
	 O           0.3707265942        1.4944760887       -0.6211909298
	 O          -3.1672341277       -0.8052981786       -0.4217431215
	 C           1.9995827622       -0.6595658558       -0.5166056180
	 C           2.9046249688       -1.1292771257        2.1632834451
	 H           3.5324958538       -0.1831533622       -1.7779412076
	 H           1.0319813190       -2.2831651164       -1.2727897749
	 H           3.8391370653        0.5347476683        2.9081591272
	 H           4.2304574404       -2.6951242953        2.2190199386
	 H           1.3216251004       -1.5898103630        3.3779842675
	             0.0002780411       -0.0001617391        0.0067327190
	             0.0001780394       -0.0024741505       -0.0210303524
	             0.0009368190        0.0022857708        0.0052865827
	            -0.0008744216        0.0015362397        0.0072021089
	            -0.0015040802       -0.0004537595        0.0036300197
	             0.0011264921       -0.0018054731       -0.0002541159
	            -0.0025488214        0.0008721964       -0.0021722202
	             0.0017845850        0.0005239608       -0.0003469505
	            -0.0000624053        0.0000594842       -0.0002670415
	             0.0005873480       -0.0004729707        0.0015965495
	             0.0000984040        0.0000904410       -0.0003772992

	---Fragment 1 Intrafragment Coordinates---
	 - Coordinate -           - BOHR/RAD -       - ANG/DEG -
	 R(1,2)           =         2.049387	       1.084489
	 R(2,3)           =         2.489039	       1.317143
	 R(2,4)           =         2.237668	       1.184123
	 R(3,5)           =         2.702593	       1.430151
	 R(5,6)           =         2.867322	       1.517322
	 R(5,7)           =         2.041509	       1.080320
	 R(5,8)           =         2.035716	       1.077255
	 R(6,9)           =         2.048690	       1.084120
	 R(6,10)          =         2.052514	       1.086144
	 R(6,11)          =         2.047798	       1.083648
	 B(1,2,3)         =         1.911503	     109.521031
	 B(1,2,4)         =         2.155038	     123.474577
	 B(2,3,5)         =         2.077012	     119.004037
	 B(3,2,4)         =         2.209801	     126.612243
	 B(3,5,6)         =         1.935819	     110.914271
	 B(3,5,7)         =         1.815888	     104.042743
	 B(3,5,8)         =         1.912220	     109.562125
	 B(5,6,9)         =         1.929159	     110.532687
	 B(5,6,10)        =         1.932901	     110.747057
	 B(5,6,11)        =         1.925425	     110.318712
	 B(6,5,7)         =         1.959166	     112.251936
	 B(6,5,8)         =         1.946097	     111.503157
	 B(7,5,8)         =         1.889689	     108.271224
	 B(9,6,10)        =         1.891384	     108.368293
	 B(9,6,11)        =         1.896116	     108.639471
	 B(10,6,11)       =         1.887740	     108.159522
	 D(1,2,3,5)       =         3.123362	     178.955439
	 D(2,3,5,6)       =        -1.729716	     -99.105419
	*D(2,3,5,7)       =         2.443461	     140.000001
	 D(2,3,5,8)       =         0.426124	      24.415113
	 D(3,5,6,9)       =        -0.985057	     -56.439614
	 D(3,5,6,10)      =        -3.081430	    -176.552929
	 D(3,5,6,11)      =         1.112370	      63.734110
	 D(4,2,3,5)       =         0.104557	       5.990685
	 D(7,5,6,9)       =         1.038019	      59.474117
	 D(7,5,6,10)      =        -1.058354	     -60.639198
	 D(7,5,6,11)      =         3.135446	     179.647840
	 D(8,5,6,9)       =        -3.121328	    -178.838902
	 D(8,5,6,10)      =         1.065485	      61.047783
	 D(8,5,6,11)      =        -1.023901	     -58.665179
	 R(4,6)           =         6.607178	       3.496368

	Current energy   :      -266.8267798081

	Energy change for the previous step:
		Projected    :        -0.0006764401
		Actual       :        -0.0002445561

	Performing BFGS update.
	Previous computed or guess Hessian on step 1.
	Steps to be used in Hessian update: 1
	Taking RFO optimization step.
	Going to follow RFO solution 1.
	Using RFO vector 1.
	Norm of target step-size    0.43235
	Projected energy change by RFO approximation:        -0.0031028716

	Back-transformation to cartesian coordinates...
	Successfully converged to displaced geometry.

	Back-transformation to cartesian coordinates to adjust frozen coordinates...
	Successfully converged to displaced geometry.

	--- Internal Coordinate Step in ANG or DEG, aJ/ANG or AJ/DEG ---
	 ---------------------------------------------------------------------------
	   Coordinate                Previous        Force       Change         New 
	   ----------                --------       ------       ------       ------
	    1 R(1,2)          =      1.084489     0.003457    -0.000261     1.084228
	    2 R(2,3)          =      1.317143    -0.005592     0.001738     1.318881
	    3 R(2,4)          =      1.184123     0.001325     0.000411     1.184534
	    4 R(3,5)          =      1.430151    -0.005852     0.002917     1.433068
	    5 R(5,6)          =      1.517322    -0.012865     0.002768     1.520089
	    6 R(5,7)          =      1.080320     0.003034    -0.001070     1.079250
	    7 R(5,8)          =      1.077255     0.009369    -0.004491     1.072764
	    8 R(6,9)          =      1.084120     0.000636     0.000232     1.084352
	    9 R(6,10)         =      1.086144    -0.006456     0.000888     1.087032
	   10 R(6,11)         =      1.083648     0.002638    -0.000111     1.083537
	   11 B(1,2,3)        =    109.521031     0.000142    -0.947431   108.573600
	   12 B(1,2,4)        =    123.474577     0.000109    -1.054495   122.420082
	   13 B(2,3,5)        =    119.004037    -0.000099     1.422158   120.426195
	   14 B(3,2,4)        =    126.612243    -0.000031    -0.132327   126.479917
	   15 B(3,5,6)        =    110.914271    -0.000220     3.908858   114.823129
	   16 B(3,5,7)        =    104.042743     0.000231    -5.027907    99.014836
	   17 B(3,5,8)        =    109.562125    -0.000008     0.161291   109.723417
	   18 B(5,6,9)        =    110.532687     0.000056    -0.180871   110.351816
	   19 B(5,6,10)       =    110.747057    -0.000191     0.674564   111.421622
	   20 B(5,6,11)       =    110.318712     0.000054    -0.449121   109.869591
	   21 B(6,5,7)        =    112.251936    -0.000056     1.367997   113.619933
	   22 B(6,5,8)        =    111.503157     0.000062    -0.956512   110.546645
	   23 B(7,5,8)        =    108.271224     0.000005     0.197894   108.469118
	   24 B(9,6,10)       =    108.368293     0.000052    -0.070464   108.297829
	   25 B(9,6,11)       =    108.639471    -0.000025     0.343019   108.982490
	   26 B(10,6,11)      =    108.159522     0.000056    -0.316419   107.843103
	   27 D(1,2,3,5)      =    178.955439     0.000224    16.791601   195.747040
	   28 D(2,3,5,6)      =    -99.105419    -0.000010     0.461826   -98.643593
	   29 *D(2,3,5,7)     =    140.000001    -0.000000    -0.000000   140.000001
	   30 D(2,3,5,8)      =     24.415113    -0.000028     2.155148    26.570261
	   31 D(3,5,6,9)      =    -56.439614    -0.000022     2.881318   -53.558296
	   32 D(3,5,6,10)     =   -176.552929    -0.000017     2.647294  -173.905636
	   33 D(3,5,6,11)     =     63.734110    -0.000013     2.903185    66.637295
	   34 D(4,2,3,5)      =      5.990685    -0.000228    -8.093271    -2.102586
	   35 D(7,5,6,9)      =     59.474117     0.000003    -0.034135    59.439982
	   36 D(7,5,6,10)     =    -60.639198     0.000008    -0.268159   -60.907358
	   37 D(7,5,6,11)     =    179.647840     0.000013    -0.012268   179.635573
	   38 D(8,5,6,9)      =   -178.838902     0.000006     0.497843  -178.341060
	   39 D(8,5,6,10)     =     61.047783     0.000011     0.263818    61.311601
	   40 D(8,5,6,11)     =    -58.665179     0.000015     0.519710   -58.145469
	   41 R(4,6)          =      3.496368     0.000100     0.117040     3.613408
	 ---------------------------------------------------------------------------

  ==> Convergence Check <==

  Measures of convergence in internal coordinates in au.
  Criteria marked as inactive (o), active & met (*), and active & unmet ( ).
  ---------------------------------------------------------------------------------------------
   Step     Total Energy     Delta E     MAX Force     RMS Force      MAX Disp      RMS Disp   
  ---------------------------------------------------------------------------------------------
    Convergence Criteria    1.00e-06 *    3.00e-04 *             o    1.20e-03 *             o
  ---------------------------------------------------------------------------------------------
      2    -266.82677981   -2.45e-04      1.31e-02      3.06e-03 o    2.93e-01      6.60e-02 o  ~
  ---------------------------------------------------------------------------------------------

	Writing optimization data to binary file.
	Structure for next step:
	Cartesian Geometry (in Angstrom)
	    H    -1.6057206777   1.5656574714  -0.6162006026
	    C    -1.1449285873   0.6442221840  -0.2782994460
	    O     0.1647087280   0.7993857736  -0.2931575547
	    O    -1.7319359730  -0.3840665827  -0.2441728791
	    C     1.0313433713  -0.3397248096  -0.2220571597
	    C     1.5873289365  -0.6331909366   1.1619332269
	    H     1.7814374464  -0.0261037500  -0.9318326745
	    H     0.5293457817  -1.2017405652  -0.6167091709
	    H     2.0685703273   0.2487679177   1.5698248365
	    H     2.3172814171  -1.4381939460   1.1340525384
	    H     0.7850802109  -0.9352731864   1.8246514782
			--------------------------
			 OPTKING Finished Execution 
			--------------------------

    Structure for next step:
    Molecular point group: c1
    Full point group: C1

    Geometry (in Angstrom), charge = 0, multiplicity = 1:

    H           -1.585990268641     1.553530896667    -0.639522045632
    C           -1.125198213459     0.632095679709    -0.301620914913
    O            0.184439001835     0.787259257401    -0.316479022461
    O           -1.712205554318    -0.396193008490    -0.267494350581
    C            1.051073578989    -0.351851238813    -0.245378632836
    C            1.607059101748    -0.645317343393     1.138611648043
    H            1.801167596846    -0.038230203103    -0.955154093448
    H            0.549076027676    -1.213866928525    -0.640030613957
    H            2.088300455804     0.236641443517     1.546503226464
    H            2.337011526541    -1.450320291345     1.110730961654
    H            0.804810437341    -0.947399570126     1.801329848710

gradient() will perform analytic gradient computation.

*** tstart() called on cx1-1-2-1.cx1.hpc.ic.ac.uk
*** at Fri Sep  2 12:05:30 2016


         ---------------------------------------------------------
                                   SCF
            by Justin Turney, Rob Parrish, and Andy Simmonett
                              RHF Reference
                        4 Threads,   2000 MiB Core
         ---------------------------------------------------------

  ==> Geometry <==

    Molecular point group: c1
    Full point group: C1

    Geometry (in Angstrom), charge = 0, multiplicity = 1:

       Center              X                  Y                   Z               Mass       
    ------------   -----------------  -----------------  -----------------  -----------------
           H         -1.585990268641     1.553530896667    -0.639522045632     1.007825032070
           C         -1.125198213459     0.632095679709    -0.301620914913    12.000000000000
           O          0.184439001835     0.787259257401    -0.316479022461    15.994914619560
           O         -1.712205554318    -0.396193008490    -0.267494350581    15.994914619560
           C          1.051073578989    -0.351851238813    -0.245378632836    12.000000000000
           C          1.607059101748    -0.645317343393     1.138611648043    12.000000000000
           H          1.801167596846    -0.038230203103    -0.955154093448     1.007825032070
           H          0.549076027676    -1.213866928525    -0.640030613957     1.007825032070
           H          2.088300455804     0.236641443517     1.546503226464     1.007825032070
           H          2.337011526541    -1.450320291345     1.110730961654     1.007825032070
           H          0.804810437341    -0.947399570126     1.801329848710     1.007825032070

  Running in c1 symmetry.

  Rotational constants: A =      0.39462  B =      0.11084  C =      0.09844 [cm^-1]
  Rotational constants: A =  11830.47772  B =   3322.92149  C =   2951.22768 [MHz]
  Nuclear repulsion =  179.773269059605070

  Charge       = 0
  Multiplicity = 1
  Electrons    = 40
  Nalpha       = 20
  Nbeta        = 20

  ==> Algorithm <==

  SCF Algorithm Type is DF.
  DIIS enabled.
  MOM disabled.
  Fractional occupation disabled.
  Guess Type is READ.
  Energy threshold   = 1.00e-08
  Density threshold  = 1.00e-08
  Integral threshold = 0.00e+00

  ==> Primary Basis <==

  Basis Set: 6-31G*
    Number of shells: 42
    Number of basis function: 87
    Number of Cartesian functions: 87
    Spherical Harmonics?: false
    Max angular momentum: 2

  ==> Pre-Iterations <==

   -------------------------------------------------------
    Irrep   Nso     Nmo     Nalpha   Nbeta   Ndocc  Nsocc
   -------------------------------------------------------
     A         87      87       0       0       0       0
   -------------------------------------------------------
    Total      87      87      20      20      20       0
   -------------------------------------------------------

 OEINTS: Overlap, kinetic, potential, dipole, and quadrupole integrals
         stored in file 35.

  ==> Integral Setup <==

  ==> DFJK: Density-Fitted J/K Matrices <==

    J tasked:                  Yes
    K tasked:                  Yes
    wK tasked:                  No
    OpenMP threads:              4
    Integrals threads:           4
    Memory (MB):              1430
    Algorithm:                Core
    Integral Cache:           NONE
    Schwarz Cutoff:          1E-12
    Fitting Condition:       1E-12

   => Auxiliary Basis Set <=

  Basis Set: 
    Number of shells: 174
    Number of basis function: 555
    Number of Cartesian functions: 555
    Spherical Harmonics?: false
    Max angular momentum: 3

  Minimum eigenvalue in the overlap matrix is 5.1978474997E-03.
  Using Symmetric Orthogonalization.
  SCF Guess: Reading in previously saved MOs, projecting if necessary.

  Using orbitals from previous SCF, no projection.
  Recomputing DOCC and SOCC from number of alpha and beta electrons from previous calculation.
              A 
    DOCC [    20 ]

  ==> Iterations <==

                           Total Energy        Delta E     RMS |[F,P]|

   @DF-RHF iter   0:  -266.78754751601474   -2.66788e+02   2.23225e-03 
   @DF-RHF iter   1:  -266.81801541503802   -3.04679e-02   4.12377e-04 
   @DF-RHF iter   2:  -266.81931426744177   -1.29885e-03   1.62772e-04 DIIS
   @DF-RHF iter   3:  -266.81960908094578   -2.94814e-04   6.80229e-05 DIIS
   @DF-RHF iter   4:  -266.81966197830360   -5.28974e-05   2.92789e-05 DIIS
   @DF-RHF iter   5:  -266.81967546456480   -1.34863e-05   1.56293e-05 DIIS
   @DF-RHF iter   6:  -266.81967914869489   -3.68413e-06   4.85149e-06 DIIS
   @DF-RHF iter   7:  -266.81967949808296   -3.49388e-07   1.98422e-06 DIIS
   @DF-RHF iter   8:  -266.81967953868860   -4.06056e-08   6.33001e-07 DIIS
   @DF-RHF iter   9:  -266.81967954180817   -3.11957e-09   1.52676e-07 DIIS
   @DF-RHF iter  10:  -266.81967954206715   -2.58979e-10   4.87766e-08 DIIS
   @DF-RHF iter  11:  -266.81967954208807   -2.09184e-11   1.77331e-08 DIIS
   @DF-RHF iter  12:  -266.81967954209074   -2.67164e-12   6.65803e-09 DIIS

  ==> Post-Iterations <==

    Orbital Energies (a.u.)
    -----------------------

    Doubly Occupied:                                                      

       1A    -20.611283     2A    -20.556931     3A    -11.378442  
       4A    -11.291312     5A    -11.228405     6A     -1.471553  
       7A     -1.372917     8A     -1.049505     9A     -0.914075  
      10A     -0.796998    11A     -0.743417    12A     -0.680346  
      13A     -0.651791    14A     -0.621806    15A     -0.577477  
      16A     -0.541802    17A     -0.537531    18A     -0.501030  
      19A     -0.456724    20A     -0.452472  

    Virtual:                                                              

      21A      0.185142    22A      0.244609    23A      0.283034  
      24A      0.288569    25A      0.304819    26A      0.308255  
      27A      0.333935    28A      0.357393    29A      0.399058  
      30A      0.454221    31A      0.505855    32A      0.680313  
      33A      0.714054    34A      0.742674    35A      0.782357  
      36A      0.797093    37A      0.826360    38A      0.892238  
      39A      0.931635    40A      0.989975    41A      1.024543  
      42A      1.098269    43A      1.101006    44A      1.125103  
      45A      1.159619    46A      1.176184    47A      1.189450  
      48A      1.231023    49A      1.232577    50A      1.275454  
      51A      1.332828    52A      1.349169    53A      1.388154  
      54A      1.489952    55A      1.649988    56A      1.677959  
      57A      1.713029    58A      1.746464    59A      1.844508  
      60A      1.873304    61A      1.943252    62A      2.025377  
      63A      2.086463    64A      2.124594    65A      2.211872  
      66A      2.238267    67A      2.268940    68A      2.397900  
      69A      2.405019    70A      2.510837    71A      2.516421  
      72A      2.610395    73A      2.659456    74A      2.713397  
      75A      2.775546    76A      2.839850    77A      2.934843  
      78A      3.032287    79A      3.106521    80A      3.278382  
      81A      3.318127    82A      3.472603    83A      4.269502  
      84A      4.382851    85A      4.583855    86A      4.643708  
      87A      4.850960  

    Final Occupation by Irrep:
              A 
    DOCC [    20 ]

  Energy converged.

  @DF-RHF Final Energy:  -266.81967954209074

   => Energetics <=

    Nuclear Repulsion Energy =            179.7732690596050702
    One-Electron Energy =                -720.3142651159269008
    Two-Electron Energy =                 273.7213165142310345
    DFT Exchange-Correlation Energy =       0.0000000000000000
    Empirical Dispersion Energy =           0.0000000000000000
    PCM Polarization Energy =               0.0000000000000000
    EFP Energy =                            0.0000000000000000
    Total Energy =                       -266.8196795420907392

    Alert: EFP and PCM quantities not currently incorporated into SCF psivars.

Properties will be evaluated at   0.000000,   0.000000,   0.000000 Bohr
  ==> Properties <==


Properties computed using the SCF density matrix

  Nuclear Dipole Moment: (a.u.)
     X:     5.6122      Y:    -1.7415      Z:     2.0820

  Electronic Dipole Moment: (a.u.)
     X:    -4.8172      Y:     2.0321      Z:    -2.0444

  Dipole Moment: (a.u.)
     X:     0.7950      Y:     0.2906      Z:     0.0376     Total:     0.8473

  Dipole Moment: (Debye)
     X:     2.0207      Y:     0.7388      Z:     0.0955     Total:     2.1537


  Saving occupied orbitals to File 180.

*** tstop() called on cx1-1-2-1.cx1.hpc.ic.ac.uk at Fri Sep  2 12:05:33 2016
Module time:
	user time   =       7.18 seconds =       0.12 minutes
	system time =       0.11 seconds =       0.00 minutes
	total time  =          3 seconds =       0.05 minutes
Total time:
	user time   =      42.20 seconds =       0.70 minutes
	system time =       0.70 seconds =       0.01 minutes
	total time  =         15 seconds =       0.25 minutes

*** tstart() called on cx1-1-2-1.cx1.hpc.ic.ac.uk
*** at Fri Sep  2 12:05:33 2016


         ------------------------------------------------------------
                                   SCF GRAD                          
                          Rob Parrish, Justin Turney,                
                       Andy Simmonett, and Alex Sokolov              
         ------------------------------------------------------------

  ==> Geometry <==

    Molecular point group: c1
    Full point group: C1

    Geometry (in Angstrom), charge = 0, multiplicity = 1:

       Center              X                  Y                   Z               Mass       
    ------------   -----------------  -----------------  -----------------  -----------------
           H         -1.585990268641     1.553530896667    -0.639522045632     1.007825032070
           C         -1.125198213459     0.632095679709    -0.301620914913    12.000000000000
           O          0.184439001835     0.787259257401    -0.316479022461    15.994914619560
           O         -1.712205554318    -0.396193008490    -0.267494350581    15.994914619560
           C          1.051073578989    -0.351851238813    -0.245378632836    12.000000000000
           C          1.607059101748    -0.645317343393     1.138611648043    12.000000000000
           H          1.801167596846    -0.038230203103    -0.955154093448     1.007825032070
           H          0.549076027676    -1.213866928525    -0.640030613957     1.007825032070
           H          2.088300455804     0.236641443517     1.546503226464     1.007825032070
           H          2.337011526541    -1.450320291345     1.110730961654     1.007825032070
           H          0.804810437341    -0.947399570126     1.801329848710     1.007825032070

  Nuclear repulsion =  179.773269059605070

  ==> Basis Set <==

  Basis Set: 6-31G*
    Number of shells: 42
    Number of basis function: 87
    Number of Cartesian functions: 87
    Spherical Harmonics?: false
    Max angular momentum: 2

  ==> DFJKGrad: Density-Fitted SCF Gradients <==

    Gradient:                    1
    J tasked:                  Yes
    K tasked:                  Yes
    wK tasked:                  No
    OpenMP threads:              4
    Integrals threads:           4
    Memory (MB):              1430
    Schwarz Cutoff:          0E+00
    Fitting Condition:       1E-12

   => Auxiliary Basis Set <=

  Basis Set: 
    Number of shells: 174
    Number of basis function: 555
    Number of Cartesian functions: 555
    Spherical Harmonics?: false
    Max angular momentum: 3


  -Total Gradient:
     Atom            X                  Y                   Z
    ------   -----------------  -----------------  -----------------
       1        0.003225595372    -0.006291698430    -0.016943957961
       2       -0.004425889234     0.008768980976     0.046243636826
       3        0.003987103037     0.000901580126    -0.022510798098
       4       -0.000269939015     0.000115442585    -0.017799087903
       5       -0.004269085326    -0.004742957629     0.012536065752
       6        0.004810193434    -0.008689207189    -0.000431469128
       7       -0.009609559250     0.008632588442    -0.004139111069
       8        0.004871294889     0.002479625293     0.001979406628
       9        0.000013784687     0.000594561249    -0.001425304810
      10        0.001723205867    -0.001298769312     0.004043147482
      11       -0.000056704463    -0.000470146112    -0.001552527718


*** tstop() called on cx1-1-2-1.cx1.hpc.ic.ac.uk at Fri Sep  2 12:05:35 2016
Module time:
	user time   =       7.92 seconds =       0.13 minutes
	system time =       0.14 seconds =       0.00 minutes
	total time  =          2 seconds =       0.03 minutes
Total time:
	user time   =      50.14 seconds =       0.84 minutes
	system time =       0.84 seconds =       0.01 minutes
	total time  =         17 seconds =       0.28 minutes
CURRENT ENERGY: -266.8196795421

			-----------------------------------------
			 OPTKING 2.0: for geometry optimizations 
			  - R.A. King,  Bethel University        
			-----------------------------------------

	Previous internal coordinate definitions found.
	---Fragment 1 Geometry and Gradient---
	 H          -2.9970872572        2.9357479337       -1.2085215222
	 C          -2.1263164686        1.1944877244       -0.5699809251
	 O           0.3485392017        1.4877043921       -0.5980586793
	 O          -3.2355995809       -0.7486962818       -0.5054910647
	 C           1.9862412098       -0.6649024809       -0.4636984149
	 C           3.0369015817       -1.2194730478        2.1516641865
	 H           3.4037134775       -0.0722446139       -1.8049796513
	 H           1.0376033184       -2.2938760567       -1.2094825770
	 H           3.9463159447        0.4471875199        2.9224675616
	 H           4.4163117546       -2.7407081556        2.0989773248
	 H           1.5208713155       -1.7903257260        3.4040200891
	             0.0032255954       -0.0062916984       -0.0169439580
	            -0.0044258892        0.0087689810        0.0462436368
	             0.0039871030        0.0009015801       -0.0225107981
	            -0.0002699390        0.0001154426       -0.0177990879
	            -0.0042690853       -0.0047429576        0.0125360658
	             0.0048101934       -0.0086892072       -0.0004314691
	            -0.0096095592        0.0086325884       -0.0041391111
	             0.0048712949        0.0024796253        0.0019794066
	             0.0000137847        0.0005945612       -0.0014253048
	             0.0017232059       -0.0012987693        0.0040431475
	            -0.0000567045       -0.0004701461       -0.0015525277

	---Fragment 1 Intrafragment Coordinates---
	 - Coordinate -           - BOHR/RAD -       - ANG/DEG -
	 R(1,2)           =         2.048893	       1.084228
	 R(2,3)           =         2.492323	       1.318881
	 R(2,4)           =         2.238444	       1.184534
	 R(3,5)           =         2.708106	       1.433068
	 R(5,6)           =         2.872552	       1.520089
	 R(5,7)           =         2.039487	       1.079250
	 R(5,8)           =         2.027230	       1.072764
	 R(6,9)           =         2.049129	       1.084352
	 R(6,10)          =         2.054192	       1.087032
	 R(6,11)          =         2.047588	       1.083537
	 B(1,2,3)         =         1.894967	     108.573600
	 B(1,2,4)         =         2.136633	     122.420082
	 B(2,3,5)         =         2.101834	     120.426195
	 B(3,2,4)         =         2.207491	     126.479917
	 B(3,5,6)         =         2.004042	     114.823129
	 B(3,5,7)         =         1.728135	      99.014836
	 B(3,5,8)         =         1.915035	     109.723417
	 B(5,6,9)         =         1.926003	     110.351816
	 B(5,6,10)        =         1.944674	     111.421622
	 B(5,6,11)        =         1.917586	     109.869591
	 B(6,5,7)         =         1.983042	     113.619933
	 B(6,5,8)         =         1.929403	     110.546645
	 B(7,5,8)         =         1.893143	     108.469118
	 B(9,6,10)        =         1.890154	     108.297829
	 B(9,6,11)        =         1.902103	     108.982490
	 B(10,6,11)       =         1.882217	     107.843103
	 D(1,2,3,5)       =        -2.866755	    -164.252960
	 D(2,3,5,6)       =        -1.721655	     -98.643593
	*D(2,3,5,7)       =         2.443461	     140.000001
	 D(2,3,5,8)       =         0.463739	      26.570261
	 D(3,5,6,9)       =        -0.934769	     -53.558296
	 D(3,5,6,10)      =        -3.035226	    -173.905636
	 D(3,5,6,11)      =         1.163040	      66.637295
	 D(4,2,3,5)       =        -0.036697	      -2.102586
	 D(7,5,6,9)       =         1.037423	      59.439982
	 D(7,5,6,10)      =        -1.063034	     -60.907358
	 D(7,5,6,11)      =         3.135232	     179.635573
	 D(8,5,6,9)       =        -3.112639	    -178.341060
	 D(8,5,6,10)      =         1.070089	      61.311601
	 D(8,5,6,11)      =        -1.014830	     -58.145469
	 R(4,6)           =         6.828351	       3.613408

	Current energy   :      -266.8196795421

	Energy change for the previous step:
		Projected    :        -0.0031028716
		Actual       :         0.0071002660

	Performing BFGS update.
	Previous computed or guess Hessian on step 1.
	Steps to be used in Hessian update: 2 1
	Taking RFO optimization step.
	Going to follow RFO solution 1.
	Using RFO vector 1.
	Norm of target step-size    0.29601
	Projected energy change by RFO approximation:        -0.0161855656

	Back-transformation to cartesian coordinates...
	Successfully converged to displaced geometry.

	Back-transformation to cartesian coordinates to adjust frozen coordinates...
	Successfully converged to displaced geometry.

	--- Internal Coordinate Step in ANG or DEG, aJ/ANG or AJ/DEG ---
	 ---------------------------------------------------------------------------
	   Coordinate                Previous        Force       Change         New 
	   ----------                --------       ------       ------       ------
	    1 R(1,2)          =      1.084228     0.011841     0.000813     1.085041
	    2 R(2,3)          =      1.318881     0.021457    -0.000710     1.318171
	    3 R(2,4)          =      1.184534     0.017629    -0.000034     1.184500
	    4 R(3,5)          =      1.433068     0.007579    -0.001815     1.431253
	    5 R(5,6)          =      1.520089    -0.014945    -0.002851     1.517238
	    6 R(5,7)          =      1.079250     0.011931     0.001363     1.080613
	    7 R(5,8)          =      1.072764     0.041195     0.005211     1.077976
	    8 R(6,9)          =      1.084352     0.000383    -0.000115     1.084237
	    9 R(6,10)         =      1.087032    -0.016603    -0.001606     1.085425
	   10 R(6,11)         =      1.083537     0.006397     0.000462     1.083998
	   11 B(1,2,3)        =    108.573600     0.000522     1.077035   109.650635
	   12 B(1,2,4)        =    122.420082     0.000169     0.795235   123.215317
	   13 B(2,3,5)        =    120.426195     0.000165    -0.717869   119.708326
	   14 B(3,2,4)        =    126.479917     0.000701     0.650219   127.130136
	   15 B(3,5,6)        =    114.823129    -0.001199    -3.746850   111.076279
	   16 B(3,5,7)        =     99.014836     0.001216     5.022930   104.037766
	   17 B(3,5,8)        =    109.723417     0.000081    -0.141344   109.582072
	   18 B(5,6,9)        =    110.351816     0.000219     0.435397   110.787213
	   19 B(5,6,10)       =    111.421622    -0.000512    -1.249974   110.171648
	   20 B(5,6,11)       =    109.869591     0.000181     0.570243   110.439834
	   21 B(6,5,7)        =    113.619933    -0.000484    -2.081710   111.538223
	   22 B(6,5,8)        =    110.546645     0.000574     1.109190   111.655835
	   23 B(7,5,8)        =    108.469118    -0.000126     0.186458   108.655576
	   24 B(9,6,10)       =    108.297829     0.000112     0.166785   108.464614
	   25 B(9,6,11)       =    108.982490    -0.000140    -0.267991   108.714500
	   26 B(10,6,11)      =    107.843103     0.000141     0.349013   108.192116
	   27 D(1,2,3,5)      =   -164.252960    -0.000605   -11.755248  -176.008208
	   28 D(2,3,5,6)      =    -98.643593    -0.000084    -1.229794   -99.873387
	   29 *D(2,3,5,7)     =    140.000001     0.000000     0.000000   140.000001
	   30 D(2,3,5,8)      =     26.570261    -0.000102    -2.604585    23.965675
	   31 D(3,5,6,9)      =    -53.558296    -0.000070    -1.798156   -55.356452
	   32 D(3,5,6,10)     =   -173.905636    -0.000059    -1.474880  -175.380515
	   33 D(3,5,6,11)     =     66.637295    -0.000052    -1.481126    65.156168
	   34 D(4,2,3,5)      =     -2.102586     0.000495     5.387533     3.284947
	   35 D(7,5,6,9)      =     59.439982     0.000028     0.770991    60.210973
	   36 D(7,5,6,10)     =    -60.907358     0.000040     1.094267   -59.813091
	   37 D(7,5,6,11)     =    179.635573     0.000047     1.088020   180.723593
	   38 D(8,5,6,9)      =   -178.341060     0.000010     0.336006  -178.005054
	   39 D(8,5,6,10)     =     61.311601     0.000021     0.659282    61.970883
	   40 D(8,5,6,11)     =    -58.145469     0.000028     0.653035   -57.492433
	   41 R(4,6)          =      3.613408    -0.035613    -0.061317     3.552091
	 ---------------------------------------------------------------------------

  ==> Convergence Check <==

  Measures of convergence in internal coordinates in au.
  Criteria marked as inactive (o), active & met (*), and active & unmet ( ).
  ---------------------------------------------------------------------------------------------
   Step     Total Energy     Delta E     MAX Force     RMS Force      MAX Disp      RMS Disp   
  ---------------------------------------------------------------------------------------------
    Convergence Criteria    1.00e-06 *    3.00e-04 *             o    1.20e-03 *             o
  ---------------------------------------------------------------------------------------------
      3    -266.81967954    7.10e-03      3.46e-02      8.55e-03 o    2.05e-01      4.57e-02 o  ~
  ---------------------------------------------------------------------------------------------

	Writing optimization data to binary file.
	Structure for next step:
	Cartesian Geometry (in Angstrom)
	    H    -1.5926497302   1.5643395847  -0.4529031609
	    C    -1.0999842525   0.6034289490  -0.3468610114
	    O     0.2069145055   0.7747030872  -0.3309077216
	    O    -1.6876089108  -0.4223926989  -0.2731931055
	    C     1.0711725614  -0.3652282169  -0.2850932730
	    C     1.5719471837  -0.6139228840   1.1253630499
	    H     1.8801602493  -0.1078531063  -0.9536898315
	    H     0.5562734155  -1.2251752378  -0.6818314719
	    H     2.0563763575   0.2707042849   1.5232741407
	    H     2.2881511270  -1.4295084280   1.1299009700
	    H     0.7487916420  -0.8827467804   1.7774375967
			--------------------------
			 OPTKING Finished Execution 
			--------------------------

    Structure for next step:
    Molecular point group: c1
    Full point group: C1

    Geometry (in Angstrom), charge = 0, multiplicity = 1:

    H           -1.603692854240     1.573765807972    -0.434248615291
    C           -1.111027414116     0.612855245657    -0.328206473916
    O            0.195871244062     0.784129370754    -0.312253185298
    O           -1.698652027593    -0.412966323983    -0.254538573604
    C            1.060129233960    -0.355801846309    -0.266438740212
    C            1.560903818060    -0.604496494398     1.144017475007
    H            1.869116860084    -0.098426755393    -0.935035247639
    H            0.545230127375    -1.215748801543    -0.663176908749
    H            2.045332954863     0.280130606902     1.541928535419
    H            2.277107706617    -1.420081976163     1.148555394779
    H            0.737748339157    -0.873320370332     1.796091972044

gradient() will perform analytic gradient computation.

*** tstart() called on cx1-1-2-1.cx1.hpc.ic.ac.uk
*** at Fri Sep  2 12:05:35 2016


         ---------------------------------------------------------
                                   SCF
            by Justin Turney, Rob Parrish, and Andy Simmonett
                              RHF Reference
                        4 Threads,   2000 MiB Core
         ---------------------------------------------------------

  ==> Geometry <==

    Molecular point group: c1
    Full point group: C1

    Geometry (in Angstrom), charge = 0, multiplicity = 1:

       Center              X                  Y                   Z               Mass       
    ------------   -----------------  -----------------  -----------------  -----------------
           H         -1.603692854240     1.573765807972    -0.434248615291     1.007825032070
           C         -1.111027414116     0.612855245657    -0.328206473916    12.000000000000
           O          0.195871244062     0.784129370754    -0.312253185298    15.994914619560
           O         -1.698652027593    -0.412966323983    -0.254538573604    15.994914619560
           C          1.060129233960    -0.355801846309    -0.266438740212    12.000000000000
           C          1.560903818060    -0.604496494398     1.144017475007    12.000000000000
           H          1.869116860084    -0.098426755393    -0.935035247639     1.007825032070
           H          0.545230127375    -1.215748801543    -0.663176908749     1.007825032070
           H          2.045332954863     0.280130606902     1.541928535419     1.007825032070
           H          2.277107706617    -1.420081976163     1.148555394779     1.007825032070
           H          0.737748339157    -0.873320370332     1.796091972044     1.007825032070

  Running in c1 symmetry.

  Rotational constants: A =      0.38799  B =      0.11340  C =      0.10102 [cm^-1]
  Rotational constants: A =  11631.52199  B =   3399.54000  C =   3028.54589 [MHz]
  Nuclear repulsion =  180.414903192949510

  Charge       = 0
  Multiplicity = 1
  Electrons    = 40
  Nalpha       = 20
  Nbeta        = 20

  ==> Algorithm <==

  SCF Algorithm Type is DF.
  DIIS enabled.
  MOM disabled.
  Fractional occupation disabled.
  Guess Type is READ.
  Energy threshold   = 1.00e-08
  Density threshold  = 1.00e-08
  Integral threshold = 0.00e+00

  ==> Primary Basis <==

  Basis Set: 6-31G*
    Number of shells: 42
    Number of basis function: 87
    Number of Cartesian functions: 87
    Spherical Harmonics?: false
    Max angular momentum: 2

  ==> Pre-Iterations <==

   -------------------------------------------------------
    Irrep   Nso     Nmo     Nalpha   Nbeta   Ndocc  Nsocc
   -------------------------------------------------------
     A         87      87       0       0       0       0
   -------------------------------------------------------
    Total      87      87      20      20      20       0
   -------------------------------------------------------

 OEINTS: Overlap, kinetic, potential, dipole, and quadrupole integrals
         stored in file 35.

  ==> Integral Setup <==

  ==> DFJK: Density-Fitted J/K Matrices <==

    J tasked:                  Yes
    K tasked:                  Yes
    wK tasked:                  No
    OpenMP threads:              4
    Integrals threads:           4
    Memory (MB):              1430
    Algorithm:                Core
    Integral Cache:           NONE
    Schwarz Cutoff:          1E-12
    Fitting Condition:       1E-12

   => Auxiliary Basis Set <=

  Basis Set: 
    Number of shells: 174
    Number of basis function: 555
    Number of Cartesian functions: 555
    Spherical Harmonics?: false
    Max angular momentum: 3

  Minimum eigenvalue in the overlap matrix is 5.0563025639E-03.
  Using Symmetric Orthogonalization.
  SCF Guess: Reading in previously saved MOs, projecting if necessary.

  Using orbitals from previous SCF, no projection.
  Recomputing DOCC and SOCC from number of alpha and beta electrons from previous calculation.
              A 
    DOCC [    20 ]

  ==> Iterations <==

                           Total Energy        Delta E     RMS |[F,P]|

   @DF-RHF iter   0:  -266.82653053974542   -2.66827e+02   1.35313e-03 
   @DF-RHF iter   1:  -266.82660666692180   -7.61272e-05   2.81143e-04 
   @DF-RHF iter   2:  -266.82726345604021   -6.56789e-04   1.20140e-04 DIIS
   @DF-RHF iter   3:  -266.82743367619184   -1.70220e-04   6.26852e-05 DIIS
   @DF-RHF iter   4:  -266.82746546952455   -3.17933e-05   2.38032e-05 DIIS
   @DF-RHF iter   5:  -266.82747416063557   -8.69111e-06   1.08966e-05 DIIS
   @DF-RHF iter   6:  -266.82747612303029   -1.96239e-06   3.73539e-06 DIIS
   @DF-RHF iter   7:  -266.82747632202791   -1.98998e-07   1.42069e-06 DIIS
   @DF-RHF iter   8:  -266.82747634505881   -2.30309e-08   4.19800e-07 DIIS
   @DF-RHF iter   9:  -266.82747634666441   -1.60560e-09   1.30222e-07 DIIS
   @DF-RHF iter  10:  -266.82747634686740   -2.02988e-10   3.44243e-08 DIIS
   @DF-RHF iter  11:  -266.82747634688167   -1.42677e-11   8.79752e-09 DIIS

  ==> Post-Iterations <==

    Orbital Energies (a.u.)
    -----------------------

    Doubly Occupied:                                                      

       1A    -20.612560     2A    -20.556753     3A    -11.379646  
       4A    -11.292232     5A    -11.225913     6A     -1.472600  
[...]
      84A      4.401295    85A      4.588264    86A      4.645545  
      87A      4.854129  

    Final Occupation by Irrep:
              A 
    DOCC [    20 ]

  Energy converged.

  @DF-RHF Final Energy:  -266.82769116868099

   => Energetics <=

    Nuclear Repulsion Energy =            180.9982989418726618
    One-Electron Energy =                -722.7619040893116562
    Two-Electron Energy =                 274.9359139787579238
    DFT Exchange-Correlation Energy =       0.0000000000000000
    Empirical Dispersion Energy =           0.0000000000000000
    PCM Polarization Energy =               0.0000000000000000
    EFP Energy =                            0.0000000000000000
    Total Energy =                       -266.8276911686810422

    Alert: EFP and PCM quantities not currently incorporated into SCF psivars.

Properties will be evaluated at   0.000000,   0.000000,   0.000000 Bohr
  ==> Properties <==


Properties computed using the SCF density matrix

  Nuclear Dipole Moment: (a.u.)
     X:     5.4053      Y:    -1.6186      Z:     2.3668

  Electronic Dipole Moment: (a.u.)
     X:    -4.6510      Y:     1.9385      Z:    -2.3449

  Dipole Moment: (a.u.)
     X:     0.7544      Y:     0.3199      Z:     0.0219     Total:     0.8197

  Dipole Moment: (Debye)
     X:     1.9174      Y:     0.8131      Z:     0.0558     Total:     2.0834


  Saving occupied orbitals to File 180.

*** tstop() called on cx1-1-2-1.cx1.hpc.ic.ac.uk at Fri Sep  2 12:05:53 2016
Module time:
	user time   =       6.19 seconds =       0.10 minutes
	system time =       0.10 seconds =       0.00 minutes
	total time  =          3 seconds =       0.05 minutes
Total time:
	user time   =     102.13 seconds =       1.70 minutes
	system time =       1.68 seconds =       0.03 minutes
	total time  =         35 seconds =       0.58 minutes

*** tstart() called on cx1-1-2-1.cx1.hpc.ic.ac.uk
*** at Fri Sep  2 12:05:53 2016


         ------------------------------------------------------------
                                   SCF GRAD                          
                          Rob Parrish, Justin Turney,                
                       Andy Simmonett, and Alex Sokolov              
         ------------------------------------------------------------

  ==> Geometry <==

    Molecular point group: c1
    Full point group: C1

    Geometry (in Angstrom), charge = 0, multiplicity = 1:

       Center              X                  Y                   Z               Mass       
    ------------   -----------------  -----------------  -----------------  -----------------
           H         -1.613835985172     1.565853234643    -0.377753907796     1.007825032070
           C         -1.108814077440     0.607571976095    -0.319018192515    12.000000000000
           O          0.194722271448     0.792133563001    -0.309386332619    15.994914619560
           O         -1.673236947693    -0.432203050281    -0.269930426642    15.994914619560
           C          1.054175129325    -0.349004624812    -0.268073427345    12.000000000000
           C          1.540479709826    -0.593157594091     1.146983814130    12.000000000000
           H          1.869859665748    -0.112488311224    -0.936122367371     1.007825032070
           H          0.525013051256    -1.204972715361    -0.655672620091     1.007825032070
           H          2.041507756761     0.284953911099     1.538294341961     1.007825032070
           H          2.240568868680    -1.422571426546     1.159606857384     1.007825032070
           H          0.710336085450    -0.839224424273     1.799284626699     1.007825032070

  Nuclear repulsion =  180.998298941872662

  ==> Basis Set <==

  Basis Set: 6-31G*
    Number of shells: 42
    Number of basis function: 87
    Number of Cartesian functions: 87
    Spherical Harmonics?: false
    Max angular momentum: 2

  ==> DFJKGrad: Density-Fitted SCF Gradients <==

    Gradient:                    1
    J tasked:                  Yes
    K tasked:                  Yes
    wK tasked:                  No
    OpenMP threads:              4
    Integrals threads:           4
    Memory (MB):              1430
    Schwarz Cutoff:          0E+00
    Fitting Condition:       1E-12

   => Auxiliary Basis Set <=

  Basis Set: 
    Number of shells: 174
    Number of basis function: 555
    Number of Cartesian functions: 555
    Spherical Harmonics?: false
    Max angular momentum: 3


  -Total Gradient:
     Atom            X                  Y                   Z
    ------   -----------------  -----------------  -----------------
       1       -0.000041859250     0.000008089039     0.000010381648
       2       -0.000007386887     0.000001428672    -0.001295661419
       3       -0.000190123097    -0.000093999060     0.001616323372
       4        0.000045590985     0.000015421994     0.000007576997
       5        0.000848695079     0.000683325167     0.000725041147
       6        0.000029370738    -0.000009707483    -0.000010020148
       7       -0.000695629608    -0.000594576209    -0.001051567139
       8       -0.000002544276    -0.000001354890    -0.000007414176
       9        0.000000560545    -0.000001820577     0.000005148067
      10        0.000011888374    -0.000010597555     0.000019332482
      11        0.000001437397     0.000003790899    -0.000019140829


*** tstop() called on cx1-1-2-1.cx1.hpc.ic.ac.uk at Fri Sep  2 12:05:55 2016
Module time:
	user time   =       8.16 seconds =       0.14 minutes
	system time =       0.12 seconds =       0.00 minutes
	total time  =          2 seconds =       0.03 minutes
Total time:
	user time   =     110.30 seconds =       1.84 minutes
	system time =       1.80 seconds =       0.03 minutes
	total time  =         37 seconds =       0.62 minutes
CURRENT ENERGY: -266.8276911687

			-----------------------------------------
			 OPTKING 2.0: for geometry optimizations 
			  - R.A. King,  Bethel University        
			-----------------------------------------

	Previous internal coordinate definitions found.
	---Fragment 1 Geometry and Gradient---
	 H          -3.0497080354        2.9590337778       -0.7138514314
	 C          -2.0953549386        1.1481446408       -0.6028570153
	 O           0.3679717650        1.4969154947       -0.5846554379
	 O          -3.1619595866       -0.8167453988       -0.5100945813
	 C           1.9921022905       -0.6595231600       -0.5065853612
	 C           2.9110847648       -1.1209054065        2.1674852876
	 H           3.5335226752       -0.2125721014       -1.7690149012
	 H           0.9921308831       -2.2770684296       -1.2390416848
	 H           3.8578905584        0.5384848525        2.9069550181
	 H           4.2340615437       -2.6882704006        2.1913393823
	 H           1.3423406638       -1.5859043259        3.4001551796
	            -0.0000418592        0.0000080890        0.0000103816
	            -0.0000073869        0.0000014287       -0.0012956614
	            -0.0001901231       -0.0000939991        0.0016163234
	             0.0000455910        0.0000154220        0.0000075770
	             0.0008486951        0.0006833252        0.0007250411
	             0.0000293707       -0.0000097075       -0.0000100201
	            -0.0006956296       -0.0005945762       -0.0010515671
	            -0.0000025443       -0.0000013549       -0.0000074142
	             0.0000005605       -0.0000018206        0.0000051481
	             0.0000118884       -0.0000105976        0.0000193325
	             0.0000014374        0.0000037909       -0.0000191408

	---Fragment 1 Intrafragment Coordinates---
	 - Coordinate -           - BOHR/RAD -       - ANG/DEG -
	 R(1,2)           =         2.049983	       1.084804
	 R(2,3)           =         2.487961	       1.316572
	 R(2,4)           =         2.237642	       1.184109
	 R(3,5)           =         2.700763	       1.429183
	 R(5,6)           =         2.864971	       1.516077
	 R(5,7)           =         2.041928	       1.080542
	 R(5,8)           =         2.037864	       1.078391
	 R(6,9)           =         2.048617	       1.084082
	 R(6,10)          =         2.051212	       1.085455
	 R(6,11)          =         2.048574	       1.084059
	 B(1,2,3)         =         1.915051	     109.724333
	 B(1,2,4)         =         2.160397	     123.781626
	 B(2,3,5)         =         2.075658	     118.926469
	 B(3,2,4)         =         2.207736	     126.493928
	 B(3,5,6)         =         1.926725	     110.393216
	 B(3,5,7)         =         1.835180	     105.148068
	 B(3,5,8)         =         1.905295	     109.165369
	 B(5,6,9)         =         1.933401	     110.775725
	 B(5,6,10)        =         1.918558	     109.925293
	 B(5,6,11)        =         1.931089	     110.643231
	 B(6,5,7)         =         1.949986	     111.725940
	 B(6,5,8)         =         1.944478	     111.410392
	 B(7,5,8)         =         1.898579	     108.780551
	 B(9,6,10)        =         1.892997	     108.460720
	 B(9,6,11)        =         1.897137	     108.697949
	 B(10,6,11)       =         1.889633	     108.267972
	 D(1,2,3,5)       =        -3.115657	    -178.513975
	 D(2,3,5,6)       =        -1.734000	     -99.350869
	*D(2,3,5,7)       =         2.443461	     140.000001
	 D(2,3,5,8)       =         0.409037	      23.436092
	 D(3,5,6,9)       =        -0.988451	     -56.634084
	 D(3,5,6,10)      =        -3.080267	    -176.486283
	 D(3,5,6,11)      =         1.116746	      63.984823
	 D(4,2,3,5)       =         0.028022	       1.605561
	 D(7,5,6,9)       =         1.047144	      59.996925
	 D(7,5,6,10)      =        -1.044672	     -59.855275
	 D(7,5,6,11)      =        -3.130844	    -179.384168
	 D(8,5,6,9)       =        -3.108419	    -178.099266
	 D(8,5,6,10)      =         1.082951	      62.048535
	 D(8,5,6,11)      =        -1.003222	     -57.480359
	 R(4,6)           =         6.644081	       3.515897

	Current energy   :      -266.8276911687

	Energy change for the previous step:
		Projected    :        -0.0000025387
		Actual       :        -0.0000006167
	Energy ratio indicates iffy step: Trust radius decreased to 6.250e-02.


	Performing BFGS update.
	Previous computed or guess Hessian on step 1.
	Steps to be used in Hessian update: 6 5
	Taking RFO optimization step.
	Going to follow RFO solution 1.
	Using RFO vector 1.
	Norm of target step-size    0.00067
	Projected energy change by RFO approximation:        -0.0000001266

	Back-transformation to cartesian coordinates...
	Successfully converged to displaced geometry.

	Back-transformation to cartesian coordinates to adjust frozen coordinates...
	Successfully converged to displaced geometry.

	--- Internal Coordinate Step in ANG or DEG, aJ/ANG or AJ/DEG ---
	 ---------------------------------------------------------------------------
	   Coordinate                Previous        Force       Change         New 
	   ----------                --------       ------       ------       ------
	    1 R(1,2)          =      1.084804    -0.000215    -0.000029     1.084776
	    2 R(2,3)          =      1.316572    -0.000093    -0.000009     1.316563
	    3 R(2,4)          =      1.184109     0.000282     0.000013     1.184122
	    4 R(3,5)          =      1.429183    -0.000435    -0.000051     1.429132
	    5 R(5,6)          =      1.516077    -0.000114    -0.000012     1.516065
	    6 R(5,7)          =      1.080542     0.000042     0.000009     1.080551
	    7 R(5,8)          =      1.078391    -0.000041    -0.000000     1.078391
	    8 R(6,9)          =      1.084082    -0.000005    -0.000003     1.084079
	    9 R(6,10)         =      1.085455    -0.000132    -0.000019     1.085435
	   10 R(6,11)         =      1.084059     0.000111     0.000018     1.084077
	   11 B(1,2,3)        =    109.724333    -0.000005    -0.016316   109.708017
	   12 B(1,2,4)        =    123.781626    -0.000000     0.004031   123.785657
	   13 B(2,3,5)        =    118.926469    -0.000001    -0.002263   118.924206
	   14 B(3,2,4)        =    126.493928     0.000005     0.012300   126.506228
	   15 B(3,5,6)        =    110.393216    -0.000003    -0.006500   110.386716
	   16 B(3,5,7)        =    105.148068    -0.000001    -0.009334   105.138734
	   17 B(3,5,8)        =    109.165369     0.000001     0.000774   109.166144
	   18 B(5,6,9)        =    110.775725    -0.000001    -0.002906   110.772820
	   19 B(5,6,10)       =    109.925293    -0.000002    -0.009319   109.915974
	   20 B(5,6,11)       =    110.643231     0.000002     0.009334   110.652564
	   21 B(6,5,7)        =    111.725940     0.000002     0.010080   111.736020
	   22 B(6,5,8)        =    111.410392    -0.000000     0.000309   111.410701
	   23 B(7,5,8)        =    108.780551    -0.000000     0.004169   108.784720
	   24 B(9,6,10)       =    108.460720     0.000001     0.000800   108.461520
	   25 B(9,6,11)       =    108.697949    -0.000000     0.000967   108.698915
	   26 B(10,6,11)      =    108.267972     0.000000     0.001166   108.269138
	   27 D(1,2,3,5)      =   -178.513975     0.000000     0.011069  -178.502906
	   28 D(2,3,5,6)      =    -99.350869     0.000000     0.003023   -99.347846
	   29 *D(2,3,5,7)     =    140.000001     0.000000    -0.000000   140.000001
	   30 D(2,3,5,8)      =     23.436092    -0.000000    -0.000318    23.435774
	   31 D(3,5,6,9)      =    -56.634084    -0.000000    -0.004945   -56.639028
	   32 D(3,5,6,10)     =   -176.486283     0.000000     0.001920  -176.484363
	   33 D(3,5,6,11)     =     63.984823     0.000000     0.000543    63.985366
	   34 D(4,2,3,5)      =      1.605561    -0.000000     0.002713     1.608274
	   35 D(7,5,6,9)      =     59.996925    -0.000000    -0.014424    59.982501
	   36 D(7,5,6,10)     =    -59.855275    -0.000000    -0.007559   -59.862834
	   37 D(7,5,6,11)     =   -179.384168    -0.000000    -0.008937  -179.393105
	   38 D(8,5,6,9)      =   -178.099266     0.000000    -0.001670  -178.100935
	   39 D(8,5,6,10)     =     62.048535     0.000000     0.005195    62.053730
	   40 D(8,5,6,11)     =    -57.480359     0.000000     0.003818   -57.476541
	   41 R(4,6)          =      3.515897     0.000016    -0.000008     3.515889
	 ---------------------------------------------------------------------------

  ==> Convergence Check <==

  Measures of convergence in internal coordinates in au.
  Criteria marked as inactive (o), active & met (*), and active & unmet ( ).
  ---------------------------------------------------------------------------------------------
   Step     Total Energy     Delta E     MAX Force     RMS Force      MAX Disp      RMS Disp   
  ---------------------------------------------------------------------------------------------
    Convergence Criteria    1.00e-06 *    3.00e-04 *             o    1.20e-03 *             o
  ---------------------------------------------------------------------------------------------
      7    -266.82769117   -6.17e-07 *    6.97e-05 *    2.30e-05 o    2.85e-04 *    1.05e-04 o  ~
  ---------------------------------------------------------------------------------------------


  **** Optimization is complete! (in 7 steps) ****

  ==> Optimization Summary <==

  Measures of convergence in internal coordinates in au.
  --------------------------------------------------------------------------------------------------------------- ~
   Step         Total Energy             Delta E       MAX Force       RMS Force        MAX Disp        RMS Disp  ~
  --------------------------------------------------------------------------------------------------------------- ~
      1    -266.826535251946   -266.826535251946      0.01108261      0.00290771      0.10649091      0.03431485  ~
      2    -266.826779808078     -0.000244556132      0.01307110      0.00306006      0.29306873      0.06599252  ~
      3    -266.819679542091      0.007100265987      0.03464986      0.00855332      0.20516779      0.04573841  ~
      4    -266.827476346882     -0.007796804791      0.00239092      0.00092551      0.07016777      0.01774867  ~
      5    -266.827679899329     -0.000203552447      0.00096654      0.00031100      0.01301212      0.00327721  ~
      6    -266.827690551989     -0.000010652660      0.00034203      0.00009418      0.00183343      0.00058147  ~
      7    -266.827691168681     -0.000000616692      0.00006965      0.00002295      0.00028476      0.00010502  ~
  --------------------------------------------------------------------------------------------------------------- ~

	Writing optimization data to binary file.
	Final energy is   -266.8276911686810
	Final (previous) structure:
	Cartesian Geometry (in Angstrom)
	    H    -1.6138361084   1.5658533542  -0.3777539366
	    C    -1.1088141621   0.6075720225  -0.3190182169
	    O     0.1947222863   0.7921336235  -0.3093863562
	    O    -1.6732370755  -0.4322030833  -0.2699304473
	    C     1.0541752098  -0.3490046515  -0.2680734478
	    C     1.5404798275  -0.5931576394   1.1469839017
	    H     1.8698598085  -0.1124883198  -0.9361224389
	    H     0.5250130913  -1.2049728074  -0.6556726702
	    H     2.0415079127   0.2849539329   1.5382944594
	    H     2.2405690398  -1.4225715352   1.1596069459
	    H     0.7103361397  -0.8392244884   1.7992847641
	Saving final (previous) structure.
			--------------------------
			 OPTKING Finished Execution 
			--------------------------

    Final optimized geometry and variables:
    Molecular point group: c1
    Full point group: C1

    Geometry (in Angstrom), charge = 0, multiplicity = 1:

    H           -1.613835985172     1.565853234643    -0.377753907796
    C           -1.108814077440     0.607571976095    -0.319018192515
    O            0.194722271448     0.792133563001    -0.309386332619
    O           -1.673236947693    -0.432203050281    -0.269930426642
    C            1.054175129325    -0.349004624812    -0.268073427345
    C            1.540479709826    -0.593157594091     1.146983814130
    H            1.869859665748    -0.112488311224    -0.936122367371
    H            0.525013051256    -1.204972715361    -0.655672620091
    H            2.041507756761     0.284953911099     1.538294341961
    H            2.240568868680    -1.422571426546     1.159606857384
    H            0.710336085450    -0.839224424273     1.799284626699

	Cleaning optimization helper files.


Properties will be evaluated at   0.000000,   0.000000,   0.000000 Bohr

Properties computed using the  density matrix

  Nuclear Dipole Moment: (a.u.)
     X:     5.4053      Y:    -1.6186      Z:     2.3668

  Electronic Dipole Moment: (a.u.)
     X:    -4.6510      Y:     1.9385      Z:    -2.3449

  Dipole Moment: (a.u.)
     X:     0.7544      Y:     0.3199      Z:     0.0219     Total:     0.8197

  Dipole Moment: (Debye)
     X:     1.9174      Y:     0.8131      Z:     0.0558     Total:     2.0834

  Quadrupole Moment: (Debye Ang)
    XX:   -31.5223     YY:   -29.8706     ZZ:   -29.2858
    XY:    -5.2221     XZ:    -0.2811     YZ:    -0.2633

  Traceless Quadrupole Moment: (Debye Ang)
    XX:    -1.2960     YY:     0.3556     ZZ:     0.9404
    XY:    -5.2221     XZ:    -0.2811     YZ:    -0.2633

  Mulliken Charges: (a.u.)
   Center  Symbol    Alpha    Beta     Spin     Total
       1     H     0.41136  0.41136  0.00000  0.17729
       2     C     2.72664  2.72664  0.00000  0.54672
       3     O     4.29208  4.29208  0.00000 -0.58415
       4     O     4.26421  4.26421  0.00000 -0.52843
       5     C     3.01429  3.01429  0.00000 -0.02859
       6     C     3.25026  3.25026  0.00000 -0.50052
       7     H     0.40883  0.40883  0.00000  0.18234
       8     H     0.39717  0.39717  0.00000  0.20567
       9     H     0.41139  0.41139  0.00000  0.17721
      10     H     0.41612  0.41612  0.00000  0.16777
      11     H     0.40766  0.40766  0.00000  0.18469

   Total alpha = 20.00000, Total beta = 20.00000, Total charge = -0.00000


*** PSI4 exiting successfully. Buy a developer a beer!
