    -----------------------------------------------------------------------
          Psi4: An Open-Source Ab Initio Electronic Structure Package
                              Psi4 (no tag) Driver

                          Git: Rev {detached?}  

    J. M. Turney, A. C. Simmonett, R. M. Parrish, E. G. Hohenstein,
    F. A. Evangelista, J. T. Fermann, B. J. Mintz, L. A. Burns, J. J. Wilke,
    M. L. Abrams, N. J. Russ, M. L. Leininger, C. L. Janssen, E. T. Seidl,
    W. D. Allen, H. F. Schaefer, R. A. King, E. F. Valeev, C. D. Sherrill,
    and T. D. Crawford, WIREs Comput. Mol. Sci. 2, 556-565 (2012)
    (doi: 10.1002/wcms.93)

                         Additional Contributions by
    A. E. DePrince, M. Saitow, U. Bozkaya, A. Yu. Sokolov
    -----------------------------------------------------------------------


    Psi4 started on: Fri Sep  9 21:16:11 2016

    Process ID:  17844
    PSI4DATADIR: /export131/home/mjharvey/miniconda3/share
    Memory level set to 256.000 MB

  ==> Input File <==

--------------------------------------------------------------------------
set {
	reference rhf
	basis cc-pvtz
}


set_num_threads( 4 )
memory 2 gb

molecule MOL {
0 1

O	 -0.694481	 1.313155	 -0.204815
C	 -0.862519	 0.151932	 -0.046791
C	 -2.171428	 -0.477048	 0.339095
O	 0.085519	 -0.757083	 -0.192238
H	 -2.467997	 -1.191667	 -0.417688
H	 -2.923379	 0.287970	 0.444097
H	 -2.053854	 -1.015120	 1.270901
C	 1.392036	 -0.330828	 -0.560749
C	 2.104186	 0.349999	 0.589562
H	 1.324653	 0.321661	 -1.417214
H	 1.904429	 -1.236690	 -0.848184
H	 3.116613	 0.599966	 0.292983
H	 1.597712	 1.262811	 0.871771
H	 2.153693	 -0.305477	 1.450663

	symmetry c1
}
set optking {
	frozen_dihedral = ("
		10 8 4 2
	")
}

ee = optimize('scf')
oeprop('DIPOLE', 'QUADRUPOLE', 'MULLIKEN_CHARGES')
f=open( 'psi4out.xyz', 'w' )
f.write( "14  " )
f.write( str(ee) + "\n" )
f.write( MOL.save_string_xyz() )
f.close()
--------------------------------------------------------------------------

  Memory set to   2.000 GiB by Python script.
gradient() will perform analytic gradient computation.

*** tstart() called on cx1-27-2-4
*** at Fri Sep  9 21:16:12 2016


         ---------------------------------------------------------
                                   SCF
            by Justin Turney, Rob Parrish, and Andy Simmonett
                              RHF Reference
                        4 Threads,   2000 MiB Core
         ---------------------------------------------------------

  ==> Geometry <==

    Molecular point group: c1
    Full point group: C1

    Geometry (in Angstrom), charge = 0, multiplicity = 1:

       Center              X                  Y                   Z               Mass       
    ------------   -----------------  -----------------  -----------------  -----------------
           O         -0.677214307446     1.268449258529    -0.195306966696    15.994914619560
           C         -0.845252307446     0.107226258529    -0.037282966696    12.000000000000
           C         -2.154161307446    -0.521753741471     0.348603033304    12.000000000000
           O          0.102785692554    -0.801788741471    -0.182729966696    15.994914619560
           H         -2.450730307446    -1.236372741471    -0.408179966696     1.007825032070
           H         -2.906112307446     0.243264258529     0.453605033304     1.007825032070
           H         -2.036587307446    -1.059825741471     1.280409033304     1.007825032070
           C          1.409302692554    -0.375533741471    -0.551240966696    12.000000000000
           C          2.121452692554     0.305293258529     0.599070033304    12.000000000000
           H          1.341919692554     0.276955258529    -1.407705966696     1.007825032070
           H          1.921695692554    -1.281395741471    -0.838675966696     1.007825032070
           H          3.133879692554     0.555260258529     0.302491033304     1.007825032070
           H          1.614978692554     1.218105258529     0.881279033304     1.007825032070
           H          2.170959692554    -0.350182741471     1.460171033304     1.007825032070

  Running in c1 symmetry.

  Rotational constants: A =      0.25229  B =      0.08045  C =      0.07027 [cm^-1]
  Rotational constants: A =   7563.39224  B =   2411.95523  C =   2106.74436 [MHz]
  Nuclear repulsion =  250.240308396887059

  Charge       = 0
  Multiplicity = 1
  Electrons    = 48
  Nalpha       = 24
  Nbeta        = 24

  ==> Algorithm <==

  SCF Algorithm Type is DF.
  DIIS enabled.
  MOM disabled.
  Fractional occupation disabled.
  Guess Type is CORE.
  Energy threshold   = 1.00e-08
  Density threshold  = 1.00e-08
  Integral threshold = 0.00e+00

  ==> Primary Basis <==

  Basis Set: CC-PVTZ
    Number of shells: 108
    Number of basis function: 292
    Number of Cartesian functions: 330
    Spherical Harmonics?: true
    Max angular momentum: 3

  ==> Pre-Iterations <==

   -------------------------------------------------------
    Irrep   Nso     Nmo     Nalpha   Nbeta   Ndocc  Nsocc
   -------------------------------------------------------
     A        292     292       0       0       0       0
   -------------------------------------------------------
    Total     292     292      24      24      24       0
   -------------------------------------------------------

 OEINTS: Overlap, kinetic, potential, dipole, and quadrupole integrals
         stored in file 35.

  ==> Integral Setup <==

  ==> DFJK: Density-Fitted J/K Matrices <==

    J tasked:                  Yes
    K tasked:                  Yes
    wK tasked:                  No
    OpenMP threads:              4
    Integrals threads:           4
    Memory (MB):              1430
    Algorithm:                Core
    Integral Cache:           NONE
    Schwarz Cutoff:          1E-12
    Fitting Condition:       1E-12

   => Auxiliary Basis Set <=

  Basis Set: 
    Number of shells: 230
    Number of basis function: 714
    Number of Cartesian functions: 856
    Spherical Harmonics?: true
    Max angular momentum: 4

  Minimum eigenvalue in the overlap matrix is 6.3920063526E-04.
  Using Symmetric Orthogonalization.
  SCF Guess: Core (One-Electron) Hamiltonian.

  ==> Iterations <==

                           Total Energy        Delta E     RMS |[F,P]|

   @DF-RHF iter   1:  -190.63535181028644   -1.90635e+02   5.60215e-02 
   @DF-RHF iter   2:  -203.62341861550541   -1.29881e+01   3.21413e-02 DIIS
   @DF-RHF iter   3:  -258.84551060310673   -5.52221e+01   2.74071e-02 DIIS
   @DF-RHF iter   4:  -300.58129927751224   -4.17358e+01   9.42155e-03 DIIS
   @DF-RHF iter   5:  -304.83762371721116   -4.25632e+00   5.44562e-03 DIIS
   @DF-RHF iter   6:  -305.89528550561204   -1.05766e+00   1.50900e-03 DIIS
   @DF-RHF iter   7:  -305.96588158323027   -7.05961e-02   7.54315e-04 DIIS
   @DF-RHF iter   8:  -305.98776918281101   -2.18876e-02   2.24291e-04 DIIS
   @DF-RHF iter   9:  -305.99028484358291   -2.51566e-03   5.95032e-05 DIIS
   @DF-RHF iter  10:  -305.99044678743962   -1.61944e-04   2.47916e-05 DIIS
   @DF-RHF iter  11:  -305.99048293586418   -3.61484e-05   7.92322e-06 DIIS
   @DF-RHF iter  12:  -305.99048998445380   -7.04859e-06   3.25161e-06 DIIS
   @DF-RHF iter  13:  -305.99049088466700   -9.00213e-07   1.02187e-06 DIIS
   @DF-RHF iter  14:  -305.99049100614309   -1.21476e-07   3.59055e-07 DIIS
   @DF-RHF iter  15:  -305.99049102216736   -1.60243e-08   9.46276e-08 DIIS
   @DF-RHF iter  16:  -305.99049102309448   -9.27116e-10   2.44274e-08 DIIS
   @DF-RHF iter  17:  -305.99049102315712   -6.26414e-11   7.61076e-09 DIIS

  ==> Post-Iterations <==

    Orbital Energies (a.u.)
    -----------------------

    Doubly Occupied:                                                      

       1A    -20.594475     2A    -20.533272     3A    -11.368115  
       4A    -11.284089     5A    -11.231622     6A    -11.213986  
       7A     -1.470914     8A     -1.366101     9A     -1.055633  
      10A     -0.998502    11A     -0.884979    12A     -0.764324  
      13A     -0.701777    14A     -0.685959    15A     -0.661531  
      16A     -0.611470    17A     -0.588394    18A     -0.570903  
      19A     -0.557951    20A     -0.531551    21A     -0.515843  
      22A     -0.495632    23A     -0.455065    24A     -0.440842  

    Virtual:                                                              

      25A      0.140599    26A      0.158358    27A      0.178254  
      28A      0.191118    29A      0.200557    30A      0.215703  
      31A      0.226207    32A      0.234398    33A      0.252363  
      34A      0.286567    35A      0.291967    36A      0.320355  
      37A      0.367351    38A      0.374306    39A      0.390965  
      40A      0.398355    41A      0.421750    42A      0.424480  
      43A      0.472800    44A      0.496761    45A      0.538154  
      46A      0.553470    47A      0.589400    48A      0.594619  
      49A      0.606117    50A      0.618941    51A      0.624078  
      52A      0.631672    53A      0.635067    54A      0.645932  
      55A      0.658848    56A      0.662191    57A      0.675061  
      58A      0.701731    59A      0.730326    60A      0.750628  
      61A      0.776959    62A      0.788667    63A      0.821010  
      64A      0.827374    65A      0.857253    66A      0.895884  
      67A      0.916194    68A      0.927531    69A      0.960559  
      70A      0.975416    71A      1.013207    72A      1.026742  
      73A      1.032157    74A      1.071956    75A      1.075698  
      76A      1.099009    77A      1.140822    78A      1.163509  
      79A      1.176556    80A      1.198800    81A      1.212533  
      82A      1.226770    83A      1.242093    84A      1.255105  
      85A      1.276818    86A      1.299718    87A      1.303308  
      88A      1.336899    89A      1.349461    90A      1.356326  
      91A      1.360713    92A      1.395975    93A      1.408067  
      94A      1.445452    95A      1.461036    96A      1.489157  
      97A      1.496583    98A      1.516864    99A      1.523992  
     100A      1.532302   101A      1.551657   102A      1.577599  
     103A      1.599424   104A      1.629365   105A      1.639752  
     106A      1.708969   107A      1.731713   108A      1.740081  
     109A      1.760964   110A      1.811965   111A      1.828503  
     112A      1.879783   113A      1.892548   114A      1.906874  
     115A      1.972894   116A      2.052769   117A      2.143397  
     118A      2.219391   119A      2.259652   120A      2.297358  
     121A      2.379180   122A      2.403263   123A      2.482438  
     124A      2.502551   125A      2.537354   126A      2.553301  
     127A      2.614254   128A      2.641325   129A      2.675169  
     130A      2.695187   131A      2.735225   132A      2.741067  
     133A      2.779662   134A      2.818367   135A      2.843973  
     136A      2.863281   137A      2.888240   138A      2.904853  
     139A      2.914467   140A      2.933065   141A      2.962730  
     142A      3.033741   143A      3.090328   144A      3.097054  
     145A      3.099884   146A      3.111585   147A      3.122509  
     148A      3.137116   149A      3.170599   150A      3.222839  
     151A      3.229704   152A      3.236020   153A      3.270332  
     154A      3.280281   155A      3.304326   156A      3.312932  
     157A      3.335266   158A      3.356180   159A      3.371193  
     160A      3.376957   161A      3.403546   162A      3.420142  
     163A      3.425782   164A      3.430961   165A      3.451075  
     166A      3.476865   167A      3.495486   168A      3.544621  
     169A      3.563767   170A      3.577409   171A      3.608255  
     172A      3.616206   173A      3.625313   174A      3.660020  
     175A      3.670741   176A      3.683976   177A      3.736774  
     178A      3.745369   179A      3.752478   180A      3.775389  
     181A      3.778752   182A      3.809005   183A      3.834596  
     184A      3.851353   185A      3.863443   186A      3.881871  
     187A      3.896412   188A      3.920331   189A      3.936829  
     190A      3.962509   191A      4.055266   192A      4.064378  
     193A      4.084989   194A      4.107483   195A      4.135971  
     196A      4.154539   197A      4.178849   198A      4.186421  
     199A      4.206060   200A      4.209365   201A      4.214371  
     202A      4.239514   203A      4.271810   204A      4.311948  
     205A      4.323140   206A      4.380344   207A      4.383636  
     208A      4.392066   209A      4.393663   210A      4.401470  
     211A      4.415886   212A      4.436873   213A      4.446939  
     214A      4.490802   215A      4.559896   216A      4.573538  
     217A      4.593951   218A      4.600686   219A      4.626132  
     220A      4.643601   221A      4.682114   222A      4.685564  
     223A      4.714036   224A      4.771051   225A      4.802294  
     226A      4.811302   227A      4.895601   228A      4.957172  
     229A      5.006953   230A      5.070475   231A      5.134662  
     232A      5.152151   233A      5.190865   234A      5.227133  
     235A      5.235664   236A      5.258078   237A      5.283047  
     238A      5.318205   239A      5.327915   240A      5.403304  
     241A      5.431258   242A      5.450868   243A      5.517838  
     244A      5.526149   245A      5.550000   246A      5.579695  
     247A      5.615136   248A      5.629317   249A      5.638524  
     250A      5.659418   251A      5.688783   252A      5.707348  
     253A      5.718413   254A      5.730719   255A      5.752853  
     256A      5.793763   257A      5.823557   258A      5.872159  
     259A      5.903386   260A      5.922252   261A      6.021592  
     262A      6.030212   263A      6.173240   264A      6.202781  
     265A      6.214733   266A      6.239362   267A      6.292258  
     268A      6.328198   269A      6.398686   270A      6.598612  
     271A      6.611917   272A      6.689457   273A      6.852039  
     274A      6.863157   275A      6.884920   276A      6.928285  
     277A      7.020058   278A      7.240033   279A      7.258730  
     280A      7.380405   281A      7.480714   282A      7.516701  
     283A      7.575387   284A      7.705290   285A      7.906982  
     286A      8.002552   287A      9.996318   288A     12.173833  
     289A     13.411170   290A     14.189832   291A     14.367317  
     292A     14.472346  

    Final Occupation by Irrep:
              A 
    DOCC [    24 ]

  Energy converged.

  @DF-RHF Final Energy:  -305.99049102315712

   => Energetics <=

    Nuclear Repulsion Energy =            250.2403083968870590
    One-Electron Energy =                -913.2957375299201885
    Two-Electron Energy =                 357.0649381098761523
    DFT Exchange-Correlation Energy =       0.0000000000000000
    Empirical Dispersion Energy =           0.0000000000000000
    PCM Polarization Energy =               0.0000000000000000
    EFP Energy =                            0.0000000000000000
    Total Energy =                       -305.9904910231570057

    Alert: EFP and PCM quantities not currently incorporated into SCF psivars.

Properties will be evaluated at   0.000000,   0.000000,   0.000000 Bohr
  ==> Properties <==


Properties computed using the SCF density matrix

  Nuclear Dipole Moment: (a.u.)
     X:     2.6128      Y:    -1.5298      Z:     1.6138

  Electronic Dipole Moment: (a.u.)
     X:    -2.4538      Y:     0.7703      Z:    -1.5379

  Dipole Moment: (a.u.)
     X:     0.1589      Y:    -0.7595      Z:     0.0759     Total:     0.7796

  Dipole Moment: (Debye)
     X:     0.4040      Y:    -1.9304      Z:     0.1928     Total:     1.9816


  Saving occupied orbitals to File 180.

*** tstop() called on cx1-27-2-4 at Fri Sep  9 21:16:22 2016
Module time:
	user time   =      30.57 seconds =       0.51 minutes
	system time =       0.52 seconds =       0.01 minutes
	total time  =         10 seconds =       0.17 minutes
Total time:
	user time   =      30.57 seconds =       0.51 minutes
	system time =       0.52 seconds =       0.01 minutes
	total time  =         10 seconds =       0.17 minutes

*** tstart() called on cx1-27-2-4
*** at Fri Sep  9 21:16:22 2016


         ------------------------------------------------------------
                                   SCF GRAD                          
                          Rob Parrish, Justin Turney,                
                       Andy Simmonett, and Alex Sokolov              
         ------------------------------------------------------------

  ==> Geometry <==

    Molecular point group: c1
    Full point group: C1

    Geometry (in Angstrom), charge = 0, multiplicity = 1:

       Center              X                  Y                   Z               Mass       
    ------------   -----------------  -----------------  -----------------  -----------------
           O         -0.677214307446     1.268449258529    -0.195306966696    15.994914619560
           C         -0.845252307446     0.107226258529    -0.037282966696    12.000000000000
           C         -2.154161307446    -0.521753741471     0.348603033304    12.000000000000
           O          0.102785692554    -0.801788741471    -0.182729966696    15.994914619560
           H         -2.450730307446    -1.236372741471    -0.408179966696     1.007825032070
           H         -2.906112307446     0.243264258529     0.453605033304     1.007825032070
           H         -2.036587307446    -1.059825741471     1.280409033304     1.007825032070
           C          1.409302692554    -0.375533741471    -0.551240966696    12.000000000000
           C          2.121452692554     0.305293258529     0.599070033304    12.000000000000
           H          1.341919692554     0.276955258529    -1.407705966696     1.007825032070
           H          1.921695692554    -1.281395741471    -0.838675966696     1.007825032070
           H          3.133879692554     0.555260258529     0.302491033304     1.007825032070
           H          1.614978692554     1.218105258529     0.881279033304     1.007825032070
           H          2.170959692554    -0.350182741471     1.460171033304     1.007825032070

  Nuclear repulsion =  250.240308396887059

  ==> Basis Set <==

  Basis Set: CC-PVTZ
    Number of shells: 108
    Number of basis function: 292
    Number of Cartesian functions: 330
    Spherical Harmonics?: true
    Max angular momentum: 3

  ==> DFJKGrad: Density-Fitted SCF Gradients <==

    Gradient:                    1
    J tasked:                  Yes
    K tasked:                  Yes
    wK tasked:                  No
    OpenMP threads:              4
    Integrals threads:           4
    Memory (MB):              1430
    Schwarz Cutoff:          0E+00
    Fitting Condition:       1E-12

   => Auxiliary Basis Set <=

  Basis Set: 
    Number of shells: 230
    Number of basis function: 714
    Number of Cartesian functions: 856
    Spherical Harmonics?: true
    Max angular momentum: 4


  -Total Gradient:
     Atom            X                  Y                   Z
    ------   -----------------  -----------------  -----------------
       1        0.000847199260     0.000042304235     0.001338024543
       2        0.000193925893     0.000785171477     0.000589802548
       3       -0.000045656428     0.000006265956    -0.000133719467
       4        0.000628985134     0.000678097765     0.000234587377
       5       -0.000006003162    -0.000026036198    -0.000003100957
       6       -0.000008762403     0.000001722096     0.000004561207
       7        0.000033392382     0.000008770968     0.000003665670
       8        0.000491724363    -0.001242626895    -0.002930478580
       9       -0.001706520230    -0.001571379543    -0.000441731931
      10        0.000364083186    -0.000758870275     0.000655696496
      11        0.000802981146    -0.000063524345     0.000352798710
      12       -0.000261912866     0.000404532099    -0.000051928207
      13       -0.001121551372     0.001261599065     0.000305442837
      14       -0.000211884903     0.000473973598     0.000076379754


*** tstop() called on cx1-27-2-4 at Fri Sep  9 21:16:37 2016
Module time:
	user time   =      59.48 seconds =       0.99 minutes
	system time =       0.62 seconds =       0.01 minutes
	total time  =         15 seconds =       0.25 minutes
Total time:
	user time   =      90.07 seconds =       1.50 minutes
	system time =       1.14 seconds =       0.02 minutes
	total time  =         25 seconds =       0.42 minutes
CURRENT ENERGY: -305.9904910232

			-----------------------------------------
			 OPTKING 2.0: for geometry optimizations 
			  - R.A. King,  Bethel University        
			-----------------------------------------

	Internal coordinates to be generated automatically.
	Detected frag with atoms:  1 2 3 4 5 6 7 8 9 10 11 12 13 14
	---Fragment 1 Bond Connectivity---
	 1 : 2
	 2 : 1 3 4
	 3 : 2 5 6 7
	 4 : 2 8
	 5 : 3
	 6 : 3
	 7 : 3
	 8 : 4 9 10 11
	 9 : 8 12 13 14
	 10 : 8
	 11 : 8
	 12 : 9
	 13 : 9
	 14 : 9

	Assuming in current code that numbering for constraints corresponds to unified fragment.
	Frozen dihedral atom list: 
	    10     8     4     2
	---Fragment 1 Geometry and Gradient---
	 O          -1.2797495743        2.3970217121       -0.3690766789
	 C          -1.5972953743        0.2026282629       -0.0704545965
	 C          -4.0707749171       -0.9859716802        0.6587642620
	 O           0.1942368093       -1.5151611378       -0.3453095933
	 H          -4.6312091066       -2.3364058795       -0.7713483500
	 H          -5.4917563725        0.4597028265        0.8571892854
	 H          -3.8485922568       -2.0027804000        2.4196224110
	 C           2.6631961273       -0.7096559250       -1.0416944603
	 C           4.0089645928        0.5769206488        1.1320782974
	 H           2.5358607113        0.5233695897       -2.6601787527
	 H           3.6314785697       -2.4214870192       -1.5848678913
	 H           5.9221743523        1.0492898211        0.5716252106
	 H           3.0518674394        2.3018853396        1.6653760196
	 H           4.1025192645       -0.6617494778        2.7593233601
	             0.0008471993        0.0000423042        0.0013380245
	             0.0001939259        0.0007851715        0.0005898025
	            -0.0000456564        0.0000062660       -0.0001337195
	             0.0006289851        0.0006780978        0.0002345874
	            -0.0000060032       -0.0000260362       -0.0000031010
	            -0.0000087624        0.0000017221        0.0000045612
	             0.0000333924        0.0000087710        0.0000036657
	             0.0004917244       -0.0012426269       -0.0029304786
	            -0.0017065202       -0.0015713795       -0.0004417319
	             0.0003640832       -0.0007588703        0.0006556965
	             0.0008029811       -0.0000635243        0.0003527987
	            -0.0002619129        0.0004045321       -0.0000519282
	            -0.0011215514        0.0012615991        0.0003054428
	            -0.0002118849        0.0004739736        0.0000763798

	Previous optimization step data not found.  Starting new optimization.

	---Fragment 1 Intrafragment Coordinates---
	 - Coordinate -           - BOHR/RAD -       - ANG/DEG -
	 R(1,2)           =         2.237269	       1.183912
	 R(2,3)           =         2.839477	       1.502587
	 R(2,4)           =         2.497185	       1.321454
	 R(3,5)           =         2.045234	       1.082291
	 R(3,6)           =         2.036795	       1.077826
	 R(3,7)           =         2.045455	       1.082408
	 R(4,8)           =         2.688782	       1.422842
	 R(8,9)           =         2.862108	       1.514562
	 R(8,10)          =         2.038641	       1.078803
	 R(8,11)          =         2.040337	       1.079700
	 R(9,12)          =         2.048807	       1.084182
	 R(9,13)          =         2.043513	       1.081380
	 R(9,14)          =         2.047189	       1.083326
	 B(1,2,3)         =         2.175471	     124.645300
	 B(1,2,4)         =         2.162998	     123.930676
	 B(2,3,5)         =         1.912951	     109.604019
	 B(2,3,6)         =         1.913078	     109.611285
	 B(2,3,7)         =         1.911922	     109.545085
	 B(2,4,8)         =         2.072815	     118.763547
	 B(3,2,4)         =         1.944714	     111.423881
	 B(4,8,9)         =         1.949504	     111.698332
	 B(4,8,10)        =         1.906526	     109.235869
	 B(4,8,11)        =         1.826963	     104.677298
	 B(5,3,6)         =         1.923679	     110.218691
	 B(5,3,7)         =         1.879145	     107.667063
	 B(6,3,7)         =         1.922770	     110.166612
	 B(8,9,12)        =         1.912360	     109.570151
	 B(8,9,13)        =         1.936314	     110.942616
	 B(8,9,14)        =         1.931790	     110.683417
	 B(9,8,10)        =         1.939554	     111.128276
	 B(9,8,11)        =         1.934988	     110.866644
	 B(10,8,11)       =         1.902588	     109.010271
	 B(12,9,13)       =         1.890338	     108.308410
	 B(12,9,14)       =         1.890477	     108.316361
	 B(13,9,14)       =         1.901498	     108.947815
	 D(1,2,3,5)       =         2.116818	     121.284744
	 D(1,2,3,6)       =         0.003420	       0.195969
	 D(1,2,3,7)       =        -2.108208	    -120.791416
	 D(1,2,4,8)       =        -0.000120	      -0.006890
	 D(2,4,8,9)       =         1.280177	      73.348739
	*D(2,4,8,10)      =        -0.872664	     -49.999975
	 D(2,4,8,11)      =        -2.908022	    -166.617410
	 D(3,2,4,8)       =         3.139166	     179.860983
	 D(4,2,3,5)       =        -1.022449	     -58.582000
	 D(4,2,3,6)       =        -3.135847	    -179.670775
	 D(4,2,3,7)       =         1.035710	      59.341840
	 D(4,8,9,12)      =         3.075362	     176.205269
	 D(4,8,9,13)      =        -1.121461	     -64.254975
	 D(4,8,9,14)      =         0.991647	      56.817163
	 D(10,8,9,12)     =        -1.073815	     -61.525060
	 D(10,8,9,13)     =         1.012547	      58.014696
	 D(10,8,9,14)     =         3.125655	     179.086834
	 D(11,8,9,12)     =         1.045042	      59.876479
	 D(11,8,9,13)     =         3.131404	     179.416235
	 D(11,8,9,14)     =        -1.038674	     -59.511626
	 R(1,9)           =         5.791091	       3.064513

	Current energy   :      -305.9904910232

	Generating empirical Hessian (Schlegel '84) for each fragment.
	Taking RFO optimization step.
	Going to follow RFO solution 1.
	Using RFO vector 1.
	Norm of target step-size    0.15577
	Projected energy change by RFO approximation:        -0.0007491003

	Back-transformation to cartesian coordinates...
	Successfully converged to displaced geometry.

	Back-transformation to cartesian coordinates to adjust frozen coordinates...
	Successfully converged to displaced geometry.

	--- Internal Coordinate Step in ANG or DEG, aJ/ANG or AJ/DEG ---
	 ---------------------------------------------------------------------------
	   Coordinate                Previous        Force       Change         New 
	   ----------                --------       ------       ------       ------
	    1 R(1,2)          =      1.183912    -0.002926    -0.000180     1.183732
	    2 R(2,3)          =      1.502587     0.000046     0.000009     1.502596
	    3 R(2,4)          =      1.321454    -0.012388    -0.001381     1.320072
	    4 R(3,5)          =      1.082291    -0.000173    -0.000031     1.082260
	    5 R(3,6)          =      1.077826    -0.000064    -0.000011     1.077814
	    6 R(3,7)          =      1.082408    -0.000020    -0.000004     1.082405
	    7 R(4,8)          =      1.422842     0.002050     0.000211     1.423053
	    8 R(8,9)          =      1.514562     0.004415     0.000818     1.515380
	    9 R(8,10)         =      1.078803     0.008258     0.001465     1.080268
	   10 R(8,11)         =      1.079700    -0.002805    -0.000499     1.079201
	   11 R(9,12)         =      1.084182     0.001130     0.000204     1.084386
	   12 R(9,13)         =      1.081380    -0.013758    -0.002462     1.078918
	   13 R(9,14)         =      1.083326     0.001942     0.000350     1.083676
	   14 B(1,2,3)        =    124.645300     0.000056     0.176602   124.821902
	   15 B(1,2,4)        =    123.930676    -0.000116    -0.393074   123.537602
	   16 B(2,3,5)        =    109.604019    -0.000002    -0.009219   109.594800
	   17 B(2,3,6)        =    109.611285    -0.000001    -0.008402   109.602883
	   18 B(2,3,7)        =    109.545085     0.000005     0.025020   109.570105
	   19 B(2,4,8)        =    118.763547    -0.000121    -0.436206   118.327342
	   20 B(3,2,4)        =    111.423881     0.000060     0.186773   111.610653
	   21 B(4,8,9)        =    111.698332     0.000310     1.237070   112.935402
	   22 B(4,8,10)       =    109.235869    -0.000122    -0.092713   109.143156
	   23 B(4,8,11)       =    104.677298    -0.000143    -0.979726   103.697572
	   24 B(5,3,6)        =    110.218691     0.000000    -0.006585   110.212106
	   25 B(5,3,7)        =    107.667063    -0.000001     0.001167   107.668230
	   26 B(6,3,7)        =    110.166612    -0.000001    -0.001606   110.165006
	   27 B(8,9,12)       =    109.570151    -0.000015    -0.132400   109.437751
	   28 B(8,9,13)       =    110.942616     0.000056     0.368169   111.310785
	   29 B(8,9,14)       =    110.683417    -0.000040    -0.234082   110.449336
	   30 B(9,8,10)       =    111.128276    -0.000002     0.763790   111.892066
	   31 B(9,8,11)       =    110.866644    -0.000061    -0.345011   110.521633
	   32 B(10,8,11)      =    109.010271     0.000004    -0.758227   108.252044
	   33 B(12,9,13)      =    108.308410    -0.000006     0.068978   108.377388
	   34 B(12,9,14)      =    108.316361    -0.000003    -0.229304   108.087058
	   35 B(13,9,14)      =    108.947815     0.000008     0.149747   109.097562
	   36 D(1,2,3,5)      =    121.284744    -0.000003    -0.954458   120.330286
	   37 D(1,2,3,6)      =      0.195969    -0.000002    -0.935217    -0.739249
	   38 D(1,2,3,7)      =   -120.791416    -0.000002    -0.943692  -121.735108
	   39 D(1,2,4,8)      =     -0.006890     0.000016     3.639258     3.632368
	   40 D(2,4,8,9)      =     73.348739     0.000028     1.782357    75.131096
	   41 *D(2,4,8,10)    =    -49.999975    -0.000000     0.000000   -49.999975
	   42 D(2,4,8,11)     =   -166.617410     0.000029     1.413594  -165.203816
	   43 D(3,2,4,8)      =    179.860983     0.000012     1.868139   181.729121
	   44 D(4,2,3,5)      =    -58.582000     0.000002     0.844738   -57.737262
	   45 D(4,2,3,6)      =   -179.670775     0.000002     0.863979  -178.806797
	   46 D(4,2,3,7)      =     59.341840     0.000002     0.855504    60.197344
	   47 D(4,8,9,12)     =    176.205269    -0.000012    -1.809901   174.395368
	   48 D(4,8,9,13)     =    -64.254975    -0.000008    -1.578726   -65.833702
	   49 D(4,8,9,14)     =     56.817163    -0.000003    -1.300449    55.516714
	   50 D(10,8,9,12)    =    -61.525060     0.000002    -0.452311   -61.977371
	   51 D(10,8,9,13)    =     58.014696     0.000006    -0.221136    57.793559
	   52 D(10,8,9,14)    =    179.086834     0.000011     0.057141   179.143975
	   53 D(11,8,9,12)    =     59.876479    -0.000007    -1.135157    58.741322
	   54 D(11,8,9,13)    =    179.416235    -0.000002    -0.903983   178.512253
	   55 D(11,8,9,14)    =    -59.511626     0.000002    -0.625705   -60.137331
	   56 R(1,9)          =      3.064513     0.014371     0.056973     3.121487
	 ---------------------------------------------------------------------------

  ==> Convergence Check <==

  Measures of convergence in internal coordinates in au.
  Criteria marked as inactive (o), active & met (*), and active & unmet ( ).
  --------------------------------------------------------------------------------------------- ~
   Step     Total Energy     Delta E     MAX Force     RMS Force      MAX Disp      RMS Disp    ~
  --------------------------------------------------------------------------------------------- ~
    Convergence Criteria    1.00e-06 *    3.00e-04 *             o    1.20e-03 *             o  ~
  --------------------------------------------------------------------------------------------- ~
      1    -305.99049102   -3.06e+02      4.08e-03      9.28e-04 o    1.08e-01      2.08e-02 o  ~
  ---------------------------------------------------------------------------------------------

	Writing optimization data to binary file.
	Structure for next step:
	Cartesian Geometry (in Angstrom)
	    O    -0.7020200334   1.2584572389  -0.2680189158
	    C    -0.8567714773   0.1042128435  -0.0559006041
	    C    -2.1576195554  -0.5258684529   0.3546921913
	    O     0.0977931291  -0.7970869556  -0.1939438192
	    H    -2.4488606559  -1.2674546265  -0.3777800089
	    H    -2.9173238859   0.2341861456   0.4374589641
	    H    -2.0317511455  -1.0324452023   1.3029205825
	    C     1.4026964278  -0.3503943447  -0.5443335417
	    C     2.1349375048   0.2992377203   0.6124630847
	    H     1.3344507831   0.3076508090  -1.3983226591
	    H     1.9075843352  -1.2530093532  -0.8526325210
	    H     3.1519616435   0.5273922274   0.3132956361
	    H     1.6551075653   1.2172304248   0.9143188177
	    H     2.1767322703  -0.3744079810   1.4602883899
			--------------------------
			 OPTKING Finished Execution 
			--------------------------

    Structure for next step:
    Molecular point group: c1
    Full point group: C1

    Geometry (in Angstrom), charge = 0, multiplicity = 1:

    O           -0.695937085981     1.257865061954    -0.254704417317
    C           -0.850688518030     0.103620754628    -0.042586121816
    C           -2.151536496785    -0.526460493655     0.368006642239
    O            0.103876015440    -0.797678975623    -0.180629326347
    H           -2.442777575046    -1.268046610652    -0.364465502081
    H           -2.911240769322     0.233594046830     0.450773408657
    H           -2.025668096491    -1.033037204391     1.316234961043
    C            1.408779214482    -0.350986398816    -0.531019022175
    C            2.141020235650     0.298645616560     0.625777515920
    H            1.340533575012     0.307058704573    -1.385008074337
    H            1.913667083339    -1.253601338384    -0.839317977935
    H            3.158044296600     0.526800106190     0.326610090132
    H            1.661190332713     1.216638250986     0.927633225832
    H            2.182814997932    -0.375000033307     1.473602756352

gradient() will perform analytic gradient computation.

*** tstart() called on cx1-27-2-4
*** at Fri Sep  9 21:16:38 2016


         ---------------------------------------------------------
                                   SCF
            by Justin Turney, Rob Parrish, and Andy Simmonett
                              RHF Reference
                        4 Threads,   2000 MiB Core
         ---------------------------------------------------------

  ==> Geometry <==

    Molecular point group: c1
    Full point group: C1

    Geometry (in Angstrom), charge = 0, multiplicity = 1:

       Center              X                  Y                   Z               Mass       
    ------------   -----------------  -----------------  -----------------  -----------------
           O         -0.695937085981     1.257865061954    -0.254704417317    15.994914619560
           C         -0.850688518030     0.103620754628    -0.042586121816    12.000000000000
           C         -2.151536496785    -0.526460493655     0.368006642239    12.000000000000
           O          0.103876015440    -0.797678975623    -0.180629326347    15.994914619560
           H         -2.442777575046    -1.268046610652    -0.364465502081     1.007825032070
           H         -2.911240769322     0.233594046830     0.450773408657     1.007825032070
           H         -2.025668096491    -1.033037204391     1.316234961043     1.007825032070
           C          1.408779214482    -0.350986398816    -0.531019022175    12.000000000000
           C          2.141020235650     0.298645616560     0.625777515920    12.000000000000
           H          1.340533575012     0.307058704573    -1.385008074337     1.007825032070
           H          1.913667083339    -1.253601338384    -0.839317977935     1.007825032070
           H          3.158044296600     0.526800106190     0.326610090132     1.007825032070
           H          1.661190332713     1.216638250986     0.927633225832     1.007825032070
           H          2.182814997932    -0.375000033307     1.473602756352     1.007825032070

  Running in c1 symmetry.

  Rotational constants: A =      0.25206  B =      0.07947  C =      0.07005 [cm^-1]
  Rotational constants: A =   7556.54706  B =   2382.56479  C =   2100.18342 [MHz]
  Nuclear repulsion =  249.913079214052033

  Charge       = 0
  Multiplicity = 1
  Electrons    = 48
  Nalpha       = 24
  Nbeta        = 24

  ==> Algorithm <==

  SCF Algorithm Type is DF.
  DIIS enabled.
  MOM disabled.
  Fractional occupation disabled.
  Guess Type is READ.
  Energy threshold   = 1.00e-08
  Density threshold  = 1.00e-08
  Integral threshold = 0.00e+00

  ==> Primary Basis <==

  Basis Set: CC-PVTZ
    Number of shells: 108
    Number of basis function: 292
    Number of Cartesian functions: 330
    Spherical Harmonics?: true
    Max angular momentum: 3

  ==> Pre-Iterations <==

   -------------------------------------------------------
    Irrep   Nso     Nmo     Nalpha   Nbeta   Ndocc  Nsocc
   -------------------------------------------------------
     A        292     292       0       0       0       0
   -------------------------------------------------------
    Total     292     292      24      24      24       0
   -------------------------------------------------------

 OEINTS: Overlap, kinetic, potential, dipole, and quadrupole integrals
         stored in file 35.

  ==> Integral Setup <==

  ==> DFJK: Density-Fitted J/K Matrices <==

    J tasked:                  Yes
    K tasked:                  Yes
    wK tasked:                  No
    OpenMP threads:              4
    Integrals threads:           4
    Memory (MB):              1430
    Algorithm:                Core
    Integral Cache:           NONE
    Schwarz Cutoff:          1E-12
    Fitting Condition:       1E-12

   => Auxiliary Basis Set <=

  Basis Set: 
    Number of shells: 230
    Number of basis function: 714
    Number of Cartesian functions: 856
    Spherical Harmonics?: true
    Max angular momentum: 4

  Minimum eigenvalue in the overlap matrix is 6.4348412898E-04.
  Using Symmetric Orthogonalization.
  SCF Guess: Reading in previously saved MOs, projecting if necessary.

  Using orbitals from previous SCF, no projection.
  Recomputing DOCC and SOCC from number of alpha and beta electrons from previous calculation.
              A 
    DOCC [    24 ]

  ==> Iterations <==

                           Total Energy        Delta E     RMS |[F,P]|

   @DF-RHF iter   0:  -305.98466015565657   -3.05985e+02   3.90980e-04 
   @DF-RHF iter   1:  -305.99042630641770   -5.76615e-03   5.38541e-05 
   @DF-RHF iter   2:  -305.99063932463241   -2.13018e-04   2.04688e-05 DIIS
   @DF-RHF iter   3:  -305.99067155473961   -3.22301e-05   1.06919e-05 DIIS
   @DF-RHF iter   4:  -305.99067790838706   -6.35365e-06   3.19444e-06 DIIS
   @DF-RHF iter   5:  -305.99067881674705   -9.08360e-07   1.44679e-06 DIIS
   @DF-RHF iter   6:  -305.99067907419180   -2.57445e-07   3.55230e-07 DIIS
   @DF-RHF iter   7:  -305.99067909135442   -1.71626e-08   9.73636e-08 DIIS
   @DF-RHF iter   8:  -305.99067909272060   -1.36617e-09   4.24082e-08 DIIS
   @DF-RHF iter   9:  -305.99067909297901   -2.58410e-10   2.03363e-08 DIIS
   @DF-RHF iter  10:  -305.99067909305040   -7.13953e-11   7.30876e-09 DIIS

  ==> Post-Iterations <==

    Orbital Energies (a.u.)
    -----------------------

    Doubly Occupied:                                                      

       1A    -20.594496     2A    -20.532734     3A    -11.367470  
       4A    -11.283557     5A    -11.231858     6A    -11.215845  
       7A     -1.471575     8A     -1.365415     9A     -1.055440  
      10A     -0.999320    11A     -0.885687    12A     -0.763771  
      13A     -0.701472    14A     -0.685586    15A     -0.662002  
      16A     -0.611150    17A     -0.588461    18A     -0.571328  
      19A     -0.558556    20A     -0.530524    21A     -0.517946  
      22A     -0.494539    23A     -0.455597    24A     -0.441253  

    Virtual:                                                              

      25A      0.140333    26A      0.158082    27A      0.177952  
      28A      0.192090    29A      0.200983    30A      0.215508  
      31A      0.225723    32A      0.233613    33A      0.249891  
      34A      0.287055    35A      0.292831    36A      0.320125  
      37A      0.366205    38A      0.374787    39A      0.390901  
      40A      0.398283    41A      0.421369    42A      0.424791  
      43A      0.470698    44A      0.495069    45A      0.539815  
      46A      0.553743    47A      0.589715    48A      0.594000  
      49A      0.606447    50A      0.619167    51A      0.624339  
      52A      0.631409    53A      0.635205    54A      0.645099  
      55A      0.659263    56A      0.663550    57A      0.673240  
      58A      0.702711    59A      0.730386    60A      0.750468  
      61A      0.775529    62A      0.789091    63A      0.817469  
      64A      0.826659    65A      0.858228    66A      0.894869  
      67A      0.913881    68A      0.926066    69A      0.964950  
      70A      0.975959    71A      1.011764    72A      1.029020  
      73A      1.029111    74A      1.063919    75A      1.072980  
      76A      1.096848    77A      1.140606    78A      1.164108  
      79A      1.177742    80A      1.199002    81A      1.209652  
      82A      1.229786    83A      1.242259    84A      1.257017  
      85A      1.275629    86A      1.296502    87A      1.302331  
      88A      1.334847    89A      1.349648    90A      1.357482  
      91A      1.362893    92A      1.391929    93A      1.409101  
      94A      1.439956    95A      1.461517    96A      1.489440  
      97A      1.494879    98A      1.517022    99A      1.524746  
     100A      1.533514   101A      1.552717   102A      1.575892  
     103A      1.604167   104A      1.624681   105A      1.637528  
     106A      1.708358   107A      1.732153   108A      1.738771  
     109A      1.759334   110A      1.814811   111A      1.825957  
     112A      1.868463   113A      1.896179   114A      1.907579  
     115A      1.974507   116A      2.056097   117A      2.147004  
     118A      2.221639   119A      2.262067   120A      2.293637  
     121A      2.378291   122A      2.395941   123A      2.485467  
     124A      2.508173   125A      2.532234   126A      2.551541  
     127A      2.607484   128A      2.645282   129A      2.673427  
     130A      2.691298   131A      2.729499   132A      2.737990  
     133A      2.776505   134A      2.813146   135A      2.843025  
     136A      2.861879   137A      2.892070   138A      2.901495  
     139A      2.914614   140A      2.936535   141A      2.962626  
     142A      3.033040   143A      3.088807   144A      3.094680  
     145A      3.098946   146A      3.110315   147A      3.120521  
     148A      3.139625   149A      3.170474   150A      3.218222  
     151A      3.225148   152A      3.234682   153A      3.273509  
     154A      3.280197   155A      3.300633   156A      3.310068  
     157A      3.334141   158A      3.355489   159A      3.369104  
     160A      3.377561   161A      3.401239   162A      3.418812  
     163A      3.427720   164A      3.433647   165A      3.453319  
     166A      3.475656   167A      3.496920   168A      3.543163  
     169A      3.561142   170A      3.575276   171A      3.608897  
     172A      3.619212   173A      3.627353   174A      3.658972  
     175A      3.672530   176A      3.680842   177A      3.734331  
     178A      3.748242   179A      3.750482   180A      3.771018  
     181A      3.776265   182A      3.807056   183A      3.835830  
     184A      3.850976   185A      3.862056   186A      3.879116  
     187A      3.896212   188A      3.918701   189A      3.936666  
     190A      3.961090   191A      4.053927   192A      4.061945  
     193A      4.077866   194A      4.107587   195A      4.138053  
     196A      4.153847   197A      4.176596   198A      4.187231  
     199A      4.205068   200A      4.207393   201A      4.216567  
     202A      4.238890   203A      4.269551   204A      4.312830  
     205A      4.324669   206A      4.378351   207A      4.382768  
     208A      4.389158   209A      4.393842   210A      4.401879  
     211A      4.418245   212A      4.437242   213A      4.448188  
     214A      4.492472   215A      4.554065   216A      4.573033  
     217A      4.592700   218A      4.598788   219A      4.623672  
     220A      4.640293   221A      4.678321   222A      4.686869  
     223A      4.717741   224A      4.773989   225A      4.796316  
     226A      4.808283   227A      4.893638   228A      4.958130  
     229A      5.003125   230A      5.070888   231A      5.140722  
     232A      5.153054   233A      5.188650   234A      5.227191  
     235A      5.234785   236A      5.256448   237A      5.280059  
     238A      5.316865   239A      5.328271   240A      5.406357  
     241A      5.431291   242A      5.456035   243A      5.516348  
     244A      5.525462   245A      5.550973   246A      5.579557  
     247A      5.615200   248A      5.626379   249A      5.636165  
     250A      5.657961   251A      5.689741   252A      5.704788  
     253A      5.719022   254A      5.731467   255A      5.754157  
     256A      5.792221   257A      5.828542   258A      5.873505  
     259A      5.891255   260A      5.923822   261A      6.023367  
     262A      6.032473   263A      6.171229   264A      6.203782  
     265A      6.214084   266A      6.238259   267A      6.291478  
     268A      6.333441   269A      6.397490   270A      6.589230  
     271A      6.624382   272A      6.693032   273A      6.850699  
     274A      6.867924   275A      6.884145   276A      6.924136  
     277A      7.021021   278A      7.242742   279A      7.257526  
     280A      7.381065   281A      7.483962   282A      7.515495  
     283A      7.573958   284A      7.704464   285A      7.903766  
     286A      8.003104   287A      9.991734   288A     12.184318  
     289A     13.376709   290A     14.200087   291A     14.364544  
     292A     14.451717  

    Final Occupation by Irrep:
              A 
    DOCC [    24 ]

  Energy converged.

  @DF-RHF Final Energy:  -305.99067909305040

   => Energetics <=

    Nuclear Repulsion Energy =            249.9130792140520327
    One-Electron Energy =                -912.6363534313314858
    Two-Electron Energy =                 356.7325951242291922
    DFT Exchange-Correlation Energy =       0.0000000000000000
    Empirical Dispersion Energy =           0.0000000000000000
    PCM Polarization Energy =               0.0000000000000000
    EFP Energy =                            0.0000000000000000
    Total Energy =                       -305.9906790930502893

    Alert: EFP and PCM quantities not currently incorporated into SCF psivars.

Properties will be evaluated at   0.000000,   0.000000,   0.000000 Bohr
  ==> Properties <==


Properties computed using the SCF density matrix

  Nuclear Dipole Moment: (a.u.)
     X:     2.6938      Y:    -1.5405      Z:     1.7848

  Electronic Dipole Moment: (a.u.)
     X:    -2.5179      Y:     0.7896      Z:    -1.6476

  Dipole Moment: (a.u.)
     X:     0.1759      Y:    -0.7508      Z:     0.1372     Total:     0.7833

  Dipole Moment: (Debye)
     X:     0.4471      Y:    -1.9085      Z:     0.3486     Total:     1.9909


  Saving occupied orbitals to File 180.

*** tstop() called on cx1-27-2-4 at Fri Sep  9 21:16:46 2016
Module time:
	user time   =      26.86 seconds =       0.45 minutes
	system time =       0.46 seconds =       0.01 minutes
	total time  =          8 seconds =       0.13 minutes
Total time:
	user time   =     118.17 seconds =       1.97 minutes
	system time =       1.64 seconds =       0.03 minutes
	total time  =         34 seconds =       0.57 minutes

*** tstart() called on cx1-27-2-4
*** at Fri Sep  9 21:16:46 2016


         ------------------------------------------------------------
                                   SCF GRAD                          
                          Rob Parrish, Justin Turney,                
                       Andy Simmonett, and Alex Sokolov              
         ------------------------------------------------------------

  ==> Geometry <==

    Molecular point group: c1
    Full point group: C1

    Geometry (in Angstrom), charge = 0, multiplicity = 1:

       Center              X                  Y                   Z               Mass       
    ------------   -----------------  -----------------  -----------------  -----------------
           O         -0.695937085981     1.257865061954    -0.254704417317    15.994914619560
           C         -0.850688518030     0.103620754628    -0.042586121816    12.000000000000
           C         -2.151536496785    -0.526460493655     0.368006642239    12.000000000000
           O          0.103876015440    -0.797678975623    -0.180629326347    15.994914619560
           H         -2.442777575046    -1.268046610652    -0.364465502081     1.007825032070
           H         -2.911240769322     0.233594046830     0.450773408657     1.007825032070
           H         -2.025668096491    -1.033037204391     1.316234961043     1.007825032070
           C          1.408779214482    -0.350986398816    -0.531019022175    12.000000000000
           C          2.141020235650     0.298645616560     0.625777515920    12.000000000000
           H          1.340533575012     0.307058704573    -1.385008074337     1.007825032070
           H          1.913667083339    -1.253601338384    -0.839317977935     1.007825032070
           H          3.158044296600     0.526800106190     0.326610090132     1.007825032070
           H          1.661190332713     1.216638250986     0.927633225832     1.007825032070
           H          2.182814997932    -0.375000033307     1.473602756352     1.007825032070

  Nuclear repulsion =  249.913079214052033

  ==> Basis Set <==

  Basis Set: CC-PVTZ
    Number of shells: 108
    Number of basis function: 292
    Number of Cartesian functions: 330
    Spherical Harmonics?: true
    Max angular momentum: 3

  ==> DFJKGrad: Density-Fitted SCF Gradients <==

    Gradient:                    1
    J tasked:                  Yes
    K tasked:                  Yes
    wK tasked:                  No
    OpenMP threads:              4
    Integrals threads:           4
    Memory (MB):              1430
    Schwarz Cutoff:          0E+00
    Fitting Condition:       1E-12

   => Auxiliary Basis Set <=

  Basis Set: 
    Number of shells: 230
    Number of basis function: 714
    Number of Cartesian functions: 856
    Spherical Harmonics?: true
    Max angular momentum: 4


  -Total Gradient:
     Atom            X                  Y                   Z
    ------   -----------------  -----------------  -----------------
       1        0.001108537766    -0.001432994472    -0.001828323023
       2        0.001634385669     0.000730086897     0.006053262277
       3       -0.000423693177    -0.000388997129    -0.001315535958
       4       -0.001317252468    -0.001044340366    -0.004692034290
       5       -0.000232406213    -0.000112604477     0.000102628342
       6        0.000015250368     0.000007492085    -0.000019688150
       7        0.000194009172     0.000092433477    -0.000062082432
       8       -0.000879838408     0.003213001079     0.003148842483
       9        0.000120017157     0.000822024426     0.000088094383
      10        0.000159525243    -0.001463508307    -0.001595164827
      11       -0.000985655243     0.000050368612     0.000119301230
      12        0.000283315365     0.000160524876     0.000369313799
      13        0.000273536774    -0.000598233466    -0.000328343519
      14        0.000050267994    -0.000035253235    -0.000040270314


*** tstop() called on cx1-27-2-4 at Fri Sep  9 21:17:02 2016
Module time:
	user time   =      60.61 seconds =       1.01 minutes
	system time =       0.73 seconds =       0.01 minutes
	total time  =         16 seconds =       0.27 minutes
Total time:
	user time   =     178.80 seconds =       2.98 minutes
	system time =       2.37 seconds =       0.04 minutes
	total time  =         50 seconds =       0.83 minutes
CURRENT ENERGY: -305.9906790931

			-----------------------------------------
			 OPTKING 2.0: for geometry optimizations 
			  - R.A. King,  Bethel University        
			-----------------------------------------

	Previous internal coordinate definitions found.
	---Fragment 1 Geometry and Gradient---
	 O          -1.3151304982        2.3770204792       -0.4813215936
	 C          -1.6075683235        0.1958148479       -0.0804761073
	 C          -4.0658147438       -0.9948661528        0.6954317689
	 O           0.1962972210       -1.5073948059       -0.3413399584
	 H          -4.6161806204       -2.3962608179       -0.6887399838
	 H          -5.5014477609        0.4414287748        0.8518382903
	 H          -3.8279579385       -1.9521574014        2.4873236029
	 C           2.6622068971       -0.6632681701       -1.0034805233
	 C           4.0459418903        0.5643584261        1.1825481252
	 H           2.5332413287        0.5802568584       -2.6172859523
	 H           3.6163066970       -2.3689632094       -1.5860811167
	 H           5.9678388361        0.9955079275        0.6172036226
	 H           3.1391947834        2.2991130972        1.7529727486
	 H           4.1249225448       -0.7086473628        2.7847056382
	             0.0011085378       -0.0014329945       -0.0018283230
	             0.0016343857        0.0007300869        0.0060532623
	            -0.0004236932       -0.0003889971       -0.0013155360
	            -0.0013172525       -0.0010443404       -0.0046920343
	            -0.0002324062       -0.0001126045        0.0001026283
	             0.0000152504        0.0000074921       -0.0000196882
	             0.0001940092        0.0000924335       -0.0000620824
	            -0.0008798384        0.0032130011        0.0031488425
	             0.0001200172        0.0008220244        0.0000880944
	             0.0001595252       -0.0014635083       -0.0015951648
	            -0.0009856552        0.0000503686        0.0001193012
	             0.0002833154        0.0001605249        0.0003693138
	             0.0002735368       -0.0005982335       -0.0003283435
	             0.0000502680       -0.0000352532       -0.0000402703

	---Fragment 1 Intrafragment Coordinates---
	 - Coordinate -           - BOHR/RAD -       - ANG/DEG -
	 R(1,2)           =         2.236930	       1.183732
	 R(2,3)           =         2.839495	       1.502596
	 R(2,4)           =         2.494575	       1.320072
	 R(3,5)           =         2.045175	       1.082260
	 R(3,6)           =         2.036774	       1.077814
	 R(3,7)           =         2.045448	       1.082405
	 R(4,8)           =         2.689180	       1.423053
	 R(8,9)           =         2.863653	       1.515380
	 R(8,10)          =         2.041410	       1.080268
	 R(8,11)          =         2.039393	       1.079201
	 R(9,12)          =         2.049193	       1.084386
	 R(9,13)          =         2.038860	       1.078918
	 R(9,14)          =         2.047850	       1.083676
	 B(1,2,3)         =         2.178553	     124.821902
	 B(1,2,4)         =         2.156138	     123.537602
	 B(2,3,5)         =         1.912790	     109.594800
	 B(2,3,6)         =         1.912931	     109.602883
	 B(2,3,7)         =         1.912359	     109.570105
	 B(2,4,8)         =         2.065202	     118.327342
	 B(3,2,4)         =         1.947973	     111.610653
	 B(4,8,9)         =         1.971095	     112.935402
	 B(4,8,10)        =         1.904907	     109.143156
	 B(4,8,11)        =         1.809864	     103.697572
	 B(5,3,6)         =         1.923564	     110.212106
	 B(5,3,7)         =         1.879165	     107.668230
	 B(6,3,7)         =         1.922742	     110.165006
	 B(8,9,12)        =         1.910049	     109.437751
	 B(8,9,13)        =         1.942740	     111.310785
	 B(8,9,14)        =         1.927705	     110.449336
	 B(9,8,10)        =         1.952885	     111.892066
	 B(9,8,11)        =         1.928966	     110.521633
	 B(10,8,11)       =         1.889355	     108.252044
	 B(12,9,13)       =         1.891542	     108.377388
	 B(12,9,14)       =         1.886475	     108.087058
	 B(13,9,14)       =         1.904112	     109.097562
	 D(1,2,3,5)       =         2.100160	     120.330286
	 D(1,2,3,6)       =        -0.012902	      -0.739249
	 D(1,2,3,7)       =        -2.124678	    -121.735108
	 D(1,2,4,8)       =         0.063397	       3.632368
	 D(2,4,8,9)       =         1.311285	      75.131096
	*D(2,4,8,10)      =        -0.872664	     -49.999975
	 D(2,4,8,11)      =        -2.883351	    -165.203816
	 D(3,2,4,8)       =        -3.111414	    -178.270879
	 D(4,2,3,5)       =        -1.007705	     -57.737262
	 D(4,2,3,6)       =        -3.120767	    -178.806797
	 D(4,2,3,7)       =         1.050642	      60.197344
	 D(4,8,9,12)      =         3.043773	     174.395368
	 D(4,8,9,13)      =        -1.149015	     -65.833702
	 D(4,8,9,14)      =         0.968949	      55.516714
	 D(10,8,9,12)     =        -1.081709	     -61.977371
	 D(10,8,9,13)     =         1.008688	      57.793559
	 D(10,8,9,14)     =         3.126652	     179.143975
	 D(11,8,9,12)     =         1.025229	      58.741322
	 D(11,8,9,13)     =         3.115627	     178.512253
	 D(11,8,9,14)     =        -1.049594	     -60.137331
	 R(1,9)           =         5.898754	       3.121487

	Current energy   :      -305.9906790931

	Energy change for the previous step:
		Projected    :        -0.0007491003
		Actual       :        -0.0001880699

	Performing BFGS update.
	Previous computed or guess Hessian on step 1.
	Steps to be used in Hessian update: 1
	Taking RFO optimization step.
	Going to follow RFO solution 1.
	Using RFO vector 1.
	Norm of target step-size    0.19201
	Projected energy change by RFO approximation:         0.0000423992

	Back-transformation to cartesian coordinates...
	Successfully converged to displaced geometry.

	Back-transformation to cartesian coordinates to adjust frozen coordinates...
	Successfully converged to displaced geometry.

	--- Internal Coordinate Step in ANG or DEG, aJ/ANG or AJ/DEG ---
	 ---------------------------------------------------------------------------
	   Coordinate                Previous        Force       Change         New 
	   ----------                --------       ------       ------       ------
	    1 R(1,2)          =      1.183732     0.005904     0.000266     1.183999
	    2 R(2,3)          =      1.502596    -0.001660    -0.000239     1.502356
	    3 R(2,4)          =      1.320072     0.011161     0.000799     1.320871
	    4 R(3,5)          =      1.082260    -0.000579    -0.000095     1.082165
	    5 R(3,6)          =      1.077814     0.000057     0.000001     1.077815
	    6 R(3,7)          =      1.082405     0.000619     0.000080     1.082485
	    7 R(4,8)          =      1.423053     0.000465     0.001013     1.424066
	    8 R(8,9)          =      1.515380    -0.008560    -0.000039     1.515341
	    9 R(8,10)         =      1.080268    -0.002961     0.000486     1.080753
	   10 R(8,11)         =      1.079201     0.004427     0.000285     1.079485
	   11 R(9,12)         =      1.084386    -0.001628    -0.000096     1.084291
	   12 R(9,13)         =      1.078918     0.005953    -0.000681     1.078237
	   13 R(9,14)         =      1.083676     0.000063     0.000217     1.083893
	   14 B(1,2,3)        =    124.821902    -0.000060    -0.221733   124.600169
	   15 B(1,2,4)        =    123.537602     0.000099     0.199185   123.736787
	   16 B(2,3,5)        =    109.594800    -0.000036    -0.144404   109.450397
	   17 B(2,3,6)        =    109.602883     0.000003     0.007535   109.610418
	   18 B(2,3,7)        =    109.570105     0.000030     0.130955   109.701060
	   19 B(2,4,8)        =    118.327342     0.000079     0.487301   118.814642
	   20 B(3,2,4)        =    111.610653    -0.000035    -0.162199   111.448455
	   21 B(4,8,9)        =    112.935402    -0.000141     0.662210   113.597612
	   22 B(4,8,10)       =    109.143156     0.000045    -0.080288   109.062868
	   23 B(4,8,11)       =    103.697572     0.000097    -0.273095   103.424477
	   24 B(5,3,6)        =    110.212106     0.000009     0.001091   110.213197
	   25 B(5,3,7)        =    107.668230     0.000003     0.007664   107.675894
	   26 B(6,3,7)        =    110.165006    -0.000008    -0.003029   110.161977
	   27 B(8,9,12)       =    109.437751    -0.000053    -0.277943   109.159808
	   28 B(8,9,13)       =    111.310785     0.000021     0.298753   111.609537
	   29 B(8,9,14)       =    110.449336     0.000008    -0.104078   110.345258
	   30 B(9,8,10)       =    111.892066     0.000008     0.488671   112.380737
	   31 B(9,8,11)       =    110.521633     0.000009    -0.401329   110.120303
	   32 B(10,8,11)      =    108.252044    -0.000006    -0.513108   107.738936
	   33 B(12,9,13)      =    108.377388     0.000014     0.072100   108.449487
	   34 B(12,9,14)      =    108.087058     0.000020    -0.083911   108.003147
	   35 B(13,9,14)      =    109.097562    -0.000009     0.086877   109.184439
	   36 D(1,2,3,5)      =    120.330286     0.000014     3.419397   123.749683
	   37 D(1,2,3,6)      =     -0.739249     0.000016     3.504144     2.764895
	   38 D(1,2,3,7)      =   -121.735108     0.000014     3.420573  -118.314535
	   39 D(1,2,4,8)      =      3.632368    -0.000023    -1.916903     1.715465
	   40 D(2,4,8,9)      =     75.131096    -0.000013     1.066007    76.197103
	   41 *D(2,4,8,10)    =    -49.999975    -0.000000     0.000000   -49.999975
	   42 D(2,4,8,11)     =   -165.203816    -0.000014     0.754252  -164.449564
	   43 D(3,2,4,8)      =   -178.270879     0.000006     5.098523  -173.172356
	   44 D(4,2,3,5)      =    -57.737262    -0.000016    -3.677937   -61.415199
	   45 D(4,2,3,6)      =   -178.806797    -0.000014    -3.593190  -182.399987
	   46 D(4,2,3,7)      =     60.197344    -0.000016    -3.676760    56.520584
	   47 D(4,8,9,12)     =    174.395368     0.000006    -0.851553   173.543815
	   48 D(4,8,9,13)     =    -65.833702     0.000005    -0.755614   -66.589316
	   49 D(4,8,9,14)     =     55.516714     0.000007    -0.514824    55.001890
	   50 D(10,8,9,12)    =    -61.977371    -0.000003    -0.054103   -62.031474
	   51 D(10,8,9,13)    =     57.793559    -0.000004     0.041835    57.835394
	   52 D(10,8,9,14)    =    179.143975    -0.000002     0.282625   179.426600
	   53 D(11,8,9,12)    =     58.741322    -0.000003    -0.655606    58.085717
	   54 D(11,8,9,13)    =    178.512253    -0.000003    -0.559668   177.952585
	   55 D(11,8,9,14)    =    -60.137331    -0.000002    -0.318877   -60.456209
	   56 R(1,9)          =      3.121487     0.007411     0.028558     3.150044
	 ---------------------------------------------------------------------------

  ==> Convergence Check <==

  Measures of convergence in internal coordinates in au.
  Criteria marked as inactive (o), active & met (*), and active & unmet ( ).
  ---------------------------------------------------------------------------------------------
   Step     Total Energy     Delta E     MAX Force     RMS Force      MAX Disp      RMS Disp   
  ---------------------------------------------------------------------------------------------
    Convergence Criteria    1.00e-06 *    3.00e-04 *             o    1.20e-03 *             o
  ---------------------------------------------------------------------------------------------
      2    -305.99067909   -1.88e-04      1.86e-03      6.47e-04 o    8.90e-02      2.56e-02 o  ~
  ---------------------------------------------------------------------------------------------

	Writing optimization data to binary file.
	Structure for next step:
	Cartesian Geometry (in Angstrom)
	    O    -0.7183892573   1.2622815051  -0.2909930319
	    C    -0.8704473444   0.1014361348  -0.1144448858
	    C    -2.1434141338  -0.5272137130   0.3769102226
	    O     0.0981873789  -0.7900765360  -0.2223917596
	    H    -2.4720300608  -1.2765322453  -0.3313369080
	    H    -2.8998397092   0.2315849943   0.4940874064
	    H    -1.9639833687  -1.0242066519   1.3216724504
	    C     1.4130592435  -0.3406564187  -0.5339960846
	    C     2.1311358046   0.2943362893   0.6396342642
	    H     1.3679890762   0.3146028733  -1.3922684788
	    H     1.9215807282  -1.2437037800  -0.8359885711
	    H     3.1567808682   0.5047497116   0.3577394114
	    H     1.6630254059   1.2184529754   0.9387590803
	    H     2.1484227945  -0.3856437790   1.4835251871
			--------------------------
			 OPTKING Finished Execution 
			--------------------------

    Structure for next step:
    Molecular point group: c1
    Full point group: C1

    Geometry (in Angstrom), charge = 0, multiplicity = 1:

    O           -0.711447166280     1.259850870951    -0.271207289256
    C           -0.863505241733     0.099005589268    -0.094659156699
    C           -2.136471933883    -0.529644210568     0.396695914218
    O            0.105129407625    -0.792507013416    -0.202606022231
    H           -2.465087835808    -1.278962685594    -0.311551162336
    H           -2.892897451543     0.229154438798     0.513873089103
    H           -1.957041182518    -1.026637111445     1.341458069849
    C            1.420001171807    -0.343086930456    -0.514210323394
    C            2.138077678038     0.291905729061     0.659419935779
    H            1.374931007886     0.312172311531    -1.372482652106
    H            1.928522617642    -1.246134222772    -0.816202786900
    H            3.163722663316     0.502319135311     0.377525104477
    H            1.669967315062     1.216022344619     0.958544728963
    H            2.155364666649    -0.388074287361     1.503310794245

gradient() will perform analytic gradient computation.

*** tstart() called on cx1-27-2-4
*** at Fri Sep  9 21:17:03 2016


         ---------------------------------------------------------
                                   SCF
            by Justin Turney, Rob Parrish, and Andy Simmonett
                              RHF Reference
                        4 Threads,   2000 MiB Core
         ---------------------------------------------------------

  ==> Geometry <==

    Molecular point group: c1
    Full point group: C1

    Geometry (in Angstrom), charge = 0, multiplicity = 1:

       Center              X                  Y                   Z               Mass       
    ------------   -----------------  -----------------  -----------------  -----------------
           O         -0.711447166280     1.259850870951    -0.271207289256    15.994914619560
           C         -0.863505241733     0.099005589268    -0.094659156699    12.000000000000
           C         -2.136471933883    -0.529644210568     0.396695914218    12.000000000000
           O          0.105129407625    -0.792507013416    -0.202606022231    15.994914619560
           H         -2.465087835808    -1.278962685594    -0.311551162336     1.007825032070
           H         -2.892897451543     0.229154438798     0.513873089103     1.007825032070
           H         -1.957041182518    -1.026637111445     1.341458069849     1.007825032070
           C          1.420001171807    -0.343086930456    -0.514210323394    12.000000000000
           C          2.138077678038     0.291905729061     0.659419935779    12.000000000000
           H          1.374931007886     0.312172311531    -1.372482652106     1.007825032070
           H          1.928522617642    -1.246134222772    -0.816202786900     1.007825032070
           H          3.163722663316     0.502319135311     0.377525104477     1.007825032070
           H          1.669967315062     1.216022344619     0.958544728963     1.007825032070
           H          2.155364666649    -0.388074287361     1.503310794245     1.007825032070

  Running in c1 symmetry.

  Rotational constants: A =      0.24834  B =      0.07911  C =      0.07012 [cm^-1]
  Rotational constants: A =   7444.99402  B =   2371.51496  C =   2102.28735 [MHz]
  Nuclear repulsion =  249.570152149191529

  Charge       = 0
  Multiplicity = 1
  Electrons    = 48
  Nalpha       = 24
  Nbeta        = 24

  ==> Algorithm <==

  SCF Algorithm Type is DF.
  DIIS enabled.
  MOM disabled.
  Fractional occupation disabled.
  Guess Type is READ.
  Energy threshold   = 1.00e-08
  Density threshold  = 1.00e-08
  Integral threshold = 0.00e+00

  ==> Primary Basis <==

  Basis Set: CC-PVTZ
    Number of shells: 108
    Number of basis function: 292
    Number of Cartesian functions: 330
    Spherical Harmonics?: true
    Max angular momentum: 3

  ==> Pre-Iterations <==

   -------------------------------------------------------
    Irrep   Nso     Nmo     Nalpha   Nbeta   Ndocc  Nsocc
   -------------------------------------------------------
     A        292     292       0       0       0       0
   -------------------------------------------------------
    Total     292     292      24      24      24       0
   -------------------------------------------------------

 OEINTS: Overlap, kinetic, potential, dipole, and quadrupole integrals
         stored in file 35.

  ==> Integral Setup <==

  ==> DFJK: Density-Fitted J/K Matrices <==

    J tasked:                  Yes
    K tasked:                  Yes
    wK tasked:                  No
    OpenMP threads:              4
    Integrals threads:           4
    Memory (MB):              1430
    Algorithm:                Core
    Integral Cache:           NONE
    Schwarz Cutoff:          1E-12
    Fitting Condition:       1E-12

   => Auxiliary Basis Set <=

  Basis Set: 
    Number of shells: 230
    Number of basis function: 714
    Number of Cartesian functions: 856
    Spherical Harmonics?: true
    Max angular momentum: 4

  Minimum eigenvalue in the overlap matrix is 6.6049662911E-04.
  Using Symmetric Orthogonalization.
  SCF Guess: Reading in previously saved MOs, projecting if necessary.

  Using orbitals from previous SCF, no projection.
  Recomputing DOCC and SOCC from number of alpha and beta electrons from previous calculation.
              A 
    DOCC [    24 ]

  ==> Iterations <==

                           Total Energy        Delta E     RMS |[F,P]|

   @DF-RHF iter   0:  -305.98048547297452   -3.05980e+02   3.45507e-04 
   @DF-RHF iter   1:  -305.98972960420787   -9.24413e-03   5.61563e-05 
   @DF-RHF iter   2:  -305.98995932818360   -2.29724e-04   2.00581e-05 DIIS
   @DF-RHF iter   3:  -305.98999047794763   -3.11498e-05   9.55190e-06 DIIS
   @DF-RHF iter   4:  -305.98999462037938   -4.14243e-06   2.35207e-06 DIIS
   @DF-RHF iter   5:  -305.98999491114085   -2.90761e-07   8.75951e-07 DIIS
   @DF-RHF iter   6:  -305.98999497691938   -6.57785e-08   2.67503e-07 DIIS
   @DF-RHF iter   7:  -305.98999498599136   -9.07198e-09   1.13780e-07 DIIS
   @DF-RHF iter   8:  -305.98999498719553   -1.20417e-09   3.85006e-08 DIIS
   @DF-RHF iter   9:  -305.98999498741097   -2.15437e-10   1.26919e-08 DIIS
   @DF-RHF iter  10:  -305.98999498743382   -2.28511e-11   5.69235e-09 DIIS

  ==> Post-Iterations <==

    Orbital Energies (a.u.)
    -----------------------

    Doubly Occupied:                                                      

       1A    -20.594269     2A    -20.532904     3A    -11.367540  
       4A    -11.284093     5A    -11.231583     6A    -11.216675  
       7A     -1.470477     8A     -1.365251     9A     -1.055452  
      10A     -0.999677    11A     -0.885887    12A     -0.763573  
      13A     -0.700666    14A     -0.685093    15A     -0.661881  
      16A     -0.611602    17A     -0.588967    18A     -0.571275  
      19A     -0.557739    20A     -0.529753    21A     -0.519747  
      22A     -0.493833    23A     -0.455676    24A     -0.440990  

    Virtual:                                                              

      25A      0.138797    26A      0.159071    27A      0.177931  
      28A      0.191193    29A      0.200933    30A      0.215513  
      31A      0.225409    32A      0.233251    33A      0.249895  
      34A      0.286833    35A      0.293691    36A      0.319547  
      37A      0.364878    38A      0.375649    39A      0.389935  
      40A      0.399003    41A      0.420681    42A      0.426091  
      43A      0.468699    44A      0.493791    45A      0.539881  
      46A      0.551620    47A      0.590161    48A      0.592777  
      49A      0.606148    50A      0.620432    51A      0.623813  
      52A      0.631004    53A      0.635271    54A      0.641175  
      55A      0.659733    56A      0.665859    57A      0.674537  
      58A      0.691389    59A      0.731511    60A      0.750379  
      61A      0.776003    62A      0.790046    63A      0.818736  
      64A      0.822667    65A      0.852281    66A      0.899438  
      67A      0.914800    68A      0.931081    69A      0.947096  
      70A      0.979106    71A      1.012130    72A      1.024775  
      73A      1.043792    74A      1.060890    75A      1.073250  
      76A      1.096030    77A      1.137832    78A      1.163470  
      79A      1.178398    80A      1.199054    81A      1.207302  
      82A      1.231156    83A      1.242509    84A      1.258025  
      85A      1.272020    86A      1.298009    87A      1.300605  
      88A      1.334554    89A      1.346702    90A      1.355864  
      91A      1.359465    92A      1.390671    93A      1.410542  
      94A      1.434425    95A      1.465200    96A      1.489605  
      97A      1.495595    98A      1.518380    99A      1.526415  
     100A      1.533162   101A      1.555533   102A      1.574627  
     103A      1.603466   104A      1.624863   105A      1.633958  
     106A      1.705385   107A      1.731297   108A      1.740503  
     109A      1.755253   110A      1.815644   111A      1.824511  
     112A      1.862979   113A      1.884710   114A      1.911690  
     115A      1.972149   116A      2.053637   117A      2.143559  
     118A      2.221377   119A      2.260660   120A      2.292468  
     121A      2.377221   122A      2.395565   123A      2.480632  
     124A      2.512054   125A      2.529628   126A      2.549787  
     127A      2.607654   128A      2.640973   129A      2.668858  
     130A      2.684310   131A      2.726005   132A      2.744845  
     133A      2.773367   134A      2.810059   135A      2.845344  
     136A      2.862917   137A      2.891307   138A      2.899570  
     139A      2.915389   140A      2.934093   141A      2.963262  
     142A      3.033682   143A      3.088817   144A      3.095512  
     145A      3.097980   146A      3.109472   147A      3.117513  
     148A      3.142198   149A      3.165684   150A      3.216055  
     151A      3.224420   152A      3.234537   153A      3.271162  
     154A      3.275678   155A      3.294682   156A      3.311024  
     157A      3.340034   158A      3.357902   159A      3.365704  
     160A      3.383549   161A      3.388850   162A      3.416448  
     163A      3.426195   164A      3.433737   165A      3.446864  
     166A      3.481842   167A      3.497266   168A      3.542299  
     169A      3.559150   170A      3.572909   171A      3.608528  
     172A      3.619024   173A      3.625045   174A      3.657869  
     175A      3.671598   176A      3.681265   177A      3.734345  
     178A      3.747155   179A      3.751514   180A      3.770822  
     181A      3.777091   182A      3.808208   183A      3.834939  
     184A      3.852360   185A      3.860621   186A      3.877965  
     187A      3.891845   188A      3.918096   189A      3.938284  
     190A      3.964787   191A      4.055549   192A      4.061650  
     193A      4.073702   194A      4.110226   195A      4.138933  
     196A      4.154336   197A      4.172745   198A      4.187550  
     199A      4.196674   200A      4.209995   201A      4.219103  
     202A      4.237598   203A      4.266760   204A      4.314682  
     205A      4.325035   206A      4.375654   207A      4.381964  
     208A      4.386730   209A      4.393606   210A      4.401254  
     211A      4.417830   212A      4.436720   213A      4.447872  
     214A      4.493472   215A      4.549563   216A      4.573971  
     217A      4.592191   218A      4.599092   219A      4.626482  
     220A      4.640005   221A      4.675021   222A      4.681144  
     223A      4.721448   224A      4.776660   225A      4.792544  
     226A      4.801543   227A      4.891962   228A      4.956438  
     229A      4.999868   230A      5.067116   231A      5.142248  
     232A      5.153401   233A      5.185940   234A      5.224375  
     235A      5.232518   236A      5.255695   237A      5.277970  
     238A      5.315055   239A      5.326403   240A      5.405849  
     241A      5.426322   242A      5.460969   243A      5.513377  
     244A      5.526462   245A      5.550237   246A      5.579855  
     247A      5.614529   248A      5.628086   249A      5.630659  
     250A      5.662357   251A      5.689087   252A      5.706389  
     253A      5.715515   254A      5.729475   255A      5.751390  
     256A      5.787487   257A      5.829746   258A      5.876960  
     259A      5.886472   260A      5.925696   261A      6.010379  
     262A      6.031087   263A      6.168861   264A      6.201284  
     265A      6.216988   266A      6.239182   267A      6.290611  
     268A      6.334408   269A      6.395293   270A      6.591312  
     271A      6.618272   272A      6.689668   273A      6.853016  
     274A      6.858646   275A      6.896039   276A      6.920277  
     277A      7.017225   278A      7.235734   279A      7.257150  
     280A      7.381422   281A      7.479125   282A      7.516552  
     283A      7.573299   284A      7.702181   285A      7.904375  
     286A      8.002238   287A      9.981892   288A     12.160819  
     289A     13.347053   290A     14.213948   291A     14.356919  
     292A     14.432093  

    Final Occupation by Irrep:
              A 
    DOCC [    24 ]

  Energy converged.

  @DF-RHF Final Energy:  -305.98999498743382

   => Energetics <=

    Nuclear Repulsion Energy =            249.5701521491915287
    One-Electron Energy =                -911.9510868775984136
    Two-Electron Energy =                 356.3909397409728967
    DFT Exchange-Correlation Energy =       0.0000000000000000
    Empirical Dispersion Energy =           0.0000000000000000
    PCM Polarization Energy =               0.0000000000000000
    EFP Energy =                            0.0000000000000000
    Total Energy =                       -305.9899949874339313

    Alert: EFP and PCM quantities not currently incorporated into SCF psivars.

Properties will be evaluated at   0.000000,   0.000000,   0.000000 Bohr
  ==> Properties <==


Properties computed using the SCF density matrix

  Nuclear Dipole Moment: (a.u.)
     X:     2.7884      Y:    -1.5728      Z:     2.0550

  Electronic Dipole Moment: (a.u.)
     X:    -2.5926      Y:     0.8176      Z:    -1.9082

  Dipole Moment: (a.u.)
     X:     0.1958      Y:    -0.7552      Z:     0.1468     Total:     0.7939

  Dipole Moment: (Debye)
     X:     0.4976      Y:    -1.9195      Z:     0.3732     Total:     2.0178


[...]
           C          2.141921130576     0.293732124473     0.626785497418    12.000000000000
           H          1.353620384461     0.299764571471    -1.387895939938     1.007825032070
           H          1.920821029044    -1.260343239916    -0.834670915615     1.007825032070
           H          3.159210897803     0.519980020905     0.327758911701     1.007825032070
           H          1.662114682363     1.213355533852     0.927392731999     1.007825032070
           H          2.180836004672    -0.379063749264     1.475355228174     1.007825032070

  Nuclear repulsion =  249.721200098943399

  ==> Basis Set <==

  Basis Set: CC-PVTZ
    Number of shells: 108
    Number of basis function: 292
    Number of Cartesian functions: 330
    Spherical Harmonics?: true
    Max angular momentum: 3

  ==> DFJKGrad: Density-Fitted SCF Gradients <==

    Gradient:                    1
    J tasked:                  Yes
    K tasked:                  Yes
    wK tasked:                  No
    OpenMP threads:              4
    Integrals threads:           4
    Memory (MB):              1430
    Schwarz Cutoff:          0E+00
    Fitting Condition:       1E-12

   => Auxiliary Basis Set <=

  Basis Set: 
    Number of shells: 230
    Number of basis function: 714
    Number of Cartesian functions: 856
    Spherical Harmonics?: true
    Max angular momentum: 4


  -Total Gradient:
     Atom            X                  Y                   Z
    ------   -----------------  -----------------  -----------------
       1        0.000007591167    -0.000004932977    -0.000005908739
       2        0.000425954325     0.000168557631     0.001850648463
       3        0.000006075150     0.000010057823     0.000053017843
       4       -0.000599605892    -0.000671252867    -0.003011072955
       5       -0.000003926345     0.000006243362    -0.000015881158
       6       -0.000004809186    -0.000001870917    -0.000004165780
       7       -0.000007330731    -0.000013543592    -0.000015253673
       8       -0.000049936179     0.002228425980     0.002482892382
       9       -0.000004419467    -0.000011266322    -0.000013868549
      10        0.000224652191    -0.001716753930    -0.001327518426
      11        0.000012622571     0.000001598798     0.000006376621
      12        0.000006035611    -0.000001414010    -0.000003231345
      13       -0.000010533567     0.000005456118     0.000004648286
      14       -0.000002369645     0.000000694900    -0.000000682969


*** tstop() called on cx1-27-2-4 at Fri Sep  9 21:18:41 2016
Module time:
	user time   =      61.81 seconds =       1.03 minutes
	system time =       0.61 seconds =       0.01 minutes
	total time  =         17 seconds =       0.28 minutes
Total time:
	user time   =     525.96 seconds =       8.77 minutes
	system time =       6.17 seconds =       0.10 minutes
	total time  =        149 seconds =       2.48 minutes
CURRENT ENERGY: -305.9907561068

			-----------------------------------------
			 OPTKING 2.0: for geometry optimizations 
			  - R.A. King,  Bethel University        
			-----------------------------------------

	Previous internal coordinate definitions found.
	---Fragment 1 Geometry and Gradient---
	 O          -1.3313513446        2.3888878223       -0.4657189534
	 C          -1.6124330657        0.2005351146       -0.0947030867
	 C          -4.0600531410       -1.0012832425        0.6973289753
	 O           0.1987594569       -1.4988403651       -0.3494966708
	 H          -4.6113705348       -2.4078138478       -0.6813161174
	 H          -5.5021333479        0.4278720715        0.8597055492
	 H          -3.8068429482       -1.9544334190        2.4893056987
	 C           2.6725966584       -0.6727305682       -1.0051325014
	 C           4.0476443350        0.5550732717        1.1844529342
	 H           2.5579718145        0.5664729444       -2.6227432274
	 H           3.6298256952       -2.3817035569       -1.5772994416
	 H           5.9700433929        0.9826198341        0.6193745807
	 H           3.1409415511        2.2929096608        1.7525182811
	 H           4.1211827896       -0.7163266730        2.7880173300
	             0.0000075912       -0.0000049330       -0.0000059087
	             0.0004259543        0.0001685576        0.0018506485
	             0.0000060751        0.0000100578        0.0000530178
	            -0.0005996059       -0.0006712529       -0.0030110730
	            -0.0000039263        0.0000062434       -0.0000158812
	            -0.0000048092       -0.0000018709       -0.0000041658
	            -0.0000073307       -0.0000135436       -0.0000152537
	            -0.0000499362        0.0022284260        0.0024828924
	            -0.0000044195       -0.0000112663       -0.0000138685
	             0.0002246522       -0.0017167539       -0.0013275184
	             0.0000126226        0.0000015988        0.0000063766
	             0.0000060356       -0.0000014140       -0.0000032313
	            -0.0000105336        0.0000054561        0.0000046483
	            -0.0000023696        0.0000006949       -0.0000006830

	---Fragment 1 Intrafragment Coordinates---
	 - Coordinate -           - BOHR/RAD -       - ANG/DEG -
	 R(1,2)           =         2.237308	       1.183933
	 R(2,3)           =         2.839459	       1.502577
	 R(2,4)           =         2.496641	       1.321165
	 R(3,5)           =         2.045224	       1.082286
	 R(3,6)           =         2.036774	       1.077814
	 R(3,7)           =         2.045432	       1.082396
	 R(4,8)           =         2.689272	       1.423102
	 R(8,9)           =         2.862262	       1.514644
	 R(8,10)          =         2.040938	       1.080018
	 R(8,11)          =         2.040650	       1.079865
	 R(9,12)          =         2.048836	       1.084197
	 R(9,13)          =         2.040805	       1.079947
	 R(9,14)          =         2.047751	       1.083623
	 B(1,2,3)         =         2.175536	     124.649039
	 B(1,2,4)         =         2.162416	     123.897283
	 B(2,3,5)         =         1.912844	     109.597915
	 B(2,3,6)         =         1.913002	     109.606922
	 B(2,3,7)         =         1.912292	     109.566267
	 B(2,4,8)         =         2.075017	     118.889741
	 B(3,2,4)         =         1.945194	     111.451434
	 B(4,8,9)         =         1.968381	     112.779904
	 B(4,8,10)        =         1.905068	     109.152346
	 B(4,8,11)        =         1.815843	     104.040122
	 B(5,3,6)         =         1.923499	     110.208386
	 B(5,3,7)         =         1.879113	     107.665248
	 B(6,3,7)         =         1.922799	     110.168257
	 B(8,9,12)        =         1.906346	     109.225579
	 B(8,9,13)        =         1.944192	     111.393987
	 B(8,9,14)        =         1.928333	     110.485337
	 B(9,8,10)        =         1.952863	     111.890805
	 B(9,8,11)        =         1.926641	     110.388395
	 B(10,8,11)       =         1.888729	     108.216209
	 B(12,9,13)       =         1.892246	     108.417693
	 B(12,9,14)       =         1.887932	     108.170519
	 B(13,9,14)       =         1.903590	     109.067649
	 D(1,2,3,5)       =         2.119237	     121.423318
	 D(1,2,3,6)       =         0.006176	       0.353867
	 D(1,2,3,7)       =        -2.105672	    -120.646127
	 D(1,2,4,8)       =         0.047950	       2.747337
	 D(2,4,8,9)       =         1.309423	      75.024424
	*D(2,4,8,10)      =        -0.872664	     -49.999975
	 D(2,4,8,11)      =        -2.885697	    -165.338246
	 D(3,2,4,8)       =        -3.102776	    -177.775993
	 D(4,2,3,5)       =        -1.013140	     -58.048652
	 D(4,2,3,6)       =        -3.126201	    -179.118103
	 D(4,2,3,7)       =         1.045136	      59.881903
	 D(4,8,9,12)      =         3.050493	     174.780401
	 D(4,8,9,13)      =        -1.142919	     -65.484417
	 D(4,8,9,14)      =         0.975795	      55.908935
	 D(10,8,9,12)     =        -1.076862	     -61.699626
	 D(10,8,9,13)     =         1.012912	      58.035556
	 D(10,8,9,14)     =         3.131625	     179.428907
	 D(11,8,9,12)     =         1.027668	      58.881035
	 D(11,8,9,13)     =         3.117441	     178.616216
	 D(11,8,9,14)     =        -1.047031	     -59.990432
	 R(1,9)           =         5.917731	       3.131528

	Current energy   :      -305.9907561068

	Energy change for the previous step:
		Projected    :        -0.0000016972
		Actual       :        -0.0000001997
	Energy ratio indicates iffy step: Trust radius decreased to 6.250e-02.


	Performing BFGS update.
	Previous computed or guess Hessian on step 1.
	Steps to be used in Hessian update: 5 4
	Taking RFO optimization step.
	Going to follow RFO solution 1.
	Rejecting RFO root 1 because normalization gives large value.
	Using RFO vector 2.
	Norm of target step-size    0.01113
	Projected energy change by RFO approximation:        -0.0000003782

	Back-transformation to cartesian coordinates...
	Successfully converged to displaced geometry.

	Back-transformation to cartesian coordinates to adjust frozen coordinates...
	Successfully converged to displaced geometry.

	--- Internal Coordinate Step in ANG or DEG, aJ/ANG or AJ/DEG ---
	 ---------------------------------------------------------------------------
	   Coordinate                Previous        Force       Change         New 
	   ----------                --------       ------       ------       ------
	    1 R(1,2)          =      1.183933     0.000020    -0.000018     1.183914
	    2 R(2,3)          =      1.502577    -0.000108     0.000011     1.502588
	    3 R(2,4)          =      1.321165     0.000029    -0.000002     1.321163
	    4 R(3,5)          =      1.082286    -0.000062    -0.000027     1.082259
	    5 R(3,6)          =      1.077814    -0.000015     0.000006     1.077820
	    6 R(3,7)          =      1.082396     0.000066     0.000019     1.082415
	    7 R(4,8)          =      1.423102    -0.000320    -0.000131     1.422971
	    8 R(8,9)          =      1.514644     0.000142     0.000052     1.514696
	    9 R(8,10)         =      1.080018     0.000023     0.000011     1.080029
	   10 R(8,11)         =      1.079865    -0.000023     0.000004     1.079870
	   11 R(9,12)         =      1.084197    -0.000052    -0.000028     1.084169
	   12 R(9,13)         =      1.079947    -0.000088     0.000020     1.079967
	   13 R(9,14)         =      1.083623     0.000009    -0.000012     1.083611
	   14 B(1,2,3)        =    124.649039    -0.000000     0.001062   124.650100
	   15 B(1,2,4)        =    123.897283     0.000001     0.001599   123.898881
	   16 B(2,3,5)        =    109.597915     0.000001     0.016236   109.614151
	   17 B(2,3,6)        =    109.606922    -0.000000     0.001716   109.608638
	   18 B(2,3,7)        =    109.566267    -0.000002    -0.021298   109.544969
	   19 B(2,4,8)        =    118.889741    -0.000001     0.000585   118.890325
	   20 B(3,2,4)        =    111.451434    -0.000001    -0.002472   111.448962
	   21 B(4,8,9)        =    112.779904     0.000001    -0.002588   112.777316
	   22 B(4,8,10)       =    109.152346    -0.000001     0.008387   109.160732
	   23 B(4,8,11)       =    104.040122    -0.000001     0.001067   104.041188
	   24 B(5,3,6)        =    110.208386     0.000000     0.014628   110.223014
	   25 B(5,3,7)        =    107.665248     0.000000     0.002307   107.667556
	   26 B(6,3,7)        =    110.168257    -0.000000    -0.013676   110.154581
	   27 B(8,9,12)       =    109.225579     0.000000     0.007412   109.232991
	   28 B(8,9,13)       =    111.393987     0.000000    -0.007474   111.386513
	   29 B(8,9,14)       =    110.485337     0.000000     0.003636   110.488973
	   30 B(9,8,10)       =    111.890805     0.000000    -0.002659   111.888146
	   31 B(9,8,11)       =    110.388395     0.000001     0.003516   110.391911
	   32 B(10,8,11)      =    108.216209    -0.000000    -0.007675   108.208535
	   33 B(12,9,13)      =    108.417693    -0.000000    -0.009926   108.407767
	   34 B(12,9,14)      =    108.170519    -0.000000     0.007906   108.178425
	   35 B(13,9,14)      =    109.067649    -0.000000    -0.001366   109.066283
	   36 D(1,2,3,5)      =    121.423318     0.000000     0.276806   121.700124
	   37 D(1,2,3,6)      =      0.353867    -0.000000     0.247421     0.601288
	   38 D(1,2,3,7)      =   -120.646127     0.000000     0.276605  -120.369522
	   39 D(1,2,4,8)      =      2.747337     0.000000     0.051986     2.799324
	   40 D(2,4,8,9)      =     75.024424     0.000000     0.001023    75.025447
	   41 *D(2,4,8,10)    =    -49.999975    -0.000000    -0.000000   -49.999975
	   42 D(2,4,8,11)     =   -165.338246     0.000000     0.004566  -165.333680
	   43 D(3,2,4,8)      =   -177.775993     0.000000     0.074439  -177.701553
	   44 D(4,2,3,5)      =    -58.048652     0.000000     0.254148   -57.794504
	   45 D(4,2,3,6)      =   -179.118103    -0.000000     0.224764  -178.893339
	   46 D(4,2,3,7)      =     59.881903     0.000000     0.253948    60.135851
	   47 D(4,8,9,12)     =    174.780401    -0.000000     0.015233   174.795634
	   48 D(4,8,9,13)     =    -65.484417    -0.000000     0.003042   -65.481375
	   49 D(4,8,9,14)     =     55.908935    -0.000000    -0.001252    55.907683
	   50 D(10,8,9,12)    =    -61.699626     0.000000     0.022325   -61.677301
	   51 D(10,8,9,13)    =     58.035556    -0.000000     0.010135    58.045691
	   52 D(10,8,9,14)    =    179.428907     0.000000     0.005841   179.434748
	   53 D(11,8,9,12)    =     58.881035     0.000000     0.013223    58.894258
	   54 D(11,8,9,13)    =    178.616216    -0.000000     0.001033   178.617249
	   55 D(11,8,9,14)    =    -59.990432     0.000000    -0.003262   -59.993694
	   56 R(1,9)          =      3.131528     0.000016     0.000368     3.131897
	 ---------------------------------------------------------------------------

  ==> Convergence Check <==

  Measures of convergence in internal coordinates in au.
  Criteria marked as inactive (o), active & met (*), and active & unmet ( ).
  ---------------------------------------------------------------------------------------------
   Step     Total Energy     Delta E     MAX Force     RMS Force      MAX Disp      RMS Disp   
  ---------------------------------------------------------------------------------------------
    Convergence Criteria    1.00e-06 *    3.00e-04 *             o    1.20e-03 *             o
  ---------------------------------------------------------------------------------------------
      6    -305.99075611   -2.00e-07 *    3.89e-05 *    9.99e-06 o    4.83e-03      1.49e-03 o  ~
  ---------------------------------------------------------------------------------------------


  **** Optimization is complete! (in 6 steps) ****

  ==> Optimization Summary <==

  Measures of convergence in internal coordinates in au.
  --------------------------------------------------------------------------------------------------------------- ~
   Step         Total Energy             Delta E       MAX Force       RMS Force        MAX Disp        RMS Disp  ~
  --------------------------------------------------------------------------------------------------------------- ~
      1    -305.990491023157   -305.990491023157      0.00407620      0.00092792      0.10766367      0.02081510  ~
      2    -305.990679093050     -0.000188069893      0.00185784      0.00064707      0.08898601      0.02563994  ~
      3    -305.989994987434      0.000684105617      0.00398782      0.00151119      0.07775773      0.02054430  ~
      4    -305.990753821218     -0.000758833784      0.00034643      0.00010316      0.00600515      0.00236723  ~
      5    -305.990755907056     -0.000002085839      0.00005456      0.00001803      0.00257609      0.00090399  ~
      6    -305.990756106803     -0.000000199747      0.00003889      0.00000999      0.00483117      0.00148740  ~
  --------------------------------------------------------------------------------------------------------------- ~

	Writing optimization data to binary file.
	Final energy is   -305.9907561068035
	Final (previous) structure:
	Cartesian Geometry (in Angstrom)
	    O    -0.7045208420   1.2641450860  -0.2464478745
	    C    -0.8532628939   0.1061186203  -0.0501147189
	    C    -2.1484877520  -0.5298563118   0.3690106288
	    O     0.1051789826  -0.7931522211  -0.1849456868
	    H    -2.4402323737  -1.2741603081  -0.3605369887
	    H    -2.9116037887   0.2264201657   0.4549366175
	    H    -2.0144946787  -1.0342417000   1.3172839416
	    C     1.4142773474  -0.3559937114  -0.5318932520
	    C     2.1419212941   0.2937321469   0.6267855453
	    H     1.3536204878   0.2997645944  -1.3878960459
	    H     1.9208211757  -1.2603433362  -0.8346709794
	    H     3.1592111391   0.5199800606   0.3277589367
	    H     1.6621148093   1.2133556265   0.9273928028
	    H     2.1808361712  -0.3790637782   1.4753553408
	Saving final (previous) structure.
			--------------------------
			 OPTKING Finished Execution 
			--------------------------

    Final optimized geometry and variables:
    Molecular point group: c1
    Full point group: C1

    Geometry (in Angstrom), charge = 0, multiplicity = 1:

    O           -0.704520788186     1.264144989459    -0.246447855722
    C           -0.853262828742     0.106118612152    -0.050114715058
    C           -2.148487587898    -0.529856271292     0.369010600639
    O            0.105178974571    -0.793152160550    -0.184945672646
    H           -2.440232187369    -1.274160210760    -0.360536961177
    H           -2.911603566337     0.226420148450     0.454936582749
    H           -2.014494524859    -1.034241621052     1.317283840964
    C            1.414277239361    -0.355993684208    -0.531893211372
    C            2.141921130576     0.293732124473     0.626785497418
    H            1.353620384461     0.299764571471    -1.387895939938
    H            1.920821029044    -1.260343239916    -0.834670915615
    H            3.159210897803     0.519980020905     0.327758911701
    H            1.662114682363     1.213355533852     0.927392731999
    H            2.180836004672    -0.379063749264     1.475355228174

	Cleaning optimization helper files.


Properties will be evaluated at   0.000000,   0.000000,   0.000000 Bohr

Properties computed using the  density matrix

  Nuclear Dipole Moment: (a.u.)
     X:     2.7254      Y:    -1.5805      Z:     1.7975

  Electronic Dipole Moment: (a.u.)
     X:    -2.5369      Y:     0.8210      Z:    -1.6703

  Dipole Moment: (a.u.)
     X:     0.1886      Y:    -0.7594      Z:     0.1273     Total:     0.7928

  Dipole Moment: (Debye)
     X:     0.4793      Y:    -1.9303      Z:     0.3234     Total:     2.0151

  Quadrupole Moment: (Debye Ang)
    XX:   -31.1478     YY:   -41.3747     ZZ:   -35.5905
    XY:     2.1255     XZ:    -1.4667     YZ:     0.7157

  Traceless Quadrupole Moment: (Debye Ang)
    XX:     4.8898     YY:    -5.3370     ZZ:     0.4472
    XY:     2.1255     XZ:    -1.4667     YZ:     0.7157

  Mulliken Charges: (a.u.)
   Center  Symbol    Alpha    Beta     Spin     Total
       1     O     4.19916  4.19916  0.00000 -0.39832
       2     C     2.80173  2.80173  0.00000  0.39655
       3     C     3.13802  3.13802  0.00000 -0.27605
       4     O     4.15678  4.15678  0.00000 -0.31357
       5     H     0.44531  0.44531  0.00000  0.10938
       6     H     0.43832  0.43832  0.00000  0.12337
       7     H     0.44621  0.44621  0.00000  0.10758
       8     C     2.98484  2.98484  0.00000  0.03033
       9     C     3.15169  3.15169  0.00000 -0.30338
      10     H     0.45085  0.45085  0.00000  0.09829
      11     H     0.44472  0.44472  0.00000  0.11056
      12     H     0.45082  0.45082  0.00000  0.09836
      13     H     0.43875  0.43875  0.00000  0.12250
      14     H     0.45280  0.45280  0.00000  0.09440

   Total alpha = 24.00000, Total beta = 24.00000, Total charge = -0.00000


*** PSI4 exiting successfully. Buy a developer a beer!
