    -----------------------------------------------------------------------
          Psi4: An Open-Source Ab Initio Electronic Structure Package
                              Psi4 (no tag) Driver

                          Git: Rev {detached?}  

    J. M. Turney, A. C. Simmonett, R. M. Parrish, E. G. Hohenstein,
    F. A. Evangelista, J. T. Fermann, B. J. Mintz, L. A. Burns, J. J. Wilke,
    M. L. Abrams, N. J. Russ, M. L. Leininger, C. L. Janssen, E. T. Seidl,
    W. D. Allen, H. F. Schaefer, R. A. King, E. F. Valeev, C. D. Sherrill,
    and T. D. Crawford, WIREs Comput. Mol. Sci. 2, 556-565 (2012)
    (doi: 10.1002/wcms.93)

                         Additional Contributions by
    A. E. DePrince, M. Saitow, U. Bozkaya, A. Yu. Sokolov
    -----------------------------------------------------------------------


    Psi4 started on: Fri Sep  9 23:30:25 2016

    Process ID:  29453
    PSI4DATADIR: /export131/home/mjharvey/miniconda3/share
    Memory level set to 256.000 MB

  ==> Input File <==

--------------------------------------------------------------------------
set {
	reference rhf
	basis cc-pvtz
}


set_num_threads( 4 )
memory 2 gb

molecule MOL {
0 1

O	 0.749630	 1.305591	 -0.000460
C	 0.576499	 0.134701	 -0.003900
C	 -0.765656	 -0.550508	 -0.002152
O	 1.564816	 -0.744612	 -0.000631
C	 -1.945526	 0.411052	 0.000603
H	 -0.794329	 -1.203792	 -0.868145
H	 -0.791555	 -1.205429	 0.862701
C	 -3.189162	 -0.204424	 -0.631444
H	 -1.670777	 1.315255	 -0.528852
H	 -2.158984	 0.711704	 1.019142
H	 -3.009387	 -0.485311	 -1.663962
H	 -4.015474	 0.495951	 -0.619483
H	 -3.503679	 -1.095229	 -0.097708
C	 2.884339	 -0.237801	 0.002883
H	 3.064150	 0.362814	 -0.876312
H	 3.533055	 -1.098529	 0.004958
H	 3.059365	 0.363432	 0.882614

	symmetry c1
}
set optking {
	frozen_dihedral = ("
		9 5 3 6
	")
}

ee = optimize('scf')
oeprop('DIPOLE', 'QUADRUPOLE', 'MULLIKEN_CHARGES')
f=open( 'psi4out.xyz', 'w' )
f.write( "17  " )
f.write( str(ee) + "\n" )
f.write( MOL.save_string_xyz() )
f.close()
--------------------------------------------------------------------------

  Memory set to   2.000 GiB by Python script.
gradient() will perform analytic gradient computation.

*** tstart() called on cx1-27-2-3
*** at Fri Sep  9 23:30:25 2016


         ---------------------------------------------------------
                                   SCF
            by Justin Turney, Rob Parrish, and Andy Simmonett
                              RHF Reference
                        4 Threads,   2000 MiB Core
         ---------------------------------------------------------

  ==> Geometry <==

    Molecular point group: c1
    Full point group: C1

    Geometry (in Angstrom), charge = 0, multiplicity = 1:

       Center              X                  Y                   Z               Mass       
    ------------   -----------------  -----------------  -----------------  -----------------
           O          0.735830598869     1.288391441300     0.092863672260    15.994914619560
           C          0.562699598869     0.117501441300     0.089423672260    12.000000000000
           C         -0.779455401131    -0.567707558700     0.091171672260    12.000000000000
           O          1.551016598869    -0.761811558700     0.092692672260    15.994914619560
           C         -1.959325401131     0.393852441300     0.093926672260    12.000000000000
           H         -0.808128401131    -1.220991558700    -0.774821327740     1.007825032070
           H         -0.805354401131    -1.222628558700     0.956024672260     1.007825032070
           C         -3.202961401131    -0.221623558700    -0.538120327740    12.000000000000
           H         -1.684576401131     1.298055441300    -0.435528327740     1.007825032070
           H         -2.172783401131     0.694504441300     1.112465672260     1.007825032070
           H         -3.023186401131    -0.502510558700    -1.570638327740     1.007825032070
           H         -4.029273401131     0.478751441300    -0.526159327740     1.007825032070
           H         -3.517478401131    -1.112428558700    -0.004384327740     1.007825032070
           C          2.870539598869    -0.255000558700     0.096206672260    12.000000000000
           H          3.050350598869     0.345614441300    -0.782988327740     1.007825032070
           H          3.519255598869    -1.115728558700     0.098281672260     1.007825032070
           H          3.045565598869     0.346232441300     0.975937672260     1.007825032070

  Running in c1 symmetry.

  Rotational constants: A =      0.27893  B =      0.04053  C =      0.03676 [cm^-1]
  Rotational constants: A =   8362.02556  B =   1215.19760  C =   1101.98514 [MHz]
  Nuclear repulsion =  313.424918250824533

  Charge       = 0
  Multiplicity = 1
  Electrons    = 56
  Nalpha       = 28
  Nbeta        = 28

  ==> Algorithm <==

  SCF Algorithm Type is DF.
  DIIS enabled.
  MOM disabled.
  Fractional occupation disabled.
  Guess Type is CORE.
  Energy threshold   = 1.00e-08
  Density threshold  = 1.00e-08
  Integral threshold = 0.00e+00

  ==> Primary Basis <==

  Basis Set: CC-PVTZ
    Number of shells: 130
    Number of basis function: 350
    Number of Cartesian functions: 395
    Spherical Harmonics?: true
    Max angular momentum: 3

  ==> Pre-Iterations <==

   -------------------------------------------------------
    Irrep   Nso     Nmo     Nalpha   Nbeta   Ndocc  Nsocc
   -------------------------------------------------------
     A        350     350       0       0       0       0
   -------------------------------------------------------
    Total     350     350      28      28      28       0
   -------------------------------------------------------

 OEINTS: Overlap, kinetic, potential, dipole, and quadrupole integrals
         stored in file 35.

  ==> Integral Setup <==

  ==> DFJK: Density-Fitted J/K Matrices <==

    J tasked:                  Yes
    K tasked:                  Yes
    wK tasked:                  No
    OpenMP threads:              4
    Integrals threads:           4
    Memory (MB):              1430
    Algorithm:                Core
    Integral Cache:           NONE
    Schwarz Cutoff:          1E-12
    Fitting Condition:       1E-12

   => Auxiliary Basis Set <=

  Basis Set: 
    Number of shells: 275
    Number of basis function: 853
    Number of Cartesian functions: 1022
    Spherical Harmonics?: true
    Max angular momentum: 4

  Minimum eigenvalue in the overlap matrix is 2.9802306741E-04.
  Using Symmetric Orthogonalization.
  SCF Guess: Core (One-Electron) Hamiltonian.

  ==> Iterations <==

                           Total Energy        Delta E     RMS |[F,P]|

   @DF-RHF iter   1:  -201.35215379868174   -2.01352e+02   4.78507e-02 
   @DF-RHF iter   2:   -40.58268345410602    1.60769e+02   4.94146e-02 DIIS
   @DF-RHF iter   3:  -181.95949431899732   -1.41377e+02   4.13585e-02 DIIS
   @DF-RHF iter   4:  -274.62405476407156   -9.26646e+01   2.49096e-02 DIIS
   @DF-RHF iter   5:  -290.87271785346292   -1.62487e+01   2.13616e-02 DIIS
   @DF-RHF iter   6:  -336.03473079759686   -4.51620e+01   7.85297e-03 DIIS
   @DF-RHF iter   7:  -326.12125490371881    9.91348e+00   1.30242e-02 DIIS
   @DF-RHF iter   8:  -344.82202937775281   -1.87008e+01   1.78530e-03 DIIS
   @DF-RHF iter   9:  -344.99643848996340   -1.74409e-01   6.57037e-04 DIIS
   @DF-RHF iter  10:  -345.02642670324911   -2.99882e-02   2.70537e-04 DIIS
   @DF-RHF iter  11:  -345.03238107092460   -5.95437e-03   8.77987e-05 DIIS
   @DF-RHF iter  12:  -345.03312231675540   -7.41246e-04   3.77389e-05 DIIS
   @DF-RHF iter  13:  -345.03321355202928   -9.12353e-05   1.41496e-05 DIIS
   @DF-RHF iter  14:  -345.03323453085994   -2.09788e-05   4.05809e-06 DIIS
   @DF-RHF iter  15:  -345.03323629502250   -1.76416e-06   9.13470e-07 DIIS
   @DF-RHF iter  16:  -345.03323638092246   -8.59000e-08   3.49053e-07 DIIS
   @DF-RHF iter  17:  -345.03323639302420   -1.21017e-08   9.23138e-08 DIIS
   @DF-RHF iter  18:  -345.03323639424133   -1.21713e-09   2.76581e-08 DIIS
   @DF-RHF iter  19:  -345.03323639437014   -1.28807e-10   1.02694e-08 DIIS
   @DF-RHF iter  20:  -345.03323639438867   -1.85310e-11   3.99267e-09 DIIS

  ==> Post-Iterations <==

    Orbital Energies (a.u.)
    -----------------------

    Doubly Occupied:                                                      

       1A    -20.596929     2A    -20.534875     3A    -11.365226  
       4A    -11.278924     5A    -11.233652     6A    -11.218262  
       7A    -11.212120     8A     -1.472865     9A     -1.366678  
      10A     -1.081428    11A     -1.002362    12A     -0.940106  
      13A     -0.827950    14A     -0.769185    15A     -0.704021  
      16A     -0.686300    17A     -0.676761    18A     -0.635705  
      19A     -0.598782    20A     -0.574318    21A     -0.569927  
      22A     -0.530285    23A     -0.524808    24A     -0.495417  
      25A     -0.488011    26A     -0.477175    27A     -0.460715  
      28A     -0.442539  

    Virtual:                                                              

      29A      0.136937    30A      0.154645    31A      0.173496  
      32A      0.179936    33A      0.191734    34A      0.205004  
      35A      0.213249    36A      0.228133    37A      0.229510  
      38A      0.242688    39A      0.259138    40A      0.260332  
      41A      0.314898    42A      0.355526    43A      0.365386  
      44A      0.375020    45A      0.381131    46A      0.396897  
      47A      0.400954    48A      0.431208    49A      0.452072  
      50A      0.454932    51A      0.475108    52A      0.507338  
      53A      0.540229    54A      0.549781    55A      0.574826  
      56A      0.576283    57A      0.583073    58A      0.591109  
      59A      0.617434    60A      0.623145    61A      0.625418  
      62A      0.629829    63A      0.640358    64A      0.648825  
      65A      0.663137    66A      0.670104    67A      0.677274  
      68A      0.683295    69A      0.696306    70A      0.721315  
      71A      0.734189    72A      0.735588    73A      0.765591  
      74A      0.801888    75A      0.822995    76A      0.833453  
      77A      0.856169    78A      0.880191    79A      0.895549  
      80A      0.918527    81A      0.930790    82A      0.943108  
      83A      0.970423    84A      0.997011    85A      1.025157  
      86A      1.040310    87A      1.068700    88A      1.074182  
      89A      1.094546    90A      1.118880    91A      1.128055  
      92A      1.141864    93A      1.155500    94A      1.174291  
      95A      1.200216    96A      1.217079    97A      1.225566  
      98A      1.231995    99A      1.257861   100A      1.276658  
     101A      1.286574   102A      1.290715   103A      1.298565  
     104A      1.308396   105A      1.318236   106A      1.340440  
     107A      1.345608   108A      1.369837   109A      1.400267  
     110A      1.420268   111A      1.447016   112A      1.457145  
     113A      1.473973   114A      1.488080   115A      1.494723  
     116A      1.503238   117A      1.524789   118A      1.529814  
     119A      1.532829   120A      1.546574   121A      1.557555  
     122A      1.577513   123A      1.591278   124A      1.598594  
     125A      1.633869   126A      1.651646   127A      1.663005  
     128A      1.726982   129A      1.732919   130A      1.772553  
     131A      1.781677   132A      1.801320   133A      1.818952  
     134A      1.851597   135A      1.860037   136A      1.886520  
     137A      1.927654   138A      1.972632   139A      2.024452  
     140A      2.048513   141A      2.149331   142A      2.235068  
     143A      2.297875   144A      2.312134   145A      2.335427  
     146A      2.426623   147A      2.461387   148A      2.480722  
     149A      2.511304   150A      2.555083   151A      2.581513  
     152A      2.605998   153A      2.636717   154A      2.662307  
     155A      2.702805   156A      2.710611   157A      2.720385  
     158A      2.754823   159A      2.781989   160A      2.821047  
     161A      2.842385   162A      2.875072   163A      2.881219  
     164A      2.911624   165A      2.941836   166A      2.946885  
     167A      2.964864   168A      2.985469   169A      3.012899  
     170A      3.025588   171A      3.035919   172A      3.057911  
     173A      3.091963   174A      3.094390   175A      3.116154  
     176A      3.129119   177A      3.136899   178A      3.152428  
     179A      3.179799   180A      3.205069   181A      3.236531  
     182A      3.246386   183A      3.251108   184A      3.279173  
     185A      3.304915   186A      3.311103   187A      3.321268  
     188A      3.331200   189A      3.344417   190A      3.365130  
     191A      3.371234   192A      3.378916   193A      3.401972  
     194A      3.412392   195A      3.422791   196A      3.440433  
     197A      3.459328   198A      3.465325   199A      3.479527  
     200A      3.495059   201A      3.507982   202A      3.540507  
     203A      3.573817   204A      3.582054   205A      3.598771  
     206A      3.612768   207A      3.629915   208A      3.632381  
     209A      3.659989   210A      3.675324   211A      3.687221  
     212A      3.722735   213A      3.741716   214A      3.744019  
     215A      3.753566   216A      3.761282   217A      3.779936  
     218A      3.808461   219A      3.832878   220A      3.840470  
     221A      3.856980   222A      3.864970   223A      3.869728  
     224A      3.884085   225A      3.900510   226A      3.930854  
     227A      3.967618   228A      3.978976   229A      3.998772  
     230A      4.015669   231A      4.090714   232A      4.095493  
     233A      4.108998   234A      4.112262   235A      4.141931  
     236A      4.160148   237A      4.166054   238A      4.177854  
     239A      4.184759   240A      4.202933   241A      4.215971  
     242A      4.233792   243A      4.240410   244A      4.253698  
     245A      4.262198   246A      4.294740   247A      4.335761  
     248A      4.360117   249A      4.371711   250A      4.386800  
     251A      4.397791   252A      4.414073   253A      4.418164  
     254A      4.440493   255A      4.465924   256A      4.481344  
     257A      4.497352   258A      4.505385   259A      4.542383  
     260A      4.564036   261A      4.584663   262A      4.603702  
     263A      4.622331   264A      4.645808   265A      4.648438  
     266A      4.662885   267A      4.680247   268A      4.695923  
     269A      4.729143   270A      4.753789   271A      4.785759  
     272A      4.818240   273A      4.858792   274A      4.893585  
     275A      4.956976   276A      4.971749   277A      5.004301  
     278A      5.062149   279A      5.068993   280A      5.082357  
     281A      5.142006   282A      5.180018   283A      5.203495  
     284A      5.222568   285A      5.254017   286A      5.275829  
     287A      5.280511   288A      5.301567   289A      5.306882  
     290A      5.339430   291A      5.351359   292A      5.382833  
     293A      5.420102   294A      5.466684   295A      5.493284  
     296A      5.523474   297A      5.540057   298A      5.562699  
     299A      5.591520   300A      5.607116   301A      5.621407  
     302A      5.651920   303A      5.665909   304A      5.688571  
     305A      5.713274   306A      5.741939   307A      5.758757  
     308A      5.766714   309A      5.800855   310A      5.828727  
     311A      5.867334   312A      5.878147   313A      5.888417  
     314A      5.906954   315A      5.922872   316A      6.024166  
     317A      6.038136   318A      6.054940   319A      6.177007  
     320A      6.187991   321A      6.241359   322A      6.302442  
     323A      6.317811   324A      6.326463   325A      6.358778  
     326A      6.427519   327A      6.593725   328A      6.607447  
     329A      6.692204   330A      6.843667   331A      6.868019  
     332A      6.893285   333A      6.916546   334A      7.037124  
     335A      7.247794   336A      7.255228   337A      7.374123  
     338A      7.484814   339A      7.496871   340A      7.577779  
     341A      7.690305   342A      7.898244   343A      7.981802  
     344A      9.962702   345A     12.106525   346A     13.090201  
     347A     13.889660   348A     14.136895   349A     14.260234  
     350A     14.726323  

    Final Occupation by Irrep:
              A 
    DOCC [    28 ]

  Energy converged.

  @DF-RHF Final Energy:  -345.03323639438867

   => Energetics <=

    Nuclear Repulsion Energy =            313.4249182508245326
    One-Electron Energy =               -1091.3856538106178959
    Two-Electron Energy =                 432.9274991654046971
    DFT Exchange-Correlation Energy =       0.0000000000000000
    Empirical Dispersion Energy =           0.0000000000000000
    PCM Polarization Energy =               0.0000000000000000
    EFP Energy =                            0.0000000000000000
    Total Energy =                       -345.0332363943887231

    Alert: EFP and PCM quantities not currently incorporated into SCF psivars.

Properties will be evaluated at   0.000000,   0.000000,   0.000000 Bohr
  ==> Properties <==


Properties computed using the SCF density matrix

  Nuclear Dipole Moment: (a.u.)
     X:    -6.0128      Y:    -1.8828      Z:    -0.8914

  Electronic Dipole Moment: (a.u.)
     X:     6.1027      Y:     1.1781      Z:     0.8950

  Dipole Moment: (a.u.)
     X:     0.0899      Y:    -0.7048      Z:     0.0036     Total:     0.7105

  Dipole Moment: (Debye)
     X:     0.2285      Y:    -1.7913      Z:     0.0092     Total:     1.8059


  Saving occupied orbitals to File 180.

*** tstop() called on cx1-27-2-3 at Fri Sep  9 23:30:42 2016
Module time:
	user time   =      56.20 seconds =       0.94 minutes
	system time =       0.97 seconds =       0.02 minutes
	total time  =         17 seconds =       0.28 minutes
Total time:
	user time   =      56.20 seconds =       0.94 minutes
	system time =       0.97 seconds =       0.02 minutes
	total time  =         17 seconds =       0.28 minutes

*** tstart() called on cx1-27-2-3
*** at Fri Sep  9 23:30:42 2016


         ------------------------------------------------------------
                                   SCF GRAD                          
                          Rob Parrish, Justin Turney,                
                       Andy Simmonett, and Alex Sokolov              
         ------------------------------------------------------------

  ==> Geometry <==

    Molecular point group: c1
    Full point group: C1

    Geometry (in Angstrom), charge = 0, multiplicity = 1:

       Center              X                  Y                   Z               Mass       
    ------------   -----------------  -----------------  -----------------  -----------------
           O          0.735830598869     1.288391441300     0.092863672260    15.994914619560
           C          0.562699598869     0.117501441300     0.089423672260    12.000000000000
           C         -0.779455401131    -0.567707558700     0.091171672260    12.000000000000
           O          1.551016598869    -0.761811558700     0.092692672260    15.994914619560
           C         -1.959325401131     0.393852441300     0.093926672260    12.000000000000
           H         -0.808128401131    -1.220991558700    -0.774821327740     1.007825032070
           H         -0.805354401131    -1.222628558700     0.956024672260     1.007825032070
           C         -3.202961401131    -0.221623558700    -0.538120327740    12.000000000000
           H         -1.684576401131     1.298055441300    -0.435528327740     1.007825032070
           H         -2.172783401131     0.694504441300     1.112465672260     1.007825032070
           H         -3.023186401131    -0.502510558700    -1.570638327740     1.007825032070
           H         -4.029273401131     0.478751441300    -0.526159327740     1.007825032070
           H         -3.517478401131    -1.112428558700    -0.004384327740     1.007825032070
           C          2.870539598869    -0.255000558700     0.096206672260    12.000000000000
           H          3.050350598869     0.345614441300    -0.782988327740     1.007825032070
           H          3.519255598869    -1.115728558700     0.098281672260     1.007825032070
           H          3.045565598869     0.346232441300     0.975937672260     1.007825032070

  Nuclear repulsion =  313.424918250824533

  ==> Basis Set <==

  Basis Set: CC-PVTZ
    Number of shells: 130
    Number of basis function: 350
    Number of Cartesian functions: 395
    Spherical Harmonics?: true
    Max angular momentum: 3

  ==> DFJKGrad: Density-Fitted SCF Gradients <==

    Gradient:                    1
    J tasked:                  Yes
    K tasked:                  Yes
    wK tasked:                  No
    OpenMP threads:              4
    Integrals threads:           4
    Memory (MB):              1430
    Schwarz Cutoff:          0E+00
    Fitting Condition:       1E-12

   => Auxiliary Basis Set <=

  Basis Set: 
    Number of shells: 275
    Number of basis function: 853
    Number of Cartesian functions: 1022
    Spherical Harmonics?: true
    Max angular momentum: 4


  -Total Gradient:
     Atom            X                  Y                   Z
    ------   -----------------  -----------------  -----------------
       1       -0.001101560619     0.000121532640     0.000569148524
       2       -0.000597524150     0.000457663977    -0.002841018680
       3       -0.000897805137     0.001271002026    -0.000194761286
       4       -0.000003024028    -0.000355591726     0.000344526677
       5        0.001332312996    -0.002367360707     0.003110534158
       6       -0.001149367498    -0.000666485303     0.000239608147
       7       -0.000460120322     0.000790729957     0.001203780347
       8        0.001477314608    -0.000026797843    -0.002109360280
       9        0.000775157041     0.001583045577     0.000154977431
      10        0.000426848513    -0.000953276446    -0.000292095662
      11       -0.000491641988    -0.000384154153    -0.000241671321
      12        0.000319663597     0.000101159443    -0.000161434692
      13        0.000341035382     0.000354930722     0.000164380239
      14        0.000192877992     0.000136137734     0.000049236211
      15       -0.000068385285    -0.000027383388     0.000023102657
      16       -0.000091651761    -0.000007619168     0.000013089591
      17       -0.000004129341    -0.000027533341    -0.000032042060


*** tstop() called on cx1-27-2-3 at Fri Sep  9 23:31:08 2016
Module time:
	user time   =      98.12 seconds =       1.64 minutes
	system time =       0.68 seconds =       0.01 minutes
	total time  =         26 seconds =       0.43 minutes
Total time:
	user time   =     154.35 seconds =       2.57 minutes
	system time =       1.65 seconds =       0.03 minutes
	total time  =         43 seconds =       0.72 minutes
CURRENT ENERGY: -345.0332363944

			-----------------------------------------
			 OPTKING 2.0: for geometry optimizations 
			  - R.A. King,  Bethel University        
			-----------------------------------------

	Internal coordinates to be generated automatically.
	Detected frag with atoms:  1 2 3 4 5 6 7 8 9 10 11 12 13 14 15 16 17
	---Fragment 1 Bond Connectivity---
	 1 : 2
	 2 : 1 3 4
	 3 : 2 5 6 7
	 4 : 2 14
	 5 : 3 8 9 10
	 6 : 3
	 7 : 3
	 8 : 5 11 12 13
	 9 : 5
	 10 : 5
	 11 : 8
	 12 : 8
	 13 : 8
	 14 : 4 15 16 17
	 15 : 14
	 16 : 14
	 17 : 14

	Assuming in current code that numbering for constraints corresponds to unified fragment.
	Frozen dihedral atom list: 
	     9     5     3     6
	---Fragment 1 Geometry and Gradient---
	 O           1.3905183121        2.4347069760        0.1754869083
	 C           1.0633481369        0.2220455443        0.1689862504
	 C          -1.4729572409       -1.0728118095        0.1722894916
	 O           2.9309965994       -1.4396152108        0.1751637651
	 C          -3.7025884133        0.7442732508        0.1774956871
	 H          -1.5271413583       -2.3073396565       -1.4642001113
	 H          -1.5218992581       -2.3104331382        1.8066248069
	 C          -6.0527198623       -0.4188078305       -1.0169000460
	 H          -3.1833880481        2.4529692894       -0.8230292625
	 H          -4.1059655742        1.3124231921        2.1022554528
	 H          -5.7129943468       -0.9496073348       -2.9680762932
	 H          -7.6142232427        0.9047091098       -0.9942970317
	 H          -6.6470708565       -2.1021853183       -0.0082851787
	 C           5.4245336955       -0.4818812197        0.1818042627
	 H           5.7643272411        0.6531166416       -1.4796335047
	 H           6.6504292735       -2.1084214146        0.1857254445
	 H           5.7552849016        0.6542844924        1.8442549233
	            -0.0011015606        0.0001215326        0.0005691485
	            -0.0005975242        0.0004576640       -0.0028410187
	            -0.0008978051        0.0012710020       -0.0001947613
	            -0.0000030240       -0.0003555917        0.0003445267
	             0.0013323130       -0.0023673607        0.0031105342
	            -0.0011493675       -0.0006664853        0.0002396081
	            -0.0004601203        0.0007907300        0.0012037803
	             0.0014773146       -0.0000267978       -0.0021093603
	             0.0007751570        0.0015830456        0.0001549774
	             0.0004268485       -0.0009532764       -0.0002920957
	            -0.0004916420       -0.0003841542       -0.0002416713
	             0.0003196636        0.0001011594       -0.0001614347
	             0.0003410354        0.0003549307        0.0001643802
	             0.0001928780        0.0001361377        0.0000492362
	            -0.0000683853       -0.0000273834        0.0000231027
	            -0.0000916518       -0.0000076192        0.0000130896
	            -0.0000041293       -0.0000275333       -0.0000320421

	Previous optimization step data not found.  Starting new optimization.

	---Fragment 1 Intrafragment Coordinates---
	 - Coordinate -           - BOHR/RAD -       - ANG/DEG -
	 R(1,2)           =         2.236728	       1.183626
	 R(2,3)           =         2.847720	       1.506949
	 R(2,4)           =         2.499853	       1.322865
	 R(3,5)           =         2.876296	       1.522071
	 R(3,6)           =         2.050632	       1.085148
	 R(3,7)           =         2.050647	       1.085156
	 R(4,14)          =         2.671147	       1.413510
	 R(5,8)           =         2.881398	       1.524770
	 R(5,9)           =         2.047013	       1.083233
	 R(5,10)          =         2.047000	       1.083226
	 R(8,11)          =         2.050427	       1.085039
	 R(8,12)          =         2.047071	       1.083264
	 R(8,13)          =         2.050443	       1.085048
	 R(14,15)         =         2.040602	       1.079840
	 R(14,16)         =         2.036779	       1.077817
	 R(14,17)         =         2.040591	       1.079834
	 B(1,2,3)         =         2.189623	     125.456158
	 B(1,2,4)         =         2.151083	     123.247996
	 B(2,3,5)         =         1.985755	     113.775405
	 B(2,3,6)         =         1.871662	     107.238359
	 B(2,3,7)         =         1.871932	     107.253788
	 B(2,4,14)        =         2.047784	     117.329377
	 B(3,2,4)         =         1.942453	     111.294384
	 B(3,5,8)         =         1.956805	     112.116686
	 B(3,5,9)         =         1.906926	     109.258805
	 B(3,5,10)        =         1.906886	     109.256541
	 B(4,14,15)       =         1.931409	     110.661565
	 B(4,14,16)       =         1.849941	     105.993804
	 B(4,14,17)       =         1.931537	     110.668907
	 B(5,3,6)         =         1.940444	     111.179245
	 B(5,3,7)         =         1.940492	     111.182007
	 B(5,8,11)        =         1.943154	     111.334525
	 B(5,8,12)        =         1.935423	     110.891582
	 B(5,8,13)        =         1.943257	     111.340411
	 B(6,3,7)         =         1.846329	     105.786843
	 B(8,5,9)         =         1.918995	     109.950336
	 B(8,5,10)        =         1.918857	     109.942424
	 B(9,5,10)        =         1.852389	     106.134085
	 B(11,8,12)       =         1.879962	     107.713870
	 B(11,8,13)       =         1.879251	     107.673172
	 B(12,8,13)       =         1.879957	     107.713620
	 B(15,14,16)      =         1.923593	     110.213747
	 B(15,14,17)      =         1.903539	     109.064756
	 B(16,14,17)      =         1.923582	     110.213138
	 D(1,2,3,5)       =         0.002927	       0.167714
	 D(1,2,3,6)       =         2.156151	     123.538353
	 D(1,2,3,7)       =        -2.150555	    -123.217750
	 D(1,2,4,14)      =        -0.003574	      -0.204773
	 D(2,3,5,8)       =         2.676395	     153.346148
	 D(2,3,5,9)       =         0.544486	      31.196739
	 D(2,3,5,10)      =        -1.475084	     -84.516069
	 D(2,4,14,15)     =        -1.055937	     -60.500726
	 D(2,4,14,16)     =        -3.141386	    -179.988154
	 D(2,4,14,17)     =         1.056294	      60.521162
	 D(3,2,4,14)      =        -3.137863	    -179.786318
	 D(3,5,8,11)      =        -1.048261	     -60.060905
	 D(3,5,8,12)      =        -3.141173	    -179.975973
	 D(3,5,8,13)      =         1.049036	      60.105360
	 D(4,2,3,5)       =         3.137021	     179.738087
	 D(4,2,3,6)       =        -0.992940	     -56.891274
	 D(4,2,3,7)       =         0.983539	      56.352624
	 D(6,3,5,8)       =         0.561113	      32.149411
	*D(6,3,5,9)       =        -1.570796	     -89.999999
	 D(6,3,5,10)      =         2.692820	     154.287193
	 D(7,3,5,8)       =        -1.491119	     -85.434853
	 D(7,3,5,9)       =         2.660156	     152.415738
	 D(7,3,5,10)      =         0.640587	      36.702930
	 D(9,5,8,11)      =         1.076756	      61.693593
	 D(9,5,8,12)      =        -1.016156	     -58.221474
	 D(9,5,8,13)      =        -3.109132	    -178.140141
	 D(10,5,8,11)     =         3.110055	     178.193040
	 D(10,5,8,12)     =         1.017142	      58.277972
	 D(10,5,8,13)     =        -1.075833	     -61.640694

	Current energy   :      -345.0332363944

	Generating empirical Hessian (Schlegel '84) for each fragment.
	Taking RFO optimization step.
	Going to follow RFO solution 1.
	Using RFO vector 1.
	Norm of target step-size    0.22924
	Projected energy change by RFO approximation:         0.0007808790

	Back-transformation to cartesian coordinates...
	Successfully converged to displaced geometry.

	Back-transformation to cartesian coordinates to adjust frozen coordinates...
	Successfully converged to displaced geometry.

	--- Internal Coordinate Step in ANG or DEG, aJ/ANG or AJ/DEG ---
	 ---------------------------------------------------------------------------
	   Coordinate                Previous        Force       Change         New 
	   ----------                --------       ------       ------       ------
	    1 R(1,2)          =      1.183626     0.000323     0.000018     1.183644
	    2 R(2,3)          =      1.506949     0.011148     0.002256     1.509205
	    3 R(2,4)          =      1.322865    -0.001710    -0.000179     1.322686
	    4 R(3,5)          =      1.522071     0.035499     0.007539     1.529610
	    5 R(3,6)          =      1.085148    -0.001981    -0.000359     1.084789
	    6 R(3,7)          =      1.085156    -0.004063    -0.000736     1.084420
	    7 R(4,14)         =      1.413510    -0.000439    -0.000065     1.413445
	    8 R(5,8)          =      1.524770     0.003194     0.000684     1.525455
	    9 R(5,9)          =      1.083233    -0.011882    -0.002139     1.081094
	   10 R(5,10)         =      1.083226     0.005136     0.000924     1.084150
	   11 R(8,11)         =      1.085039    -0.002043    -0.000370     1.084669
	   12 R(8,12)         =      1.083264     0.001485     0.000267     1.083531
	   13 R(8,13)         =      1.085048     0.002549     0.000462     1.085509
	   14 R(14,15)        =      1.079840     0.000374     0.000067     1.079907
	   15 R(14,16)        =      1.077817     0.000404     0.000071     1.077889
	   16 R(14,17)        =      1.079834     0.000347     0.000062     1.079896
	   17 B(1,2,3)        =    125.456158     0.000115     0.313242   125.769400
	   18 B(1,2,4)        =    123.247996    -0.000074    -0.251898   122.996098
	   19 B(2,3,5)        =    113.775405     0.000216     1.129102   114.904506
	   20 B(2,3,6)        =    107.238359    -0.000061     0.782854   108.021212
	   21 B(2,3,7)        =    107.253788    -0.000136    -0.741766   106.512023
	   22 B(2,4,14)       =    117.329377     0.000005     0.014036   117.343412
	   23 B(3,2,4)        =    111.294384    -0.000041    -0.155707   111.138677
	   24 B(3,5,8)        =    112.116686     0.000123     0.740323   112.857008
	   25 B(3,5,9)        =    109.258805    -0.000037     0.311734   109.570538
	   26 B(3,5,10)       =    109.256541    -0.000003    -0.504537   108.752004
	   27 B(4,14,15)      =    110.661565     0.000006     0.025977   110.687542
	   28 B(4,14,16)      =    105.993804     0.000008     0.039328   106.033132
	   29 B(4,14,17)      =    110.668907    -0.000003    -0.014239   110.654668
	   30 B(5,3,6)        =    111.179245    -0.000034     0.183768   111.363013
	   31 B(5,3,7)        =    111.182007     0.000003    -0.292415   110.889592
	   32 B(5,8,11)       =    111.334525    -0.000079    -0.413111   110.921413
	   33 B(5,8,12)       =    110.891582     0.000024     0.129833   111.021415
	   34 B(5,8,13)       =    111.340411     0.000053     0.276054   111.616464
	   35 B(6,3,7)        =    105.786843    -0.000008    -1.264891   104.521952
	   36 B(8,5,9)        =    109.950336     0.000010     1.213777   111.164113
	   37 B(8,5,10)       =    109.942424    -0.000109    -0.910235   109.032189
	   38 B(9,5,10)       =    106.134085     0.000009    -0.985605   105.148480
	   39 B(11,8,12)      =    107.713870     0.000021     0.045126   107.758995
	   40 B(11,8,13)      =    107.673172     0.000009     0.013526   107.686697
	   41 B(12,8,13)      =    107.713620    -0.000029    -0.051186   107.662434
	   42 B(15,14,16)     =    110.213747    -0.000005    -0.023142   110.190605
	   43 B(15,14,17)     =    109.064756    -0.000003    -0.015673   109.049083
	   44 B(16,14,17)     =    110.213138    -0.000003    -0.011319   110.201819
	   45 D(1,2,3,5)      =      0.167714    -0.000005    -2.766167    -2.598454
	   46 D(1,2,3,6)      =    123.538353     0.000007    -1.150183   122.388169
	   47 D(1,2,3,7)      =   -123.217750    -0.000016    -2.587768  -125.805518
	   48 D(1,2,4,14)     =     -0.204773     0.000004     1.822045     1.617271
	   49 D(2,3,5,8)      =    153.346148     0.000027     4.323737   157.669885
	   50 D(2,3,5,9)      =     31.196739     0.000012     2.023231    33.219970
	   51 D(2,3,5,10)     =    -84.516069     0.000014     3.305995   -81.210075
	   52 D(2,4,14,15)    =    -60.500726     0.000000    -0.012506   -60.513232
	   53 D(2,4,14,16)    =   -179.988154    -0.000000    -0.022304  -180.010458
	   54 D(2,4,14,17)    =     60.521162    -0.000000    -0.024425    60.496737
	   55 D(3,2,4,14)     =   -179.786318    -0.000005    -1.970668  -181.756986
	   56 D(3,5,8,11)     =    -60.060905    -0.000005    -3.397646   -63.458551
	   57 D(3,5,8,12)     =   -179.975973    -0.000003    -3.266886  -183.242859
	   58 D(3,5,8,13)     =     60.105360    -0.000006    -3.474690    56.630671
	   59 D(4,2,3,5)      =    179.738087     0.000004     1.151518   180.889606
	   60 D(4,2,3,6)      =    -56.891274     0.000016     2.767503   -54.123771
	   61 D(4,2,3,7)      =     56.352624    -0.000007     1.329918    57.682542
	   62 D(6,3,5,8)      =     32.149411     0.000016     2.300506    34.449916
	   63 *D(6,3,5,9)     =    -89.999999     0.000000    -0.000000   -89.999999
	   64 D(6,3,5,10)     =    154.287193     0.000003     1.282763   155.569957
	   65 D(7,3,5,8)      =    -85.434853     0.000023     3.941643   -81.493210
	   66 D(7,3,5,9)      =    152.415738     0.000007     1.641137   154.056876
	   67 D(7,3,5,10)     =     36.702930     0.000010     2.923901    39.626831
	   68 D(9,5,8,11)     =     61.693593     0.000005    -1.578988    60.114605
	   69 D(9,5,8,12)     =    -58.221474     0.000007    -1.448228   -59.669702
	   70 D(9,5,8,13)     =   -178.140141     0.000004    -1.656032  -179.796173
	   71 D(10,5,8,11)    =    178.193040    -0.000006    -2.612306   175.580734
	   72 D(10,5,8,12)    =     58.277972    -0.000004    -2.481546    55.796426
	   73 D(10,5,8,13)    =    -61.640694    -0.000007    -2.689350   -64.330044
	 ---------------------------------------------------------------------------

  ==> Convergence Check <==

  Measures of convergence in internal coordinates in au.
  Criteria marked as inactive (o), active & met (*), and active & unmet ( ).
  --------------------------------------------------------------------------------------------- ~
   Step     Total Energy     Delta E     MAX Force     RMS Force      MAX Disp      RMS Disp    ~
  --------------------------------------------------------------------------------------------- ~
    Convergence Criteria    1.00e-06 *    3.00e-04 *             o    1.20e-03 *             o  ~
  --------------------------------------------------------------------------------------------- ~
      1    -345.03323639   -3.45e+02      4.31e-03      8.75e-04 o    7.55e-02      2.68e-02 o  ~
  ---------------------------------------------------------------------------------------------

	Writing optimization data to binary file.
	Structure for next step:
	Cartesian Geometry (in Angstrom)
	    O     0.7668313080   1.2974612677   0.1037522702
	    C     0.5779311185   0.1290652816   0.1171914143
	    C    -0.7703649494  -0.5471999981   0.0675599121
	    O     1.5578665398  -0.7592249293   0.1043189432
	    C    -1.9681213303   0.4041013267   0.0569671580
	    H    -0.7829244316  -1.2079785790  -0.7926618803
	    H    -0.8128997113  -1.2129659265   0.9224942443
	    C    -3.2262429970  -0.2336843456  -0.5238694974
	    H    -1.7076402568   1.3084156194  -0.4751312002
	    H    -2.1698940666   0.7217736307   1.0737038609
	    H    -3.0825931398  -0.4933103014  -1.5671654800
	    H    -4.0687248844   0.4451539626  -0.4652016366
	    H    -3.4965785658  -1.1408103886   0.0075171852
	    C     2.8821273872  -0.2651162294   0.1085059207
	    H     3.0643148771   0.3453099917  -0.7634951275
	    H     3.5232066404  -1.1315573503   0.0966398155
	    H     3.0664411349   0.3230393160   0.9952284549
			--------------------------
			 OPTKING Finished Execution 
			--------------------------

    Structure for next step:
    Molecular point group: c1
    Full point group: C1

    Geometry (in Angstrom), charge = 0, multiplicity = 1:

    O            0.760860772477     1.293580223106     0.101119772159
    C            0.571960597384     0.125184326255     0.114558915226
    C           -0.776335367616    -0.551080901743     0.064927416888
    O            1.551895943885    -0.763105816821     0.101686445103
    C           -1.974091656958     0.400220350401     0.054334663527
    H           -0.788894848806    -1.211859432260    -0.795294309892
    H           -0.818870126187    -1.216846779357     0.919861683745
    C           -3.232213227602    -0.237565273218    -0.526501947452
    H           -1.713610603424     1.304534574025    -0.477763654000
    H           -2.175864377885     0.717892630103     1.071071288816
    H           -3.088563381437    -0.497191209242    -1.569797850399
    H           -4.074695050736     0.441272983093    -0.467834091139
    H           -3.502548775741    -1.144691246984     0.004884694533
    C            2.876156690144    -0.268997154625     0.105873422363
    H            3.058344166130     0.341429019847    -0.766127559305
    H            3.517235894391    -1.135438209383     0.094007318036
    H            3.060470423778     0.319158345877     0.992595888771

gradient() will perform analytic gradient computation.

*** tstart() called on cx1-27-2-3
*** at Fri Sep  9 23:31:09 2016


         ---------------------------------------------------------
                                   SCF
            by Justin Turney, Rob Parrish, and Andy Simmonett
                              RHF Reference
                        4 Threads,   2000 MiB Core
         ---------------------------------------------------------

  ==> Geometry <==

    Molecular point group: c1
    Full point group: C1

    Geometry (in Angstrom), charge = 0, multiplicity = 1:

       Center              X                  Y                   Z               Mass       
    ------------   -----------------  -----------------  -----------------  -----------------
           O          0.760860772477     1.293580223106     0.101119772159    15.994914619560
           C          0.571960597384     0.125184326255     0.114558915226    12.000000000000
           C         -0.776335367616    -0.551080901743     0.064927416888    12.000000000000
           O          1.551895943885    -0.763105816821     0.101686445103    15.994914619560
           C         -1.974091656958     0.400220350401     0.054334663527    12.000000000000
           H         -0.788894848806    -1.211859432260    -0.795294309892     1.007825032070
           H         -0.818870126187    -1.216846779357     0.919861683745     1.007825032070
           C         -3.232213227602    -0.237565273218    -0.526501947452    12.000000000000
           H         -1.713610603424     1.304534574025    -0.477763654000     1.007825032070
           H         -2.175864377885     0.717892630103     1.071071288816     1.007825032070
           H         -3.088563381437    -0.497191209242    -1.569797850399     1.007825032070
           H         -4.074695050736     0.441272983093    -0.467834091139     1.007825032070
           H         -3.502548775741    -1.144691246984     0.004884694533     1.007825032070
           C          2.876156690144    -0.268997154625     0.105873422363    12.000000000000
           H          3.058344166130     0.341429019847    -0.766127559305     1.007825032070
           H          3.517235894391    -1.135438209383     0.094007318036     1.007825032070
           H          3.060470423778     0.319158345877     0.992595888771     1.007825032070

  Running in c1 symmetry.

  Rotational constants: A =      0.27975  B =      0.04009  C =      0.03632 [cm^-1]
  Rotational constants: A =   8386.80727  B =   1201.77462  C =   1088.69725 [MHz]
  Nuclear repulsion =  312.656610288862680

  Charge       = 0
  Multiplicity = 1
  Electrons    = 56
  Nalpha       = 28
  Nbeta        = 28

  ==> Algorithm <==

  SCF Algorithm Type is DF.
  DIIS enabled.
  MOM disabled.
  Fractional occupation disabled.
  Guess Type is READ.
  Energy threshold   = 1.00e-08
  Density threshold  = 1.00e-08
  Integral threshold = 0.00e+00

  ==> Primary Basis <==

  Basis Set: CC-PVTZ
    Number of shells: 130
    Number of basis function: 350
    Number of Cartesian functions: 395
    Spherical Harmonics?: true
    Max angular momentum: 3

  ==> Pre-Iterations <==

   -------------------------------------------------------
    Irrep   Nso     Nmo     Nalpha   Nbeta   Ndocc  Nsocc
   -------------------------------------------------------
     A        350     350       0       0       0       0
   -------------------------------------------------------
    Total     350     350      28      28      28       0
   -------------------------------------------------------

 OEINTS: Overlap, kinetic, potential, dipole, and quadrupole integrals
         stored in file 35.

  ==> Integral Setup <==

  ==> DFJK: Density-Fitted J/K Matrices <==

    J tasked:                  Yes
    K tasked:                  Yes
    wK tasked:                  No
    OpenMP threads:              4
    Integrals threads:           4
    Memory (MB):              1430
    Algorithm:                Core
    Integral Cache:           NONE
    Schwarz Cutoff:          1E-12
    Fitting Condition:       1E-12

   => Auxiliary Basis Set <=

  Basis Set: 
    Number of shells: 275
    Number of basis function: 853
    Number of Cartesian functions: 1022
    Spherical Harmonics?: true
    Max angular momentum: 4

  Minimum eigenvalue in the overlap matrix is 3.0236321351E-04.
  Using Symmetric Orthogonalization.
  SCF Guess: Reading in previously saved MOs, projecting if necessary.

  Using orbitals from previous SCF, no projection.
  Recomputing DOCC and SOCC from number of alpha and beta electrons from previous calculation.
              A 
    DOCC [    28 ]

  ==> Iterations <==

                           Total Energy        Delta E     RMS |[F,P]|

   @DF-RHF iter   0:  -345.02852811447531   -3.45029e+02   2.22265e-04 
   @DF-RHF iter   1:  -345.03305426154873   -4.52615e-03   3.58832e-05 
   @DF-RHF iter   2:  -345.03319355380074   -1.39292e-04   1.18415e-05 DIIS
   @DF-RHF iter   3:  -345.03321259656229   -1.90428e-05   3.42909e-06 DIIS
   @DF-RHF iter   4:  -345.03321344480867   -8.48246e-07   1.08069e-06 DIIS
   @DF-RHF iter   5:  -345.03321356865990   -1.23851e-07   4.07572e-07 DIIS
   @DF-RHF iter   6:  -345.03321359311053   -2.44506e-08   1.84913e-07 DIIS
   @DF-RHF iter   7:  -345.03321360003508   -6.92455e-09   8.27346e-08 DIIS
   @DF-RHF iter   8:  -345.03321360166649   -1.63141e-09   3.31836e-08 DIIS
   @DF-RHF iter   9:  -345.03321360190523   -2.38742e-10   9.38676e-09 DIIS

  ==> Post-Iterations <==

    Orbital Energies (a.u.)
    -----------------------

    Doubly Occupied:                                                      

       1A    -20.596752     2A    -20.534907     3A    -11.365880  
       4A    -11.278864     5A    -11.234741     6A    -11.219898  
       7A    -11.213251     8A     -1.473049     9A     -1.366236  
      10A     -1.079708    11A     -1.002723    12A     -0.940341  
      13A     -0.828862    14A     -0.769617    15A     -0.703760  
      16A     -0.685827    17A     -0.676551    18A     -0.634179  
      19A     -0.598455    20A     -0.574747    21A     -0.569997  
      22A     -0.530245    23A     -0.523819    24A     -0.499613  
      25A     -0.487632    26A     -0.475729    27A     -0.460549  
      28A     -0.442605  

    Virtual:                                                              

      29A      0.136582    30A      0.154525    31A      0.174718  
      32A      0.179322    33A      0.189911    34A      0.205299  
      35A      0.212802    36A      0.227367    37A      0.230529  
      38A      0.242444    39A      0.257495    40A      0.261884  
      41A      0.313977    42A      0.356338    43A      0.364133  
      44A      0.377658    45A      0.380737    46A      0.395421  
      47A      0.403696    48A      0.432297    49A      0.447361  
      50A      0.452263    51A      0.474178    52A      0.507609  
      53A      0.542042    54A      0.551088    55A      0.573581  
      56A      0.576310    57A      0.582273    58A      0.590013  
      59A      0.617629    60A      0.623994    61A      0.625137  
      62A      0.630458    63A      0.640823    64A      0.649151  
      65A      0.664991    66A      0.669689    67A      0.676520  
      68A      0.683209    69A      0.695504    70A      0.718078  
      71A      0.735074    72A      0.738225    73A      0.764318  
      74A      0.799788    75A      0.825593    76A      0.829928  
      77A      0.856660    78A      0.880343    79A      0.893723  
      80A      0.918484    81A      0.929803    82A      0.939585  
      83A      0.970842    84A      0.993466    85A      1.018962  
      86A      1.040815    87A      1.065733    88A      1.073497  
      89A      1.093830    90A      1.114624    91A      1.124264  
      92A      1.141400    93A      1.153786    94A      1.173480  
      95A      1.200232    96A      1.216414    97A      1.223650  
      98A      1.232906    99A      1.255971   100A      1.279037  
     101A      1.287344   102A      1.291021   103A      1.296600  
     104A      1.307252   105A      1.321576   106A      1.340410  
     107A      1.344885   108A      1.365966   109A      1.400730  
     110A      1.420730   111A      1.446193   112A      1.452942  
     113A      1.476889   114A      1.486793   115A      1.492654  
     116A      1.503007   117A      1.524828   118A      1.528105  
     119A      1.535175   120A      1.546837   121A      1.559614  
     122A      1.579217   123A      1.590909   124A      1.599116  
     125A      1.635907   126A      1.656705   127A      1.659538  
     128A      1.726339   129A      1.733254   130A      1.770992  
     131A      1.786719   132A      1.805220   133A      1.813423  
     134A      1.853172   135A      1.858935   136A      1.888017  
     137A      1.926497   138A      1.963917   139A      2.023657  
     140A      2.056174   141A      2.147502   142A      2.235711  
     143A      2.297596   144A      2.310213   145A      2.336156  
     146A      2.424941   147A      2.460572   148A      2.479104  
     149A      2.512639   150A      2.554636   151A      2.583533  
     152A      2.605642   153A      2.634752   154A      2.659442  
     155A      2.703215   156A      2.704237   157A      2.706544  
     158A      2.747393   159A      2.780130   160A      2.815863  
     161A      2.838026   162A      2.875420   163A      2.886447  
     164A      2.910864   165A      2.935266   166A      2.943819  
     167A      2.966090   168A      2.987287   169A      3.007302  
     170A      3.029004   171A      3.036721   172A      3.056911  
     173A      3.091276   174A      3.094226   175A      3.116390  
     176A      3.126869   177A      3.136374   178A      3.153785  
     179A      3.177169   180A      3.201322   181A      3.234545  
     182A      3.241783   183A      3.250944   184A      3.276211  
     185A      3.302468   186A      3.316270   187A      3.321824  
     188A      3.328950   189A      3.348622   190A      3.358889  
     191A      3.368962   192A      3.378414   193A      3.402027  
     194A      3.413895   195A      3.418442   196A      3.440249  
     197A      3.458562   198A      3.463182   199A      3.481448  
     200A      3.494150   201A      3.509479   202A      3.534269  
     203A      3.570152   204A      3.580063   205A      3.602427  
     206A      3.617473   207A      3.625433   208A      3.632415  
     209A      3.655481   210A      3.668350   211A      3.681840  
     212A      3.722195   213A      3.738197   214A      3.743091  
     215A      3.747053   216A      3.761140   217A      3.776595  
     218A      3.805600   219A      3.834289   220A      3.840339  
     221A      3.856589   222A      3.863710   223A      3.868463  
     224A      3.887486   225A      3.896915   226A      3.931578  
     227A      3.960528   228A      3.967937   229A      3.999061  
     230A      4.004644   231A      4.080908   232A      4.094661  
     233A      4.105570   234A      4.114931   235A      4.132905  
     236A      4.157365   237A      4.168456   238A      4.178864  
     239A      4.182664   240A      4.200735   241A      4.215872  
     242A      4.231342   243A      4.240372   244A      4.250234  
     245A      4.261469   246A      4.300103   247A      4.331220  
     248A      4.360720   249A      4.368656   250A      4.387331  
     251A      4.402562   252A      4.410870   253A      4.417213  
     254A      4.446403   255A      4.458248   256A      4.477364  
     257A      4.490520   258A      4.506610   259A      4.540713  
     260A      4.562745   261A      4.587580   262A      4.601661  
     263A      4.627021   264A      4.637194   265A      4.650100  
     266A      4.662064   267A      4.679934   268A      4.688565  
     269A      4.730770   270A      4.749700   271A      4.784805  
     272A      4.817940   273A      4.863103   274A      4.891287  
     275A      4.951940   276A      4.966211   277A      4.999262  
     278A      5.060350   279A      5.072782   280A      5.081436  
     281A      5.138469   282A      5.163146   283A      5.202205  
     284A      5.225213   285A      5.250067   286A      5.273645  
     287A      5.282055   288A      5.299232   289A      5.303229  
     290A      5.341075   291A      5.348717   292A      5.385758  
     293A      5.424241   294A      5.471777   295A      5.493996  
     296A      5.525318   297A      5.526794   298A      5.553367  
     299A      5.592880   300A      5.606555   301A      5.620541  
     302A      5.648162   303A      5.664923   304A      5.686492  
     305A      5.714140   306A      5.741746   307A      5.755795  
     308A      5.765486   309A      5.810048   310A      5.826899  
     311A      5.866147   312A      5.881146   313A      5.885022  
     314A      5.903754   315A      5.922953   316A      6.019944  
     317A      6.035972   318A      6.047001   319A      6.178123  
     320A      6.187747   321A      6.242452   322A      6.301696  
     323A      6.316145   324A      6.326475   325A      6.359048  
     326A      6.433116   327A      6.593043   328A      6.606659  
     329A      6.693140   330A      6.840518   331A      6.865536  
     332A      6.896436   333A      6.914887   334A      7.036410  
     335A      7.247239   336A      7.257237   337A      7.373604  
     338A      7.481291   339A      7.496996   340A      7.577418  
     341A      7.686870   342A      7.895141   343A      7.981747  
     344A      9.962505   345A     12.106020   346A     13.092273  
     347A     13.801637   348A     14.133906   349A     14.251213  
     350A     14.713593  

    Final Occupation by Irrep:
              A 
    DOCC [    28 ]

  Energy converged.

  @DF-RHF Final Energy:  -345.03321360190523

   => Energetics <=

    Nuclear Repulsion Energy =            312.6566102888626801
    One-Electron Energy =               -1089.8425688863057985
    Two-Electron Energy =                 432.1527449955383418
    DFT Exchange-Correlation Energy =       0.0000000000000000
    Empirical Dispersion Energy =           0.0000000000000000
    PCM Polarization Energy =               0.0000000000000000
    EFP Energy =                            0.0000000000000000
    Total Energy =                       -345.0332136019047766

    Alert: EFP and PCM quantities not currently incorporated into SCF psivars.

Properties will be evaluated at   0.000000,   0.000000,   0.000000 Bohr
  ==> Properties <==


Properties computed using the SCF density matrix

  Nuclear Dipole Moment: (a.u.)
     X:    -6.1077      Y:    -1.9490      Z:    -0.9312

  Electronic Dipole Moment: (a.u.)
     X:     6.1752      Y:     1.2366      Z:     0.9389

  Dipole Moment: (a.u.)
     X:     0.0674      Y:    -0.7125      Z:     0.0077     Total:     0.7157

  Dipole Moment: (Debye)
     X:     0.1713      Y:    -1.8109      Z:     0.0195     Total:     1.8191


  Saving occupied orbitals to File 180.

*** tstop() called on cx1-27-2-3 at Fri Sep  9 23:31:22 2016
Module time:
	user time   =      42.87 seconds =       0.71 minutes
	system time =       0.69 seconds =       0.01 minutes
	total time  =         13 seconds =       0.22 minutes
Total time:
	user time   =     198.40 seconds =       3.31 minutes
	system time =       2.39 seconds =       0.04 minutes
	total time  =         57 seconds =       0.95 minutes

*** tstart() called on cx1-27-2-3
*** at Fri Sep  9 23:31:22 2016


         ------------------------------------------------------------
                                   SCF GRAD                          
                          Rob Parrish, Justin Turney,                
                       Andy Simmonett, and Alex Sokolov              
         ------------------------------------------------------------

  ==> Geometry <==

    Molecular point group: c1
    Full point group: C1

    Geometry (in Angstrom), charge = 0, multiplicity = 1:

       Center              X                  Y                   Z               Mass       
    ------------   -----------------  -----------------  -----------------  -----------------
           O          0.760860772477     1.293580223106     0.101119772159    15.994914619560
           C          0.571960597384     0.125184326255     0.114558915226    12.000000000000
           C         -0.776335367616    -0.551080901743     0.064927416888    12.000000000000
           O          1.551895943885    -0.763105816821     0.101686445103    15.994914619560
           C         -1.974091656958     0.400220350401     0.054334663527    12.000000000000
           H         -0.788894848806    -1.211859432260    -0.795294309892     1.007825032070
           H         -0.818870126187    -1.216846779357     0.919861683745     1.007825032070
           C         -3.232213227602    -0.237565273218    -0.526501947452    12.000000000000
           H         -1.713610603424     1.304534574025    -0.477763654000     1.007825032070
           H         -2.175864377885     0.717892630103     1.071071288816     1.007825032070
           H         -3.088563381437    -0.497191209242    -1.569797850399     1.007825032070
           H         -4.074695050736     0.441272983093    -0.467834091139     1.007825032070
           H         -3.502548775741    -1.144691246984     0.004884694533     1.007825032070
           C          2.876156690144    -0.268997154625     0.105873422363    12.000000000000
           H          3.058344166130     0.341429019847    -0.766127559305     1.007825032070
           H          3.517235894391    -1.135438209383     0.094007318036     1.007825032070
           H          3.060470423778     0.319158345877     0.992595888771     1.007825032070

  Nuclear repulsion =  312.656610288862680

  ==> Basis Set <==

  Basis Set: CC-PVTZ
    Number of shells: 130
    Number of basis function: 350
    Number of Cartesian functions: 395
    Spherical Harmonics?: true
    Max angular momentum: 3

  ==> DFJKGrad: Density-Fitted SCF Gradients <==

    Gradient:                    1
    J tasked:                  Yes
    K tasked:                  Yes
    wK tasked:                  No
    OpenMP threads:              4
    Integrals threads:           4
    Memory (MB):              1430
    Schwarz Cutoff:          0E+00
    Fitting Condition:       1E-12

   => Auxiliary Basis Set <=

  Basis Set: 
    Number of shells: 275
    Number of basis function: 853
    Number of Cartesian functions: 1022
    Spherical Harmonics?: true
    Max angular momentum: 4


  -Total Gradient:
     Atom            X                  Y                   Z
    ------   -----------------  -----------------  -----------------
       1        0.000919318273    -0.000258412767    -0.004174811514
       2        0.000599892890    -0.000422035487     0.011726732149
       3        0.002925027959     0.002263347506    -0.004544134753
       4        0.000153805790     0.000720500745    -0.003228674266
       5       -0.001926125318    -0.001323094168    -0.004626330083
       6       -0.002630725736    -0.002658834823     0.001991204624
       7        0.001031693856     0.000781477278    -0.000477932025
       8       -0.001323292662     0.000130756635     0.000849659071
       9        0.000939411806     0.001306848615     0.003422753897
      10       -0.000436833316    -0.000428636365    -0.000684308798
      11        0.000350596036     0.000323891311     0.000245447044
      12       -0.000396022756    -0.000142456931    -0.000100702575
      13       -0.000362006853    -0.000294980633    -0.000183712328
      14        0.000102904222    -0.000037208893    -0.000161768384
      15        0.000120501043     0.000024151094    -0.000008722195
      16        0.000052877486     0.000032859581    -0.000054882148
      17       -0.000121022718    -0.000018172699     0.000010182281


*** tstop() called on cx1-27-2-3 at Fri Sep  9 23:31:48 2016
Module time:
	user time   =      98.51 seconds =       1.64 minutes
	system time =       1.03 seconds =       0.02 minutes
	total time  =         26 seconds =       0.43 minutes
Total time:
	user time   =     296.93 seconds =       4.95 minutes
	system time =       3.42 seconds =       0.06 minutes
	total time  =         83 seconds =       1.38 minutes
CURRENT ENERGY: -345.0332136019

			-----------------------------------------
			 OPTKING 2.0: for geometry optimizations 
			  - R.A. King,  Bethel University        
			-----------------------------------------

	Previous internal coordinate definitions found.
	---Fragment 1 Geometry and Gradient---
	 O           1.4378184852        2.4445123526        0.1910886760
	 C           1.0808488879        0.2365640928        0.2164849759
	 C          -1.4670612321       -1.0413919814        0.1226950364
	 O           2.9326583207       -1.4420610042        0.1921595327
	 C          -3.7304925929        0.7563068551        0.1026776336
	 H          -1.4907952119       -2.2900824385       -1.5028884407
	 H          -1.5474402769       -2.2995071587        1.7382866624
	 C          -6.1079978033       -0.4489333051       -0.9949444891
	 H          -3.2382547389        2.4652130758       -0.9028424623
	 H          -4.1117877765        1.3566204637        2.0240314047
	 H          -5.8365389350       -0.9395552211       -2.9664880212
	 H          -7.7000577209        0.8338850879       -0.8840783079
	 H          -6.6188579532       -2.1631529635        0.0092307349
	 C           5.4351484596       -0.5083309528        0.2000717730
	 H           5.7794328941        0.6452073413       -1.4477712699
	 H           6.6466125852       -2.1456672565        0.1776480856
	 H           5.7834509387        0.6031218667        1.8757343904
	             0.0009193183       -0.0002584128       -0.0041748115
	             0.0005998929       -0.0004220355        0.0117267321
	             0.0029250280        0.0022633475       -0.0045441348
	             0.0001538058        0.0007205007       -0.0032286743
	            -0.0019261253       -0.0013230942       -0.0046263301
	            -0.0026307257       -0.0026588348        0.0019912046
	             0.0010316939        0.0007814773       -0.0004779320
	            -0.0013232927        0.0001307566        0.0008496591
	             0.0009394118        0.0013068486        0.0034227539
	            -0.0004368333       -0.0004286364       -0.0006843088
	             0.0003505960        0.0003238913        0.0002454470
	            -0.0003960228       -0.0001424569       -0.0001007026
	            -0.0003620069       -0.0002949806       -0.0001837123
	             0.0001029042       -0.0000372089       -0.0001617684
	             0.0001205010        0.0000241511       -0.0000087222
	             0.0000528775        0.0000328596       -0.0000548821
	            -0.0001210227       -0.0000181727        0.0000101823

	---Fragment 1 Intrafragment Coordinates---
	 - Coordinate -           - BOHR/RAD -       - ANG/DEG -
	 R(1,2)           =         2.236763	       1.183644
	 R(2,3)           =         2.851984	       1.509205
	 R(2,4)           =         2.499514	       1.322686
	 R(3,5)           =         2.890544	       1.529610
	 R(3,6)           =         2.049954	       1.084789
	 R(3,7)           =         2.049256	       1.084420
	 R(4,14)          =         2.671024	       1.413445
	 R(5,8)           =         2.882691	       1.525455
	 R(5,9)           =         2.042971	       1.081094
	 R(5,10)          =         2.048747	       1.084150
	 R(8,11)          =         2.049728	       1.084669
	 R(8,12)          =         2.047576	       1.083531
	 R(8,13)          =         2.051315	       1.085509
	 R(14,15)         =         2.040728	       1.079907
	 R(14,16)         =         2.036914	       1.077889
	 R(14,17)         =         2.040708	       1.079896
	 B(1,2,3)         =         2.195090	     125.769400
	 B(1,2,4)         =         2.146687	     122.996098
	 B(2,3,5)         =         2.005462	     114.904506
	 B(2,3,6)         =         1.885326	     108.021212
	 B(2,3,7)         =         1.858985	     106.512023
	 B(2,4,14)        =         2.048029	     117.343412
	 B(3,2,4)         =         1.939736	     111.138677
	 B(3,5,8)         =         1.969726	     112.857008
	 B(3,5,9)         =         1.912367	     109.570538
	 B(3,5,10)        =         1.898081	     108.752004
	 B(4,14,15)       =         1.931862	     110.687542
	 B(4,14,16)       =         1.850627	     106.033132
	 B(4,14,17)       =         1.931288	     110.654668
	 B(5,3,6)         =         1.943651	     111.363013
	 B(5,3,7)         =         1.935388	     110.889592
	 B(5,8,11)        =         1.935944	     110.921413
	 B(5,8,12)        =         1.937689	     111.021415
	 B(5,8,13)        =         1.948075	     111.616464
	 B(6,3,7)         =         1.824252	     104.521952
	 B(8,5,9)         =         1.940180	     111.164113
	 B(8,5,10)        =         1.902971	     109.032189
	 B(9,5,10)        =         1.835187	     105.148480
	 B(11,8,12)       =         1.880749	     107.758995
	 B(11,8,13)       =         1.879487	     107.686697
	 B(12,8,13)       =         1.879064	     107.662434
	 B(15,14,16)      =         1.923189	     110.190605
	 B(15,14,17)      =         1.903266	     109.049083
	 B(16,14,17)      =         1.923385	     110.201819
	 D(1,2,3,5)       =        -0.045352	      -2.598454
	 D(1,2,3,6)       =         2.136077	     122.388169
	 D(1,2,3,7)       =        -2.195720	    -125.805518
	 D(1,2,4,14)      =         0.028227	       1.617271
	 D(2,3,5,8)       =         2.751859	     157.669885
	 D(2,3,5,9)       =         0.579798	      33.219970
	 D(2,3,5,10)      =        -1.417383	     -81.210075
	 D(2,4,14,15)     =        -1.056155	     -60.513232
	 D(2,4,14,16)     =         3.141410	     179.989542
	 D(2,4,14,17)     =         1.055867	      60.496737
	 D(3,2,4,14)      =         3.110927	     178.243014
	 D(3,5,8,11)      =        -1.107561	     -63.458551
	 D(3,5,8,12)      =         3.084994	     176.757141
	 D(3,5,8,13)      =         0.988392	      56.630671
	 D(4,2,3,5)       =        -3.126066	    -179.110394
	 D(4,2,3,6)       =        -0.944638	     -54.123771
	 D(4,2,3,7)       =         1.006750	      57.682542
	 D(6,3,5,8)       =         0.601264	      34.449916
	*D(6,3,5,9)       =        -1.570796	     -89.999999
	 D(6,3,5,10)      =         2.715208	     155.569957
	 D(7,3,5,8)       =        -1.422325	     -81.493210
	 D(7,3,5,9)       =         2.688800	     154.056876
	 D(7,3,5,10)      =         0.691619	      39.626831
	 D(9,5,8,11)      =         1.049198	      60.114605
	 D(9,5,8,12)      =        -1.041433	     -59.669702
	 D(9,5,8,13)      =        -3.138035	    -179.796173
	 D(10,5,8,11)     =         3.064462	     175.580734
	 D(10,5,8,12)     =         0.973831	      55.796426
	 D(10,5,8,13)     =        -1.122771	     -64.330044

	Current energy   :      -345.0332136019

	Energy change for the previous step:
		Projected    :         0.0007808790
		Actual       :         0.0000227925

	Performing BFGS update.
	Previous computed or guess Hessian on step 1.
	Steps to be used in Hessian update: 1
	Taking RFO optimization step.
	Going to follow RFO solution 1.
	Using RFO vector 1.
	Norm of target step-size    0.30295
	Projected energy change by RFO approximation:         0.0001643293

	Back-transformation to cartesian coordinates...
	Successfully converged to displaced geometry.

	Back-transformation to cartesian coordinates to adjust frozen coordinates...
	Successfully converged to displaced geometry.

	--- Internal Coordinate Step in ANG or DEG, aJ/ANG or AJ/DEG ---
	 ---------------------------------------------------------------------------
	   Coordinate                Previous        Force       Change         New 
	   ----------                --------       ------       ------       ------
	    1 R(1,2)          =      1.183644     0.000502     0.000034     1.183678
	    2 R(2,3)          =      1.509205    -0.014724     0.001073     1.510279
	    3 R(2,4)          =      1.322686     0.001833    -0.000107     1.322579
	    4 R(3,5)          =      1.529610    -0.018219     0.006506     1.536116
	    5 R(3,6)          =      1.084789    -0.000585    -0.000449     1.084340
	    6 R(3,7)          =      1.084420     0.007390    -0.000174     1.084245
	    7 R(4,14)         =      1.413445    -0.001198    -0.000157     1.413289
	    8 R(5,8)          =      1.525455    -0.009158    -0.000182     1.525273
	    9 R(5,9)          =      1.081094     0.003008    -0.002113     1.078980
	   10 R(5,10)         =      1.084150     0.005652     0.001514     1.085664
	   11 R(8,11)         =      1.084669     0.002201    -0.000219     1.084450
	   12 R(8,12)         =      1.083531    -0.001757     0.000145     1.083676
	   13 R(8,13)         =      1.085509    -0.002033     0.000336     1.085845
	   14 R(14,15)        =      1.079907    -0.000338     0.000045     1.079952
	   15 R(14,16)        =      1.077889    -0.000046     0.000075     1.077964
	   16 R(14,17)        =      1.079896     0.000183     0.000084     1.079980
	   17 B(1,2,3)        =    125.769400    -0.000047     0.223947   125.993348
	   18 B(1,2,4)        =    122.996098     0.000091    -0.203864   122.792235
	   19 B(2,3,5)        =    114.904506    -0.000118     0.997217   115.901723
	   20 B(2,3,6)        =    108.021212    -0.000007     0.589698   108.610911
	   21 B(2,3,7)        =    106.512023     0.000117    -0.452520   106.059503
	   22 B(2,4,14)       =    117.343412    -0.000001     0.013399   117.356812
	   23 B(3,2,4)        =    111.138677    -0.000028    -0.268167   110.870510
	   24 B(3,5,8)        =    112.857008    -0.000093     0.606992   113.464000
	   25 B(3,5,9)        =    109.570538     0.000014     0.181572   109.752110
	   26 B(3,5,10)       =    108.752004     0.000010    -0.460326   108.291678
	   27 B(4,14,15)      =    110.687542    -0.000014    -0.003505   110.684037
	   28 B(4,14,16)      =    106.033132    -0.000008     0.025543   106.058675
	   29 B(4,14,17)      =    110.654668     0.000017     0.024394   110.679062
	   30 B(5,3,6)        =    111.363013     0.000074     0.250200   111.613213
	   31 B(5,3,7)        =    110.889592    -0.000031    -0.333727   110.555865
	   32 B(5,8,11)       =    110.921413     0.000067    -0.276753   110.644661
	   33 B(5,8,12)       =    111.021415    -0.000042     0.038417   111.059833
	   34 B(5,8,13)       =    111.616464    -0.000051     0.172782   111.789247
	   35 B(6,3,7)        =    104.521952    -0.000025    -1.314631   103.207321
	   36 B(8,5,9)        =    111.164113     0.000032     1.209228   112.373341
	   37 B(8,5,10)       =    109.032189     0.000069    -0.722149   108.310040
	   38 B(9,5,10)       =    105.148480    -0.000027    -1.007592   104.140887
	   39 B(11,8,12)      =    107.758995    -0.000003     0.076788   107.835784
	   40 B(11,8,13)      =    107.686697    -0.000003     0.029496   107.716193
	   41 B(12,8,13)      =    107.662434     0.000034    -0.037056   107.625377
	   42 B(15,14,16)     =    110.190605     0.000007    -0.012125   110.178481
	   43 B(15,14,17)     =    109.049083     0.000000    -0.014649   109.034434
	   44 B(16,14,17)     =    110.201819    -0.000003    -0.018980   110.182839
	   45 D(1,2,3,5)      =     -2.598454     0.000031     3.861756     1.263302
	   46 D(1,2,3,6)      =    122.388169     0.000033     5.430234   127.818404
	   47 D(1,2,3,7)      =   -125.805518     0.000038     3.977478  -121.828040
	   48 D(1,2,4,14)     =      1.617271    -0.000032    -4.810347    -3.193076
	   49 D(2,3,5,8)      =    157.669885    -0.000013     3.998129   161.668013
	   50 D(2,3,5,9)      =     33.219970    -0.000009     1.810098    35.030068
	   51 D(2,3,5,10)     =    -81.210075    -0.000005     3.155531   -78.054543
	   52 D(2,4,14,15)    =    -60.513232    -0.000001    -0.088831   -60.602062
	   53 D(2,4,14,16)    =    179.989542     0.000000    -0.087619   179.901923
	   54 D(2,4,14,17)    =     60.496737    -0.000000    -0.093349    60.403388
	   55 D(3,2,4,14)     =    178.243014     0.000035     4.931487   183.174500
	   56 D(3,5,8,11)     =    -63.458551     0.000003    -2.277826   -65.736378
	   57 D(3,5,8,12)     =    176.757141     0.000000    -2.216912   174.540229
	   58 D(3,5,8,13)     =     56.630671     0.000005    -2.312953    54.317718
	   59 D(4,2,3,5)      =   -179.110394    -0.000040    -6.243308  -185.353702
	   60 D(4,2,3,6)      =    -54.123771    -0.000038    -4.674829   -58.798601
	   61 D(4,2,3,7)      =     57.682542    -0.000033    -6.127586    51.554956
	   62 D(6,3,5,8)      =     34.449916    -0.000003     2.188031    36.637947
	   63 *D(6,3,5,9)     =    -89.999999     0.000000    -0.000000   -89.999999
	   64 D(6,3,5,10)     =    155.569957     0.000004     1.345434   156.915390
	   65 D(7,3,5,8)      =    -81.493210    -0.000002     3.861193   -77.632017
	   66 D(7,3,5,9)      =    154.056876     0.000001     1.673162   155.730037
	   67 D(7,3,5,10)     =     39.626831     0.000005     3.018595    42.645426
	   68 D(9,5,8,11)     =     60.114605    -0.000003    -0.605636    59.508969
	   69 D(9,5,8,12)     =    -59.669702    -0.000006    -0.544722   -60.214424
	   70 D(9,5,8,13)     =   -179.796173    -0.000001    -0.640763  -180.436935
	   71 D(10,5,8,11)    =    175.580734     0.000003    -1.584151   173.996583
	   72 D(10,5,8,12)    =     55.796426     0.000000    -1.523236    54.273190
	   73 D(10,5,8,13)    =    -64.330044     0.000005    -1.619277   -65.949321
	 ---------------------------------------------------------------------------

  ==> Convergence Check <==

  Measures of convergence in internal coordinates in au.
  Criteria marked as inactive (o), active & met (*), and active & unmet ( ).
  ---------------------------------------------------------------------------------------------
   Step     Total Energy     Delta E     MAX Force     RMS Force      MAX Disp      RMS Disp   
  ---------------------------------------------------------------------------------------------
    Convergence Criteria    1.00e-06 *    3.00e-04 *             o    1.20e-03 *             o
  ---------------------------------------------------------------------------------------------
      2    -345.03321360    2.28e-05      2.26e-03      8.84e-04 o    1.09e-01      3.54e-02 o  ~
  ---------------------------------------------------------------------------------------------

	Writing optimization data to binary file.
	Structure for next step:
	Cartesian Geometry (in Angstrom)
	    O     0.7907537721   1.3032545142   0.0709156837
	    C     0.5928927955   0.1388942150  -0.0078853220
	    C    -0.7601556354  -0.5312985335  -0.0401777244
	    O     1.5617346912  -0.7586775520   0.0623015985
	    C    -1.9752100208   0.4073386559   0.0072992248
	    H    -0.7988639674  -1.1915854494  -0.8994312643
	    H    -0.7755089303  -1.2166919615   0.7998152069
	    C    -3.2685071987  -0.2490260130  -0.4649556038
	    H    -1.7553018959   1.3160051845  -0.5313693039
	    H    -2.1134668774   0.7341034469   1.0333478594
	    H    -3.2091931234  -0.4958095066  -1.5192855346
	    H    -4.1147020947   0.4135976099  -0.3262574298
	    H    -3.4766311301  -1.1661352566   0.0778652661
	    C     2.8862757143  -0.2775496124   0.1695003616
	    H     3.1441372969   0.3243988815  -0.6892551399
	    H     3.5176781491  -1.1500489629   0.2151278820
	    H     3.0053050117   0.3157266101   1.0640462620
			--------------------------
			 OPTKING Finished Execution 
			--------------------------

    Structure for next step:
    Molecular point group: c1
    Full point group: C1

    Geometry (in Angstrom), charge = 0, multiplicity = 1:

    O            0.783862324473     1.298965454608     0.097224522464
    C            0.586001362936     0.134605244356     0.018423522777
    C           -0.767046964591    -0.535587452913    -0.013868877089
    O            1.554843184701    -0.762966454135     0.088610437935
    C           -1.982101257206     0.403049664784     0.033608068389
    H           -0.805755293596    -1.195874318389    -0.873122351376
    H           -0.782400258362    -1.220980828656     0.826123989976
    C           -3.275398336356    -0.253314953994    -0.438646724102
    H           -1.762193149075     1.311716123944    -0.505060419138
    H           -2.120358103270     0.729814430817     1.059656624642
    H           -3.216084265617    -0.500098428726    -1.492976574342
    H           -4.121593167720     0.409308618275    -0.299948560710
    H           -3.483522251892    -1.170424127552     0.104174104343
    C            2.879384106655    -0.281838551277     0.195809192874
    H            3.137245669513     0.320109896704    -0.662946243120
    H            3.510786493194    -1.154337835103     0.241436709801
    H            2.998413394945     0.311437625921     1.090355024973

gradient() will perform analytic gradient computation.

*** tstart() called on cx1-27-2-3
*** at Fri Sep  9 23:31:48 2016


         ---------------------------------------------------------
                                   SCF
            by Justin Turney, Rob Parrish, and Andy Simmonett
                              RHF Reference
                        4 Threads,   2000 MiB Core
         ---------------------------------------------------------

  ==> Geometry <==

    Molecular point group: c1
    Full point group: C1

    Geometry (in Angstrom), charge = 0, multiplicity = 1:

       Center              X                  Y                   Z               Mass       
    ------------   -----------------  -----------------  -----------------  -----------------
           O          0.783862324473     1.298965454608     0.097224522464    15.994914619560
           C          0.586001362936     0.134605244356     0.018423522777    12.000000000000
           C         -0.767046964591    -0.535587452913    -0.013868877089    12.000000000000
           O          1.554843184701    -0.762966454135     0.088610437935    15.994914619560
           C         -1.982101257206     0.403049664784     0.033608068389    12.000000000000
           H         -0.805755293596    -1.195874318389    -0.873122351376     1.007825032070
           H         -0.782400258362    -1.220980828656     0.826123989976     1.007825032070
           C         -3.275398336356    -0.253314953994    -0.438646724102    12.000000000000
           H         -1.762193149075     1.311716123944    -0.505060419138     1.007825032070
           H         -2.120358103270     0.729814430817     1.059656624642     1.007825032070
           H         -3.216084265617    -0.500098428726    -1.492976574342     1.007825032070
           H         -4.121593167720     0.409308618275    -0.299948560710     1.007825032070
           H         -3.483522251892    -1.170424127552     0.104174104343     1.007825032070
           C          2.879384106655    -0.281838551277     0.195809192874    12.000000000000
           H          3.137245669513     0.320109896704    -0.662946243120     1.007825032070
           H          3.510786493194    -1.154337835103     0.241436709801     1.007825032070
           H          2.998413394945     0.311437625921     1.090355024973     1.007825032070

  Running in c1 symmetry.

  Rotational constants: A =      0.28416  B =      0.03966  C =      0.03585 [cm^-1]
  Rotational constants: A =   8518.87801  B =   1189.03829  C =   1074.67178 [MHz]
  Nuclear repulsion =  312.049093561396091

  Charge       = 0
  Multiplicity = 1
  Electrons    = 56
  Nalpha       = 28
  Nbeta        = 28

  ==> Algorithm <==

  SCF Algorithm Type is DF.
  DIIS enabled.
  MOM disabled.
  Fractional occupation disabled.
  Guess Type is READ.
  Energy threshold   = 1.00e-08
  Density threshold  = 1.00e-08
[...]
	 H          -6.6177171883       -2.1425115270        0.0623751020
	 C           5.4324555606       -0.5021864258        0.2293323744
	 H           5.8061728965        0.6566974923       -1.4083206786
	 H           6.6473593512       -2.1371220028        0.2257662203
	 H           5.7461934858        0.6051559424        1.9145400845
	             0.0000127010        0.0000023465       -0.0000089152
	            -0.0000058566        0.0000069064       -0.0000178976
	             0.0027488774        0.0034692661       -0.0016702466
	             0.0000046109        0.0000013612        0.0000152912
	            -0.0020147594       -0.0024953446       -0.0033541483
	            -0.0019617341       -0.0024672779        0.0019272078
	            -0.0000063180       -0.0000014407       -0.0000188135
	            -0.0000001358       -0.0000023521       -0.0000030969
	             0.0012208709        0.0014886806        0.0031240630
	            -0.0000015399       -0.0000012575        0.0000093372
	            -0.0000006852       -0.0000017181       -0.0000010284
	             0.0000029422        0.0000006538       -0.0000003347
	            -0.0000016635        0.0000006813        0.0000004983
	             0.0000038905        0.0000005004       -0.0000006065
	            -0.0000007520       -0.0000000691       -0.0000004603
	            -0.0000002714       -0.0000001723       -0.0000001982
	            -0.0000001770       -0.0000007640       -0.0000006513

	---Fragment 1 Intrafragment Coordinates---
	 - Coordinate -           - BOHR/RAD -       - ANG/DEG -
	 R(1,2)           =         2.236711	       1.183617
	 R(2,3)           =         2.847107	       1.506624
	 R(2,4)           =         2.499735	       1.322803
	 R(3,5)           =         2.885134	       1.526747
	 R(3,6)           =         2.050415	       1.085033
	 R(3,7)           =         2.051041	       1.085364
	 R(4,14)          =         2.670755	       1.413303
	 R(5,8)           =         2.879292	       1.523656
	 R(5,9)           =         2.044073	       1.081677
	 R(5,10)          =         2.050325	       1.084985
	 R(8,11)          =         2.050150	       1.084892
	 R(8,12)          =         2.047190	       1.083326
	 R(8,13)          =         2.050866	       1.085272
	 R(14,15)         =         2.040731	       1.079909
	 R(14,16)         =         2.036914	       1.077888
	 R(14,17)         =         2.040726	       1.079906
	 B(1,2,3)         =         2.193058	     125.652974
	 B(1,2,4)         =         2.149817	     123.175450
	 B(2,3,5)         =         1.999869	     114.584032
	 B(2,3,6)         =         1.886398	     108.082641
	 B(2,3,7)         =         1.863388	     106.764244
	 B(2,4,14)        =         2.047926	     117.337519
	 B(3,2,4)         =         1.940305	     111.171306
	 B(3,5,8)         =         1.965954	     112.640874
	 B(3,5,9)         =         1.910182	     109.445391
	 B(3,5,10)        =         1.898892	     108.798490
	 B(4,14,15)       =         1.931749	     110.681085
	 B(4,14,16)       =         1.850410	     106.020702
	 B(4,14,17)       =         1.931616	     110.673439
	 B(5,3,6)         =         1.945443	     111.465652
	 B(5,3,7)         =         1.934889	     110.860950
	 B(5,8,11)        =         1.940641	     111.190563
	 B(5,8,12)        =         1.935884	     110.918011
	 B(5,8,13)        =         1.944124	     111.390114
	 B(6,3,7)         =         1.823644	     104.487111
	 B(8,5,9)         =         1.939789	     111.141751
	 B(8,5,10)        =         1.909863	     109.427077
	 B(9,5,10)        =         1.834126	     105.087681
	 B(11,8,12)       =         1.881296	     107.790328
	 B(11,8,13)       =         1.879623	     107.694475
	 B(12,8,13)       =         1.879510	     107.687996
	 B(15,14,16)      =         1.923224	     110.192603
	 B(15,14,17)      =         1.903273	     109.049514
	 B(16,14,17)      =         1.923340	     110.199293
	 D(1,2,3,5)       =        -0.006326	      -0.362425
	 D(1,2,3,6)       =         2.174280	     124.577043
	 D(1,2,3,7)       =        -2.155655	    -123.509917
	 D(1,2,4,14)      =        -0.000873	      -0.050002
	 D(2,3,5,8)       =         2.745597	     157.311129
	 D(2,3,5,9)       =         0.578378	      33.138599
	 D(2,3,5,10)      =        -1.416818	     -81.177689
	 D(2,4,14,15)     =        -1.055823	     -60.494183
	 D(2,4,14,16)     =        -3.141294	    -179.982885
	 D(2,4,14,17)     =         1.056353	      60.524547
	 D(3,2,4,14)      =        -3.139330	    -179.870384
	 D(3,5,8,11)      =        -1.088849	     -62.386449
	 D(3,5,8,12)      =         3.101101	     177.679988
	 D(3,5,8,13)      =         1.007803	      57.742857
	 D(4,2,3,5)       =         3.132038	     179.452555
	 D(4,2,3,6)       =        -0.970542	     -55.607977
	 D(4,2,3,7)       =         0.982709	      56.305063
	 D(6,3,5,8)       =         0.596423	      34.172531
	*D(6,3,5,9)       =        -1.570796	     -89.999999
	 D(6,3,5,10)      =         2.717193	     155.683713
	 D(7,3,5,8)       =        -1.427204	     -81.772780
	 D(7,3,5,9)       =         2.688762	     154.054690
	 D(7,3,5,10)      =         0.693566	      39.738402
	 D(9,5,8,11)      =         1.061955	      60.845537
	 D(9,5,8,12)      =        -1.031281	     -59.088025
	 D(9,5,8,13)      =        -3.124578	    -179.025156
	 D(10,5,8,11)     =         3.079811	     176.460176
	 D(10,5,8,12)     =         0.986576	      56.526613
	 D(10,5,8,13)     =        -1.106722	     -63.410517

	Current energy   :      -345.0335104454

	Energy change for the previous step:
		Projected    :        -0.0000002697
		Actual       :        -0.0000002801

	Performing BFGS update.
	Previous computed or guess Hessian on step 1.
	Steps to be used in Hessian update: 6 5
	Taking RFO optimization step.
	Going to follow RFO solution 1.
	Rejecting RFO root 1 because normalization gives large value.
	Rejecting RFO root 2 because normalization gives large value.
	Using RFO vector 3.

	Determining step-restricting scale parameter for RS-RFO.
	Maximum step size allowed    1.00000

	 Iter      |step|        alpha        rfo_root  
	------------------------------------------------
	    0   112.39894       1.00000           3
	    1    56.45196       1.99115           3
	    2    28.47958       3.94722           3
	    3    14.49559       7.75659           3
	    4     7.50802      14.98085           3
	    5     4.02304      27.97597           3
	    6     2.29801      49.02693           3
	    7     1.46924      76.78601           3
	    8     1.11391     101.40185           3
	    9     1.01061     111.82256           3
	   10     1.00011     113.00346           3
	   11     1.00000     113.01606           3
	------------------------------------------------
	Norm of target step-size    1.00000
	Projected energy change by RFO approximation:        -0.0003164343

	Back-transformation to cartesian coordinates...
	Successfully converged to displaced geometry.

	Back-transformation to cartesian coordinates to adjust frozen coordinates...
	Successfully converged to displaced geometry.

	--- Internal Coordinate Step in ANG or DEG, aJ/ANG or AJ/DEG ---
	 ---------------------------------------------------------------------------
	   Coordinate                Previous        Force       Change         New 
	   ----------                --------       ------       ------       ------
	    1 R(1,2)          =      1.183617    -0.000034     0.000953     1.184569
	    2 R(2,3)          =      1.506624    -0.000139     0.004956     1.511580
	    3 R(2,4)          =      1.322803    -0.000040     0.000734     1.323537
	    4 R(3,5)          =      1.526747     0.000093     0.002515     1.529262
	    5 R(3,6)          =      1.085033    -0.000135     0.001200     1.086233
	    6 R(3,7)          =      1.085364     0.000113    -0.002138     1.083226
	    7 R(4,14)         =      1.413303    -0.000019    -0.000299     1.413004
	    8 R(5,8)          =      1.523656    -0.000019     0.000848     1.524504
	    9 R(5,9)          =      1.081677     0.000064    -0.001758     1.079919
	   10 R(5,10)         =      1.084985    -0.000071    -0.000496     1.084489
	   11 R(8,11)         =      1.084892    -0.000011     0.000363     1.085255
	   12 R(8,12)         =      1.083326     0.000015     0.000261     1.083588
	   13 R(8,13)         =      1.085272    -0.000001     0.000530     1.085801
	   14 R(14,15)        =      1.079909    -0.000002    -0.000063     1.079846
	   15 R(14,16)        =      1.077888     0.000000     0.000087     1.077976
	   16 R(14,17)        =      1.079906     0.000008     0.000037     1.079943
	   17 B(1,2,3)        =    125.652974    -0.000001     0.348031   126.001004
	   18 B(1,2,4)        =    123.175450     0.000001    -0.409305   122.766145
	   19 B(2,3,5)        =    114.584032    -0.000001    -2.579395   112.004636
	   20 B(2,3,6)        =    108.082641     0.000001    -8.278230    99.804411
	   21 B(2,3,7)        =    106.764244    -0.000001     0.466494   107.230738
	   22 B(2,4,14)       =    117.337519    -0.000000     0.093860   117.431379
	   23 B(3,2,4)        =    111.171306     0.000000     0.061514   111.232819
	   24 B(3,5,8)        =    112.640874    -0.000000     0.922461   113.563335
	   25 B(3,5,9)        =    109.445391     0.000001     9.345770   118.791162
	   26 B(3,5,10)       =    108.798490    -0.000000     2.316126   111.114616
	   27 B(4,14,15)      =    110.681085     0.000000    -0.020507   110.660578
	   28 B(4,14,16)      =    106.020702     0.000000     0.044450   106.065152
	   29 B(4,14,17)      =    110.673439    -0.000000    -0.004480   110.668959
	   30 B(5,3,6)        =    111.465652     0.000000     5.754869   117.220521
	   31 B(5,3,7)        =    110.860950     0.000001    10.831922   121.692872
	   32 B(5,8,11)       =    111.190563    -0.000000    -0.059380   111.131183
	   33 B(5,8,12)       =    110.918011     0.000000     0.008453   110.926464
	   34 B(5,8,13)       =    111.390114    -0.000000     0.232061   111.622175
	   35 B(6,3,7)        =    104.487111    -0.000000    -8.675701    95.811410
	   36 B(8,5,9)        =    111.141751    -0.000000    -4.960836   106.180914
	   37 B(8,5,10)       =    109.427077     0.000000    -1.107772   108.319305
	   38 B(9,5,10)       =    105.087681    -0.000000    -7.708322    97.379359
	   39 B(11,8,12)      =    107.790328    -0.000000     0.012632   107.802960
	   40 B(11,8,13)      =    107.694475     0.000000    -0.056822   107.637654
	   41 B(12,8,13)      =    107.687996    -0.000000    -0.147984   107.540013
	   42 B(15,14,16)     =    110.192603    -0.000000    -0.000141   110.192463
	   43 B(15,14,17)     =    109.049514    -0.000000    -0.014023   109.035491
	   44 B(16,14,17)     =    110.199293    -0.000000    -0.004098   110.195195
	   45 D(1,2,3,5)      =     -0.362425     0.000000    23.022247    22.659822
	   46 D(1,2,3,6)      =    124.577043     0.000000    22.868142   147.445185
	   47 D(1,2,3,7)      =   -123.509917     0.000000    10.230415  -113.279503
	   48 D(1,2,4,14)     =     -0.050002     0.000000     0.946960     0.896958
	   49 D(2,3,5,8)      =    157.311129     0.000000    -6.914190   150.396939
	   50 D(2,3,5,9)      =     33.138599     0.000000    -8.656374    24.482226
	   51 D(2,3,5,10)     =    -81.177689     0.000000    -6.013724   -87.191413
	   52 D(2,4,14,15)    =    -60.494183    -0.000000     0.034007   -60.460176
	   53 D(2,4,14,16)    =   -179.982885    -0.000000     0.018829  -179.964056
	   54 D(2,4,14,17)    =     60.524547    -0.000000    -0.000322    60.524225
	   55 D(3,2,4,14)     =   -179.870384     0.000000     0.706602  -179.163782
	   56 D(3,5,8,11)     =    -62.386449    -0.000000     0.150915   -62.235534
	   57 D(3,5,8,12)     =    177.679988    -0.000000     0.168772   177.848761
	   58 D(3,5,8,13)     =     57.742857    -0.000000     0.195339    57.938197
	   59 D(4,2,3,5)      =    179.452555     0.000000    23.270400   202.722955
	   60 D(4,2,3,6)      =    -55.607977     0.000000    23.116295   -32.491682
	   61 D(4,2,3,7)      =     56.305063     0.000000    10.478568    66.783631
	   62 D(6,3,5,8)      =     34.172531    -0.000000     1.742184    35.914715
	   63 *D(6,3,5,9)     =    -89.999999     0.000000     0.000000   -89.999999
	   64 D(6,3,5,10)     =    155.683713    -0.000000     2.642649   158.326362
	   65 D(7,3,5,8)      =    -81.772780    -0.000000     0.852575   -80.920204
	   66 D(7,3,5,9)      =    154.054690    -0.000000    -0.889608   153.165082
	   67 D(7,3,5,10)     =     39.738402    -0.000000     1.753041    41.491443
	   68 D(9,5,8,11)     =     60.845537     0.000000     9.268428    70.113965
	   69 D(9,5,8,12)     =    -59.088025     0.000000     9.286285   -49.801740
	   70 D(9,5,8,13)     =   -179.025156     0.000000     9.312852  -169.712304
	   71 D(10,5,8,11)    =    176.460176    -0.000000    -2.639773   173.820403
	   72 D(10,5,8,12)    =     56.526613    -0.000000    -2.621916    53.904698
	   73 D(10,5,8,13)    =    -63.410517    -0.000000    -2.595349   -66.005866
	 ---------------------------------------------------------------------------

  ==> Convergence Check <==

  Measures of convergence in internal coordinates in au.
  Criteria marked as inactive (o), active & met (*), and active & unmet ( ).
  ---------------------------------------------------------------------------------------------
   Step     Total Energy     Delta E     MAX Force     RMS Force      MAX Disp      RMS Disp   
  ---------------------------------------------------------------------------------------------
    Convergence Criteria    1.00e-06 *    3.00e-04 *             o    1.20e-03 *             o
  ---------------------------------------------------------------------------------------------
      7    -345.03351045   -2.80e-07 *    1.69e-05 *    5.97e-06 o    4.06e-01      1.17e-01 o  ~
  ---------------------------------------------------------------------------------------------


  **** Optimization is complete! (in 7 steps) ****

  ==> Optimization Summary <==

  Measures of convergence in internal coordinates in au.
  --------------------------------------------------------------------------------------------------------------- ~
   Step         Total Energy             Delta E       MAX Force       RMS Force        MAX Disp        RMS Disp  ~
  --------------------------------------------------------------------------------------------------------------- ~
      1    -345.033236394389   -345.033236394389      0.00430883      0.00087498      0.07546344      0.02682927  ~
      2    -345.033213601905      0.000022792483      0.00226428      0.00088381      0.10896628      0.03541913  ~
      3    -345.032236923233      0.000976678672      0.00732228      0.00192016      0.07361226      0.02558004  ~
      4    -345.033487851671     -0.001250928438      0.00077721      0.00021443      0.04808318      0.01587083  ~
      5    -345.033505948271     -0.000018096600      0.00013369      0.00004449      0.01995426      0.00674612  ~
      6    -345.033510165284     -0.000004217013      0.00006416      0.00001900      0.00259004      0.00110611  ~
      7    -345.033510445432     -0.000000280148      0.00001690      0.00000597      0.40614510      0.11696580  ~
  --------------------------------------------------------------------------------------------------------------- ~

	Writing optimization data to binary file.
	Final energy is   -345.0335104454316
	Final (previous) structure:
	Cartesian Geometry (in Angstrom)
	    O     0.7528712737   1.2929375619   0.1076550219
	    C     0.5700938778   0.1237254048   0.0856592008
	    C    -0.7749160267  -0.5544154825   0.0541978206
	    O     1.5520248072  -0.7626162845   0.0898839794
	    C    -1.9672969724   0.3990740668   0.0606692972
	    H    -0.7991455985  -1.2146555822  -0.8064951052
	    H    -0.8090906016  -1.2218279259   0.9094221714
	    C    -3.2288656910  -0.2355154404  -0.5114039099
	    H    -1.7084037395   1.3030583013  -0.4739445114
	    H    -2.1544160967   0.7179792511   1.0807080701
	    H    -3.0927333605  -0.5093684362  -1.5522997839
	    H    -4.0658586784   0.4500475750  -0.4562522083
	    H    -3.5019453763  -1.1337683558   0.0330074849
	    C     2.8747318889  -0.2657456313   0.1213574750
	    H     3.0724946006   0.3475093724  -0.7452512624
	    H     3.5176313346  -1.1309163422   0.1194703474
	    H     3.0407548610   0.3202347568   1.0131310550
	Saving final (previous) structure.
			--------------------------
			 OPTKING Finished Execution 
			--------------------------

    Final optimized geometry and variables:
    Molecular point group: c1
    Full point group: C1

    Geometry (in Angstrom), charge = 0, multiplicity = 1:

    O            0.752871216198     1.292937463152     0.107655013654
    C            0.570093834301     0.123725395334     0.085659194235
    C           -0.774915967558    -0.554415440157     0.054197816440
    O            1.552024688681    -0.762616226214     0.089883972524
    C           -1.967296822147     0.399074036355     0.060669292555
    H           -0.799145537431    -1.214655489462    -0.806495043629
    H           -0.809090539863    -1.221827832637     0.909422101987
    C           -3.228865444408    -0.235515422435    -0.511403870881
    H           -1.708403609079     1.303058201781    -0.473944475193
    H           -2.154415932226     0.717979196254     1.080707987615
    H           -3.092733124348    -0.509368397255    -1.552299665322
    H           -4.065858367903     0.450047540659    -0.456252173504
    H           -3.501945108917    -1.133768269210     0.033007482362
    C            2.874731669366    -0.265745610996     0.121357465719
    H            3.072494365964     0.347509345868    -0.745251205526
    H            3.517631065952    -1.130916255853     0.119470338232
    H            3.040754628814     0.320234732373     1.013130977640

	Cleaning optimization helper files.


Properties will be evaluated at   0.000000,   0.000000,   0.000000 Bohr

Properties computed using the  density matrix

  Nuclear Dipole Moment: (a.u.)
     X:    -6.0831      Y:    -1.9396      Z:    -0.8226

  Electronic Dipole Moment: (a.u.)
     X:     6.1580      Y:     1.2278      Z:     0.8199

  Dipole Moment: (a.u.)
     X:     0.0749      Y:    -0.7118      Z:    -0.0027     Total:     0.7158

  Dipole Moment: (Debye)
     X:     0.1903      Y:    -1.8093      Z:    -0.0068     Total:     1.8193

  Quadrupole Moment: (Debye Ang)
    XX:   -36.9494     YY:   -48.3524     ZZ:   -42.2057
    XY:    -1.2349     XZ:    -0.0913     YZ:    -0.4214

  Traceless Quadrupole Moment: (Debye Ang)
    XX:     5.5531     YY:    -5.8499     ZZ:     0.2968
    XY:    -1.2349     XZ:    -0.0913     YZ:    -0.4214

  Mulliken Charges: (a.u.)
   Center  Symbol    Alpha    Beta     Spin     Total
       1     O     4.19616  4.19616  0.00000 -0.39232
       2     C     2.80374  2.80374  0.00000  0.39252
       3     C     3.09936  3.09936  0.00000 -0.19871
       4     O     4.14719  4.14719  0.00000 -0.29439
       5     C     3.08243  3.08243  0.00000 -0.16487
       6     H     0.44138  0.44138  0.00000  0.11723
       7     H     0.43921  0.43921  0.00000  0.12158
       8     C     3.14992  3.14992  0.00000 -0.29985
       9     H     0.44020  0.44020  0.00000  0.11961
      10     H     0.45215  0.45215  0.00000  0.09570
      11     H     0.45517  0.45517  0.00000  0.08966
      12     H     0.44635  0.44635  0.00000  0.10731
      13     H     0.45576  0.45576  0.00000  0.08848
      14     C     3.03694  3.03694  0.00000 -0.07388
      15     H     0.45432  0.45432  0.00000  0.09137
      16     H     0.44534  0.44534  0.00000  0.10932
      17     H     0.45438  0.45438  0.00000  0.09124

   Total alpha = 28.00000, Total beta = 28.00000, Total charge = -0.00000


*** PSI4 exiting successfully. Buy a developer a beer!
