    -----------------------------------------------------------------------
          Psi4: An Open-Source Ab Initio Electronic Structure Package
                              Psi4 (no tag) Driver

                          Git: Rev {detached?}  

    J. M. Turney, A. C. Simmonett, R. M. Parrish, E. G. Hohenstein,
    F. A. Evangelista, J. T. Fermann, B. J. Mintz, L. A. Burns, J. J. Wilke,
    M. L. Abrams, N. J. Russ, M. L. Leininger, C. L. Janssen, E. T. Seidl,
    W. D. Allen, H. F. Schaefer, R. A. King, E. F. Valeev, C. D. Sherrill,
    and T. D. Crawford, WIREs Comput. Mol. Sci. 2, 556-565 (2012)
    (doi: 10.1002/wcms.93)

                         Additional Contributions by
    A. E. DePrince, M. Saitow, U. Bozkaya, A. Yu. Sokolov
    -----------------------------------------------------------------------


    Psi4 started on: Fri Sep  2 13:42:57 2016

    Process ID:   1558
    PSI4DATADIR: /export131/home/mjharvey/miniconda3/share
    Memory level set to 256.000 MB

  ==> Input File <==

--------------------------------------------------------------------------
set {
	reference rhf
	basis 6-31G*
}


set_num_threads( 4 )
memory 2 gb

molecule MOL {
0 1

H	 -3.301617	 0.570527	 0.000000
C	 -2.250981	 0.344174	 0.000000
C	 -1.813665	 -0.976045	 0.000000
C	 -1.315303	 1.358057	 0.000000
H	 -2.528860	 -1.779366	 0.000000
C	 -0.467298	 -1.270142	 0.000000
H	 -1.635074	 2.385107	 0.000000
C	 0.047081	 1.078114	 0.000000
H	 -0.115948	 -2.285222	 0.000000
C	 0.472063	 -0.241155	 0.000000
H	 0.749976	 1.888426	 0.000000
O	 1.765256	 -0.628444	 0.000000
C	 2.163435	 -1.718308	 0.780207
H	 1.982488	 -1.539064	 1.834940
H	 3.224586	 -1.834293	 0.617986
H	 1.656088	 -2.628941	 0.479078

	symmetry c1
}
set optking {
	frozen_dihedral = ("
		13 12 10 8
	")
}

ee = optimize('scf')
oeprop('DIPOLE', 'QUADRUPOLE', 'MULLIKEN_CHARGES')
f=open( 'psi4out.xyz', 'w' )
f.write( "16  " )
f.write( str(ee) + "\n" )
f.write( MOL.save_string_xyz() )
f.close()
--------------------------------------------------------------------------

  Memory set to   2.000 GiB by Python script.
gradient() will perform analytic gradient computation.

*** tstart() called on cx1-5-5-2.cx1.hpc.ic.ac.uk
*** at Fri Sep  2 13:42:57 2016


         ---------------------------------------------------------
                                   SCF
            by Justin Turney, Rob Parrish, and Andy Simmonett
                              RHF Reference
                        4 Threads,   2000 MiB Core
         ---------------------------------------------------------

  ==> Geometry <==

    Molecular point group: c1
    Full point group: C1

    Geometry (in Angstrom), charge = 0, multiplicity = 1:

       Center              X                  Y                   Z               Mass       
    ------------   -----------------  -----------------  -----------------  -----------------
           H         -3.211766604743     0.870545586780    -0.113989582672     1.007825032070
           C         -2.161130604743     0.644192586780    -0.113989582672    12.000000000000
           C         -1.723814604743    -0.676026413220    -0.113989582672    12.000000000000
           C         -1.225452604743     1.658075586780    -0.113989582672    12.000000000000
           H         -2.439009604743    -1.479347413220    -0.113989582672     1.007825032070
           C         -0.377447604743    -0.970123413220    -0.113989582672    12.000000000000
           H         -1.545223604743     2.685125586780    -0.113989582672     1.007825032070
           C          0.136931395257     1.378132586780    -0.113989582672    12.000000000000
           H         -0.026097604743    -1.985203413220    -0.113989582672     1.007825032070
           C          0.561913395257     0.058863586780    -0.113989582672    12.000000000000
           H          0.839826395257     2.188444586780    -0.113989582672     1.007825032070
           O          1.855106395257    -0.328425413220    -0.113989582672    15.994914619560
           C          2.253285395257    -1.418289413220     0.666217417328    12.000000000000
           H          2.072338395257    -1.239045413220     1.720950417328     1.007825032070
           H          3.314436395257    -1.534274413220     0.503996417328     1.007825032070
           H          1.745938395257    -2.328922413220     0.365088417328     1.007825032070

  Running in c1 symmetry.

  Rotational constants: A =      0.16787  B =      0.05319  C =      0.04162 [cm^-1]
  Rotational constants: A =   5032.54486  B =   1594.71263  C =   1247.77545 [MHz]
  Nuclear repulsion =  348.853676954817786

  Charge       = 0
  Multiplicity = 1
  Electrons    = 58
  Nalpha       = 29
  Nbeta        = 29

  ==> Algorithm <==

  SCF Algorithm Type is DF.
  DIIS enabled.
  MOM disabled.
  Fractional occupation disabled.
  Guess Type is CORE.
  Energy threshold   = 1.00e-08
  Density threshold  = 1.00e-08
  Integral threshold = 0.00e+00

  ==> Primary Basis <==

  Basis Set: 6-31G*
    Number of shells: 64
    Number of basis function: 136
    Number of Cartesian functions: 136
    Spherical Harmonics?: false
    Max angular momentum: 2

  ==> Pre-Iterations <==

   -------------------------------------------------------
    Irrep   Nso     Nmo     Nalpha   Nbeta   Ndocc  Nsocc
   -------------------------------------------------------
     A        136     136       0       0       0       0
   -------------------------------------------------------
    Total     136     136      29      29      29       0
   -------------------------------------------------------

 OEINTS: Overlap, kinetic, potential, dipole, and quadrupole integrals
         stored in file 35.

  ==> Integral Setup <==

  ==> DFJK: Density-Fitted J/K Matrices <==

    J tasked:                  Yes
    K tasked:                  Yes
    wK tasked:                  No
    OpenMP threads:              4
    Integrals threads:           4
    Memory (MB):              1430
    Algorithm:                Core
    Integral Cache:           NONE
    Schwarz Cutoff:          1E-12
    Fitting Condition:       1E-12

   => Auxiliary Basis Set <=

  Basis Set: 
    Number of shells: 264
    Number of basis function: 848
    Number of Cartesian functions: 848
    Spherical Harmonics?: false
    Max angular momentum: 3

  Minimum eigenvalue in the overlap matrix is 4.4223752147E-04.
  Using Symmetric Orthogonalization.
  SCF Guess: Core (One-Electron) Hamiltonian.

  ==> Iterations <==

                           Total Energy        Delta E     RMS |[F,P]|

   @DF-RHF iter   1:  -269.40758252379482   -2.69408e+02   6.99892e-02 
   @DF-RHF iter   2:  -259.51622721286930    9.89136e+00   5.17547e-02 DIIS
   @DF-RHF iter   3:  -315.41607266451496   -5.58998e+01   4.04081e-02 DIIS
   @DF-RHF iter   4:  -341.73585290705222   -2.63198e+01   1.61707e-02 DIIS
   @DF-RHF iter   5:  -343.66251632482061   -1.92666e+00   9.49107e-03 DIIS
   @DF-RHF iter   6:  -344.53337059269330   -8.70854e-01   1.72926e-03 DIIS
   @DF-RHF iter   7:  -344.56950591742265   -3.61353e-02   5.02337e-04 DIIS
   @DF-RHF iter   8:  -344.57324240164934   -3.73648e-03   1.65201e-04 DIIS
   @DF-RHF iter   9:  -344.57370864421733   -4.66243e-04   5.78312e-05 DIIS
   @DF-RHF iter  10:  -344.57376941041929   -6.07662e-05   2.06766e-05 DIIS
   @DF-RHF iter  11:  -344.57378465567871   -1.52453e-05   8.81840e-06 DIIS
   @DF-RHF iter  12:  -344.57378794627510   -3.29060e-06   4.35091e-06 DIIS
   @DF-RHF iter  13:  -344.57378876692002   -8.20645e-07   1.59940e-06 DIIS
   @DF-RHF iter  14:  -344.57378890828517   -1.41365e-07   4.13191e-07 DIIS
   @DF-RHF iter  15:  -344.57378891454772   -6.26255e-09   1.12929e-07 DIIS
   @DF-RHF iter  16:  -344.57378891490026   -3.52543e-10   4.46579e-08 DIIS
   @DF-RHF iter  17:  -344.57378891494312   -4.28599e-11   1.80866e-08 DIIS
   @DF-RHF iter  18:  -344.57378891495779   -1.46656e-11   8.00579e-09 DIIS

  ==> Post-Iterations <==

    Orbital Energies (a.u.)
    -----------------------

    Doubly Occupied:                                                      

       1A    -20.577085     2A    -11.291971     3A    -11.279047  
       4A    -11.232941     5A    -11.232484     6A    -11.224593  
       7A    -11.221821     8A    -11.220770     9A     -1.410277  
      10A     -1.146128    11A     -1.019382    12A     -1.013808  
      13A     -0.941029    14A     -0.834194    15A     -0.804493  
      16A     -0.720927    17A     -0.669897    18A     -0.659031  
      19A     -0.647975    20A     -0.616435    21A     -0.594972  
      22A     -0.576145    23A     -0.528165    24A     -0.517182  
      25A     -0.508430    26A     -0.475949    27A     -0.446401  
      28A     -0.334898    29A     -0.309901  

    Virtual:                                                              

      30A      0.145625    31A      0.159992    32A      0.235034  
      33A      0.259743    34A      0.293283    35A      0.301229  
      36A      0.317332    37A      0.321413    38A      0.326975  
      39A      0.341765    40A      0.380350    41A      0.408755  
      42A      0.453258    43A      0.481422    44A      0.503026  
      45A      0.541596    46A      0.554913    47A      0.679848  
      48A      0.713139    49A      0.731796    50A      0.752777  
      51A      0.761054    52A      0.772373    53A      0.811119  
      54A      0.820111    55A      0.832035    56A      0.841537  
      57A      0.843134    58A      0.850039    59A      0.863908  
      60A      0.886610    61A      0.919216    62A      0.924293  
      63A      0.990922    64A      1.012084    65A      1.082097  
      66A      1.117473    67A      1.121396    68A      1.125231  
      69A      1.131405    70A      1.146924    71A      1.180409  
      72A      1.192315    73A      1.205559    74A      1.213911  
      75A      1.239884    76A      1.270000    77A      1.288791  
      78A      1.335741    79A      1.353386    80A      1.370309  
      81A      1.449875    82A      1.453581    83A      1.483629  
      84A      1.524216    85A      1.622612    86A      1.651934  
      87A      1.693135    88A      1.718711    89A      1.728532  
      90A      1.769450    91A      1.779554    92A      1.801603  
      93A      1.851307    94A      1.968894    95A      2.070296  
      96A      2.090029    97A      2.115961    98A      2.184209  
      99A      2.204766   100A      2.272215   101A      2.320483  
     102A      2.331759   103A      2.360545   104A      2.416000  
     105A      2.427272   106A      2.445295   107A      2.466133  
     108A      2.478324   109A      2.512405   110A      2.551728  
     111A      2.595558   112A      2.625896   113A      2.654138  
     114A      2.671843   115A      2.741505   116A      2.849491  
     117A      2.904432   118A      2.930424   119A      3.028194  
     120A      3.043109   121A      3.093161   122A      3.103919  
     123A      3.123573   124A      3.134854   125A      3.277585  
     126A      3.370943   127A      3.569375   128A      3.841884  
     129A      4.470920   130A      4.532560   131A      4.550679  
     132A      4.645389   133A      4.732955   134A      4.770543  
     135A      4.877695   136A      5.180424  

    Final Occupation by Irrep:
              A 
    DOCC [    29 ]

  Energy converged.

  @DF-RHF Final Energy:  -344.57378891495779

   => Energetics <=

    Nuclear Repulsion Energy =            348.8536769548177858
    One-Electron Energy =               -1158.7422681559992270
    Two-Electron Energy =                 465.3148022862234825
    DFT Exchange-Correlation Energy =       0.0000000000000000
    Empirical Dispersion Energy =           0.0000000000000000
    PCM Polarization Energy =               0.0000000000000000
    EFP Energy =                            0.0000000000000000
    Total Energy =                       -344.5737889149580155

    Alert: EFP and PCM quantities not currently incorporated into SCF psivars.

Properties will be evaluated at   0.000000,   0.000000,   0.000000 Bohr
  ==> Properties <==


Properties computed using the SCF density matrix

  Nuclear Dipole Moment: (a.u.)
     X:     0.7124      Y:    -2.6478      Z:     1.8932

  Electronic Dipole Moment: (a.u.)
     X:    -0.8199      Y:     2.2591      Z:    -1.5156

  Dipole Moment: (a.u.)
     X:    -0.1075      Y:    -0.3887      Z:     0.3776     Total:     0.5525

  Dipole Moment: (Debye)
     X:    -0.2732      Y:    -0.9879      Z:     0.9598     Total:     1.4042


  Saving occupied orbitals to File 180.

*** tstop() called on cx1-5-5-2.cx1.hpc.ic.ac.uk at Fri Sep  2 13:43:05 2016
Module time:
	user time   =      21.52 seconds =       0.36 minutes
	system time =       0.22 seconds =       0.00 minutes
	total time  =          8 seconds =       0.13 minutes
Total time:
	user time   =      21.52 seconds =       0.36 minutes
	system time =       0.22 seconds =       0.00 minutes
	total time  =          8 seconds =       0.13 minutes

*** tstart() called on cx1-5-5-2.cx1.hpc.ic.ac.uk
*** at Fri Sep  2 13:43:05 2016


         ------------------------------------------------------------
                                   SCF GRAD                          
                          Rob Parrish, Justin Turney,                
                       Andy Simmonett, and Alex Sokolov              
         ------------------------------------------------------------

  ==> Geometry <==

    Molecular point group: c1
    Full point group: C1

    Geometry (in Angstrom), charge = 0, multiplicity = 1:

       Center              X                  Y                   Z               Mass       
    ------------   -----------------  -----------------  -----------------  -----------------
           H         -3.211766604743     0.870545586780    -0.113989582672     1.007825032070
           C         -2.161130604743     0.644192586780    -0.113989582672    12.000000000000
           C         -1.723814604743    -0.676026413220    -0.113989582672    12.000000000000
           C         -1.225452604743     1.658075586780    -0.113989582672    12.000000000000
           H         -2.439009604743    -1.479347413220    -0.113989582672     1.007825032070
           C         -0.377447604743    -0.970123413220    -0.113989582672    12.000000000000
           H         -1.545223604743     2.685125586780    -0.113989582672     1.007825032070
           C          0.136931395257     1.378132586780    -0.113989582672    12.000000000000
           H         -0.026097604743    -1.985203413220    -0.113989582672     1.007825032070
           C          0.561913395257     0.058863586780    -0.113989582672    12.000000000000
           H          0.839826395257     2.188444586780    -0.113989582672     1.007825032070
           O          1.855106395257    -0.328425413220    -0.113989582672    15.994914619560
           C          2.253285395257    -1.418289413220     0.666217417328    12.000000000000
           H          2.072338395257    -1.239045413220     1.720950417328     1.007825032070
           H          3.314436395257    -1.534274413220     0.503996417328     1.007825032070
           H          1.745938395257    -2.328922413220     0.365088417328     1.007825032070

  Nuclear repulsion =  348.853676954817843

  ==> Basis Set <==

  Basis Set: 6-31G*
    Number of shells: 64
    Number of basis function: 136
    Number of Cartesian functions: 136
    Spherical Harmonics?: false
    Max angular momentum: 2

  ==> DFJKGrad: Density-Fitted SCF Gradients <==

    Gradient:                    1
    J tasked:                  Yes
    K tasked:                  Yes
    wK tasked:                  No
    OpenMP threads:              4
    Integrals threads:           4
    Memory (MB):              1430
    Schwarz Cutoff:          0E+00
    Fitting Condition:       1E-12

   => Auxiliary Basis Set <=

  Basis Set: 
    Number of shells: 264
    Number of basis function: 848
    Number of Cartesian functions: 848
    Spherical Harmonics?: false
    Max angular momentum: 3


  -Total Gradient:
     Atom            X                  Y                   Z
    ------   -----------------  -----------------  -----------------
       1        0.000054612880     0.000132808520    -0.000156509735
       2        0.000016825052     0.003738415292    -0.000167570755
       3        0.004397056891     0.000342516866     0.000156767951
       4       -0.003109383917     0.000198927313     0.001472421808
       5        0.000722431916    -0.000140630352     0.000165346611
       6        0.008378539453    -0.007174877063     0.000471736398
       7       -0.000331625727     0.000074140171    -0.000087388996
       8       -0.006301987602    -0.000090905320     0.000492166520
       9        0.007967802720    -0.002137542371     0.001831667528
      10        0.012774588529     0.026221356130    -0.006159683622
      11       -0.003900834433     0.001367182694    -0.000217727443
      12       -0.015140558247    -0.024433055791     0.004365870462
      13       -0.000519115628     0.002771403975    -0.000105948572
      14        0.001686471131    -0.000314167595     0.000202351967
      15       -0.000089908508    -0.000079868886     0.000269363978
      16       -0.006604914515    -0.000475703583    -0.002532864099


*** tstop() called on cx1-5-5-2.cx1.hpc.ic.ac.uk at Fri Sep  2 13:43:11 2016
Module time:
	user time   =      21.83 seconds =       0.36 minutes
	system time =       0.23 seconds =       0.00 minutes
	total time  =          6 seconds =       0.10 minutes
Total time:
	user time   =      43.37 seconds =       0.72 minutes
	system time =       0.45 seconds =       0.01 minutes
	total time  =         14 seconds =       0.23 minutes
CURRENT ENERGY: -344.5737889150

			-----------------------------------------
			 OPTKING 2.0: for geometry optimizations 
			  - R.A. King,  Bethel University        
			-----------------------------------------

	Internal coordinates to be generated automatically.
	Detected frag with atoms:  1 2 3 4 5 6 7 8 9 10 11 12 13 14 15 16
	---Fragment 1 Bond Connectivity---
	 1 : 2
	 2 : 1 3 4
	 3 : 2 5 6
	 4 : 2 7 8
	 5 : 3
	 6 : 3 9 10
	 7 : 4
	 8 : 4 10 11
	 9 : 6
	 10 : 6 8 12
	 11 : 8
	 12 : 10 13
	 13 : 12 14 15 16
	 14 : 13
	 15 : 13
	 16 : 13

	Assuming in current code that numbering for constraints corresponds to unified fragment.
	Frozen dihedral atom list: 
	    13    12    10     8
	---Fragment 1 Geometry and Gradient---
	 H          -6.0693592857        1.6450927452       -0.2154090933
	 C          -4.0839449804        1.2173475658       -0.2154090933
	 C          -3.2575375068       -1.2775047796       -0.2154090933
	 C          -2.3157698118        3.1333087666       -0.2154090933
	 H          -4.6090601884       -2.7955614664       -0.2154090933
	 C          -0.7132726025       -1.8332675661       -0.2154090933
	 H          -2.9200494270        5.0741519914       -0.2154090933
	 C           0.2587628360        2.6042931638       -0.2154090933
	 H          -0.0493173257       -3.7514907691       -0.2154090933
	 C           1.0618624274        0.1112360582       -0.2154090933
	 H           1.5870418862        4.1355609260       -0.2154090933
	 O           3.5056430344       -0.6206340861       -0.2154090933
	 C           4.2580922963       -2.6801785682        1.2589684637
	 H           3.9161520217       -2.3414564972        3.2521249770
	 H           6.2633770719       -2.8993584537        0.9524152007
	 H           3.2993454119       -4.4010255457        0.6899171230
	             0.0000546129        0.0001328085       -0.0001565097
	             0.0000168251        0.0037384153       -0.0001675708
	             0.0043970569        0.0003425169        0.0001567680
	            -0.0031093839        0.0001989273        0.0014724218
	             0.0007224319       -0.0001406304        0.0001653466
	             0.0083785395       -0.0071748771        0.0004717364
	            -0.0003316257        0.0000741402       -0.0000873890
	            -0.0063019876       -0.0000909053        0.0004921665
	             0.0079678027       -0.0021375424        0.0018316675
	             0.0127745885        0.0262213561       -0.0061596836
	            -0.0039008344        0.0013671827       -0.0002177274
	            -0.0151405582       -0.0244330558        0.0043658705
	            -0.0005191156        0.0027714040       -0.0001059486
	             0.0016864711       -0.0003141676        0.0002023520
	            -0.0000899085       -0.0000798689        0.0002693640
	            -0.0066049145       -0.0004757036       -0.0025328641

	Previous optimization step data not found.  Starting new optimization.

	---Fragment 1 Intrafragment Coordinates---
	 - Coordinate -           - BOHR/RAD -       - ANG/DEG -
	 R(1,2)           =         2.030969	       1.074743
	 R(2,3)           =         2.628162	       1.390764
	 R(2,4)           =         2.607173	       1.379657
	 R(3,5)           =         2.032513	       1.075560
	 R(3,6)           =         2.604257	       1.378114
	 R(4,7)           =         2.032739	       1.075679
	 R(4,8)           =         2.628322	       1.390848
	 R(6,9)           =         2.029881	       1.074167
	 R(6,10)          =         2.632907	       1.393274
	 R(8,10)          =         2.619218	       1.386031
	 R(8,11)          =         2.027093	       1.072692
	 R(10,12)         =         2.551019	       1.349941
	 R(12,13)         =         2.642289	       1.398239
	 R(13,14)         =         2.050446	       1.085049
	 R(13,15)         =         2.040388	       1.079727
	 R(13,16)         =         2.050446	       1.085049
	 B(1,2,3)         =         2.102867	     120.485378
	 B(1,2,4)         =         2.103902	     120.544678
	 B(2,3,5)         =         2.094294	     119.994198
	 B(2,3,6)         =         2.105726	     120.649193
	 B(2,4,7)         =         2.094451	     120.003215
	 B(2,4,8)         =         2.113442	     121.091330
	 B(3,2,4)         =         2.076417	     118.969944
	 B(3,6,9)         =         2.119079	     121.414287
	 B(3,6,10)        =         2.095633	     120.070920
	 B(4,8,10)        =         2.085094	     119.467068
	 B(4,8,11)        =         2.082668	     119.328064
	 B(5,3,6)         =         2.083166	     119.356608
	 B(6,10,8)        =         2.090059	     119.751545
	 B(6,10,12)       =         2.019710	     115.720865
	 B(7,4,8)         =         2.075292	     118.905455
	 B(8,10,12)       =         2.173416	     124.527590
	 B(9,6,10)        =         2.068473	     118.514793
	 B(10,8,11)       =         2.115424	     121.204867
	 B(10,12,13)      =         2.090267	     119.763491
	 B(12,13,14)      =         1.945666	     111.478438
	 B(12,13,15)      =         1.854349	     106.246346
	 B(12,13,16)      =         1.945665	     111.478398
	 B(14,13,15)      =         1.904649	     109.128326
	 B(14,13,16)      =         1.907562	     109.295261
	 B(15,13,16)      =         1.904649	     109.128376
	 D(1,2,3,5)       =         0.000000	       0.000000
	 D(1,2,3,6)       =         3.141593	     180.000000
	 D(1,2,4,7)       =         0.000000	       0.000000
	 D(1,2,4,8)       =         3.141593	     180.000000
	 D(2,3,6,9)       =         3.141593	     180.000000
	 D(2,3,6,10)      =         0.000000	       0.000000
	 D(2,4,8,10)      =         0.000000	       0.000000
	 D(2,4,8,11)      =         3.141593	     180.000000
	 D(3,2,4,7)       =         3.141593	     180.000000
	 D(3,2,4,8)       =         0.000000	       0.000000
	 D(3,6,10,8)      =         0.000000	       0.000000
	 D(3,6,10,12)     =         3.141593	     180.000000
	 D(4,2,3,5)       =         3.141593	     180.000000
	 D(4,2,3,6)       =         0.000000	       0.000000
	 D(4,8,10,6)      =         0.000000	       0.000000
	 D(4,8,10,12)     =         3.141593	     180.000000
	 D(5,3,6,9)       =         0.000000	       0.000000
	 D(5,3,6,10)      =         3.141593	     180.000000
	 D(6,10,8,11)     =         3.141593	     180.000000
	 D(6,10,12,13)    =        -0.698132	     -40.000014
	 D(7,4,8,10)      =         3.141593	     180.000000
	 D(7,4,8,11)      =         0.000000	       0.000000
	 D(8,10,6,9)      =         3.141593	     180.000000
	*D(8,10,12,13)    =         2.443461	     139.999986
	 D(9,6,10,12)     =         0.000000	       0.000000
	 D(10,12,13,14)   =        -1.068492	     -61.220081
	 D(10,12,13,15)   =         3.141593	     180.000000
	 D(10,12,13,16)   =         1.068492	      61.220071
	 D(11,8,10,12)    =         0.000000	       0.000000

	Current energy   :      -344.5737889150

	Generating empirical Hessian (Schlegel '84) for each fragment.
	Taking RFO optimization step.
	Going to follow RFO solution 1.
	Using RFO vector 1.
	Norm of target step-size    0.35584
	Projected energy change by RFO approximation:         0.0029672120

	Back-transformation to cartesian coordinates...
	Successfully converged to displaced geometry.

	Back-transformation to cartesian coordinates to adjust frozen coordinates...
	Successfully converged to displaced geometry.

	--- Internal Coordinate Step in ANG or DEG, aJ/ANG or AJ/DEG ---
	 ---------------------------------------------------------------------------
	   Coordinate                Previous        Force       Change         New 
	   ----------                --------       ------       ------       ------
	    1 R(1,2)          =      1.074743     0.000209     0.000035     1.074777
	    2 R(2,3)          =      1.390764    -0.031313    -0.004039     1.386724
	    3 R(2,4)          =      1.379657     0.010186     0.000995     1.380652
	    4 R(3,5)          =      1.075560     0.003092     0.000515     1.076075
	    5 R(3,6)          =      1.378114     0.023399     0.003245     1.381359
	    6 R(4,7)          =      1.075679    -0.001395    -0.000232     1.075447
	    7 R(4,8)          =      1.390848    -0.016937    -0.002558     1.388290
	    8 R(6,9)          =      1.074167    -0.038114    -0.006317     1.067850
	    9 R(6,10)         =      1.393274     0.077605     0.010527     1.403802
	   10 R(8,10)         =      1.386031    -0.045495    -0.005894     1.380136
	   11 R(8,11)         =      1.072692     0.012550     0.002070     1.074762
	   12 R(10,12)        =      1.349941     0.109864     0.012363     1.362304
	   13 R(12,13)        =      1.398239     0.035143     0.004706     1.402946
	   14 R(13,14)        =      1.085049     0.001124     0.000193     1.085242
	   15 R(13,15)        =      1.079727     0.000991     0.000167     1.079894
	   16 R(13,16)        =      1.085049    -0.034524    -0.005923     1.079126
	   17 B(1,2,3)        =    120.485378     0.000003     0.029267   120.514645
	   18 B(1,2,4)        =    120.544678     0.000025     0.120509   120.665187
	   19 B(2,3,5)        =    119.994198    -0.000008    -0.116709   119.877490
	   20 B(2,3,6)        =    120.649193    -0.000082    -0.178878   120.470316
	   21 B(2,4,7)        =    120.003215    -0.000024     0.029552   120.032767
	   22 B(2,4,8)        =    121.091330     0.000093     0.130524   121.221853
	   23 B(3,2,4)        =    118.969944    -0.000028    -0.153492   118.816452
	   24 B(3,6,9)        =    121.414287    -0.000589    -2.462159   118.952129
	   25 B(3,6,10)       =    120.070920     0.000122     0.506790   120.577710
	   26 B(4,8,10)       =    119.467068     0.000280     0.758123   120.225191
	   27 B(4,8,11)       =    119.328064     0.000156     0.857464   120.185529
	   28 B(5,3,6)        =    119.356608     0.000090     0.292470   119.649079
	   29 B(6,10,8)       =    119.751545    -0.000385    -1.084835   118.666710
	   30 B(6,10,12)      =    115.720865     0.003681    10.158002   125.878868
	   31 B(7,4,8)        =    118.905455    -0.000069    -0.160327   118.745128
	   32 B(8,10,12)      =    124.527590    -0.003296    -9.206874   115.320716
	   33 B(9,6,10)       =    118.514793     0.000466     1.943745   120.458538
	   34 B(10,8,11)      =    121.204867    -0.000436    -1.615589   119.589278
	   35 B(10,12,13)     =    119.763491     0.001271     3.537917   123.301408
	   36 B(12,13,14)     =    111.478438    -0.000171    -0.660166   110.818273
	   37 B(12,13,15)     =    106.246346    -0.000141    -0.734767   105.511579
	   38 B(12,13,16)     =    111.478398     0.000587     2.539740   114.018138
	   39 B(14,13,15)     =    109.128326     0.000047     0.013029   109.141354
	   40 B(14,13,16)     =    109.295261    -0.000079    -0.080673   109.214588
	   41 B(15,13,16)     =    109.128376    -0.000256    -1.174354   107.954023
	   42 D(1,2,3,5)      =      0.000000     0.000006     0.510840     0.510840
	   43 D(1,2,3,6)      =    180.000000    -0.000001    -0.133552   179.866448
	   44 D(1,2,4,7)      =      0.000000     0.000001     0.084272     0.084272
	   45 D(1,2,4,8)      =    180.000000    -0.000001    -0.100370   179.899630
	   46 D(2,3,6,9)      =    180.000000     0.000022     1.888861   181.888861
	   47 D(2,3,6,10)     =      0.000000     0.000007     0.654320     0.654320
	   48 D(2,4,8,10)     =      0.000000    -0.000002    -0.199452    -0.199452
	   49 D(2,4,8,11)     =    180.000000    -0.000004    -0.216688   179.783312
	   50 D(3,2,4,7)      =    180.000000    -0.000007    -0.613437   179.386563
	   51 D(3,2,4,8)      =      0.000000    -0.000009    -0.798079    -0.798079
	   52 D(3,6,10,8)     =      0.000000    -0.000018    -1.633371    -1.633371
	   53 D(3,6,10,12)    =    180.000000     0.000028     2.780196   182.780196
	   54 D(4,2,3,5)      =    180.000000     0.000014     1.207466   181.207466
	   55 D(4,2,3,6)      =      0.000000     0.000007     0.563075     0.563075
	   56 D(4,8,10,6)     =      0.000000     0.000016     1.400302     1.400302
	   57 D(4,8,10,12)    =    180.000000    -0.000034    -2.555136   177.444864
	   58 D(5,3,6,9)      =      0.000000     0.000015     1.245937     1.245937
	   59 D(5,3,6,10)     =    180.000000    -0.000000     0.011395   180.011395
	   60 D(6,10,8,11)    =    180.000000     0.000018     1.417435   181.417435
	   61 D(6,10,12,13)   =    -40.000014    -0.000049    -4.283917   -44.283931
	   62 D(7,4,8,10)     =    180.000000    -0.000004    -0.381772   179.618228
	   63 D(7,4,8,11)     =      0.000000    -0.000005    -0.399008    -0.399008
	   64 D(8,10,6,9)     =    180.000000    -0.000033    -2.886575   177.113425
	   65 *D(8,10,12,13)  =    139.999986    -0.000000     0.000000   139.999986
	   66 D(9,6,10,12)    =      0.000000     0.000013     1.526992     1.526992
	   67 D(10,12,13,14)  =    -61.220081     0.000025     5.592041   -55.628040
	   68 D(10,12,13,15)  =    180.000000     0.000053     6.364072   186.364072
	   69 D(10,12,13,16)  =     61.220071     0.000069     6.855925    68.075996
	   70 D(11,8,10,12)   =      0.000000    -0.000033    -2.538003    -2.538003
	 ---------------------------------------------------------------------------

  ==> Convergence Check <==

  Measures of convergence in internal coordinates in au.
  Criteria marked as inactive (o), active & met (*), and active & unmet ( ).
  --------------------------------------------------------------------------------------------- ~
   Step     Total Energy     Delta E     MAX Force     RMS Force      MAX Disp      RMS Disp    ~
  --------------------------------------------------------------------------------------------- ~
    Convergence Criteria    1.00e-06 *    3.00e-04 *             o    1.20e-03 *             o  ~
  --------------------------------------------------------------------------------------------- ~
      1    -344.57378891   -3.45e+02      4.84e-02      8.62e-03 o    1.77e-01      4.24e-02 o  ~
  ---------------------------------------------------------------------------------------------

	Writing optimization data to binary file.
	Structure for next step:
	Cartesian Geometry (in Angstrom)
	    H    -3.2411251633   1.0043071339  -0.1591373511
	    C    -2.2108121508   0.6993117354  -0.1350644941
	    C    -1.8744161413  -0.6459815196  -0.1403759280
	    C    -1.1988306745   1.6382510438  -0.1130383903
	    H    -2.6489737411  -1.3920697315  -0.1771082569
	    C    -0.5498326539  -1.0369236983  -0.1121915295
	    H    -1.4373302227   2.6869041821  -0.1185191438
	    C     0.1357400161   1.2572445064  -0.0797947387
	    H    -0.3174298185  -2.0785691574  -0.1477932299
	    C     0.4762647550  -0.0801290995  -0.0639460619
	    H     0.9102516561   2.0022735011  -0.0665202471
	    O     1.8131191393  -0.3412675893  -0.0862749906
	    C     2.4122117219  -1.3576076913   0.6729337552
	    H     2.1809742399  -1.2392205525   1.7266246033
	    H     3.4756028343  -1.2376138596   0.5281181309
	    H     2.1444195331  -2.3551870045   0.3604656939
			--------------------------
			 OPTKING Finished Execution 
			--------------------------

    Structure for next step:
    Molecular point group: c1
    Full point group: C1

    Geometry (in Angstrom), charge = 0, multiplicity = 1:

    H           -3.207432843799     1.026500375489    -0.167685276685
    C           -2.177119909915     0.721505000280    -0.143612421527
    C           -1.840723926172    -0.623788151983    -0.148923854945
    C           -1.165138510893     1.660444236920    -0.121586319317
    H           -2.615281466764    -1.369876306942    -0.185656181028
    C           -0.516140539866    -1.014730300872    -0.120739458609
    H           -1.403638040935     2.709097295152    -0.127067072470
    C            0.169432077745     1.279437728614    -0.088342670338
    H           -0.283737722256    -2.056375680410    -0.156341156272
    C            0.509956790641    -0.057935775131    -0.072493994683
    H            0.943943658636     2.024466666427    -0.075068179752
    O            1.846811072929    -0.319074244959    -0.094822921668
    C            2.445903609724    -1.335414269376     0.664385766076
    H            2.214666145355    -1.217027139587     1.718076533803
    H            3.509294640929    -1.215420446810     0.519570152924
    H            2.178111441381    -2.332993506430     0.351917728677

gradient() will perform analytic gradient computation.

*** tstart() called on cx1-5-5-2.cx1.hpc.ic.ac.uk
*** at Fri Sep  2 13:43:11 2016


         ---------------------------------------------------------
                                   SCF
            by Justin Turney, Rob Parrish, and Andy Simmonett
                              RHF Reference
                        4 Threads,   2000 MiB Core
         ---------------------------------------------------------

  ==> Geometry <==

    Molecular point group: c1
    Full point group: C1

    Geometry (in Angstrom), charge = 0, multiplicity = 1:

       Center              X                  Y                   Z               Mass       
    ------------   -----------------  -----------------  -----------------  -----------------
           H         -3.207432843799     1.026500375489    -0.167685276685     1.007825032070
           C         -2.177119909915     0.721505000280    -0.143612421527    12.000000000000
           C         -1.840723926172    -0.623788151983    -0.148923854945    12.000000000000
           C         -1.165138510893     1.660444236920    -0.121586319317    12.000000000000
           H         -2.615281466764    -1.369876306942    -0.185656181028     1.007825032070
           C         -0.516140539866    -1.014730300872    -0.120739458609    12.000000000000
           H         -1.403638040935     2.709097295152    -0.127067072470     1.007825032070
           C          0.169432077745     1.279437728614    -0.088342670338    12.000000000000
           H         -0.283737722256    -2.056375680410    -0.156341156272     1.007825032070
           C          0.509956790641    -0.057935775131    -0.072493994683    12.000000000000
           H          0.943943658636     2.024466666427    -0.075068179752     1.007825032070
           O          1.846811072929    -0.319074244959    -0.094822921668    15.994914619560
           C          2.445903609724    -1.335414269376     0.664385766076    12.000000000000
           H          2.214666145355    -1.217027139587     1.718076533803     1.007825032070
           H          3.509294640929    -1.215420446810     0.519570152924     1.007825032070
           H          2.178111441381    -2.332993506430     0.351917728677     1.007825032070

  Running in c1 symmetry.

  Rotational constants: A =      0.17177  B =      0.05064  C =      0.04015 [cm^-1]
  Rotational constants: A =   5149.52309  B =   1518.20357  C =   1203.80821 [MHz]
  Nuclear repulsion =  346.006504975531925

  Charge       = 0
  Multiplicity = 1
  Electrons    = 58
  Nalpha       = 29
  Nbeta        = 29

  ==> Algorithm <==

  SCF Algorithm Type is DF.
  DIIS enabled.
  MOM disabled.
  Fractional occupation disabled.
  Guess Type is READ.
  Energy threshold   = 1.00e-08
  Density threshold  = 1.00e-08
  Integral threshold = 0.00e+00

  ==> Primary Basis <==

  Basis Set: 6-31G*
    Number of shells: 64
    Number of basis function: 136
    Number of Cartesian functions: 136
    Spherical Harmonics?: false
    Max angular momentum: 2

  ==> Pre-Iterations <==

   -------------------------------------------------------
    Irrep   Nso     Nmo     Nalpha   Nbeta   Ndocc  Nsocc
   -------------------------------------------------------
     A        136     136       0       0       0       0
   -------------------------------------------------------
    Total     136     136      29      29      29       0
   -------------------------------------------------------

 OEINTS: Overlap, kinetic, potential, dipole, and quadrupole integrals
         stored in file 35.

  ==> Integral Setup <==

  ==> DFJK: Density-Fitted J/K Matrices <==

    J tasked:                  Yes
    K tasked:                  Yes
    wK tasked:                  No
    OpenMP threads:              4
    Integrals threads:           4
    Memory (MB):              1430
    Algorithm:                Core
    Integral Cache:           NONE
    Schwarz Cutoff:          1E-12
    Fitting Condition:       1E-12

   => Auxiliary Basis Set <=

  Basis Set: 
    Number of shells: 264
    Number of basis function: 848
    Number of Cartesian functions: 848
    Spherical Harmonics?: false
    Max angular momentum: 3

  Minimum eigenvalue in the overlap matrix is 4.4007807080E-04.
  Using Symmetric Orthogonalization.
  SCF Guess: Reading in previously saved MOs, projecting if necessary.

  Using orbitals from previous SCF, no projection.
  Recomputing DOCC and SOCC from number of alpha and beta electrons from previous calculation.
              A 
    DOCC [    29 ]

  ==> Iterations <==

                           Total Energy        Delta E     RMS |[F,P]|

   @DF-RHF iter   0:  -344.51326363659018   -3.44513e+02   2.69446e-03 
   @DF-RHF iter   1:  -344.57428397478702   -6.10203e-02   4.58797e-04 
   @DF-RHF iter   2:  -344.57756644968140   -3.28247e-03   1.73352e-04 DIIS
   @DF-RHF iter   3:  -344.57799746021533   -4.31011e-04   8.18026e-05 DIIS
   @DF-RHF iter   4:  -344.57808182963731   -8.43694e-05   1.56882e-05 DIIS
   @DF-RHF iter   5:  -344.57808559950604   -3.76987e-06   5.61171e-06 DIIS
   @DF-RHF iter   6:  -344.57808645315265   -8.53647e-07   1.60707e-06 DIIS
   @DF-RHF iter   7:  -344.57808654737664   -9.42240e-08   7.60908e-07 DIIS
   @DF-RHF iter   8:  -344.57808657177793   -2.44013e-08   3.27100e-07 DIIS
   @DF-RHF iter   9:  -344.57808657758369   -5.80576e-09   1.35960e-07 DIIS
   @DF-RHF iter  10:  -344.57808657857368   -9.89985e-10   5.63514e-08 DIIS
   @DF-RHF iter  11:  -344.57808657868759   -1.13914e-10   1.55781e-08 DIIS
   @DF-RHF iter  12:  -344.57808657869521   -7.61702e-12   5.06152e-09 DIIS

  ==> Post-Iterations <==

    Orbital Energies (a.u.)
    -----------------------

    Doubly Occupied:                                                      

       1A    -20.577277     2A    -11.292847     3A    -11.278631  
       4A    -11.232864     5A    -11.230011     6A    -11.226726  
       7A    -11.221627     8A    -11.219211     9A     -1.400892  
      10A     -1.146167    11A     -1.021971    12A     -1.012070  
      13A     -0.937169    14A     -0.829503    15A     -0.805768  
      16A     -0.716273    17A     -0.666411    18A     -0.659729  
      19A     -0.646412    20A     -0.613585    21A     -0.589378  
      22A     -0.580226    23A     -0.528068    24A     -0.511977  
      25A     -0.503466    26A     -0.477492    27A     -0.449182  
      28A     -0.333461    29A     -0.310438  

    Virtual:                                                              

      30A      0.147423    31A      0.159096    32A      0.235714  
      33A      0.254557    34A      0.294236    35A      0.303544  
      36A      0.316237    37A      0.320838    38A      0.327390  
      39A      0.342352    40A      0.368529    41A      0.386135  
      42A      0.450647    43A      0.483524    44A      0.487153  
      45A      0.538815    46A      0.561557    47A      0.660487  
      48A      0.714808    49A      0.734430    50A      0.751370  
      51A      0.753284    52A      0.774150    53A      0.808045  
      54A      0.821867    55A      0.826856    56A      0.837925  
      57A      0.845322    58A      0.850575    59A      0.857101  
      60A      0.888631    61A      0.921175    62A      0.928006  
      63A      0.994144    64A      1.009915    65A      1.075845  
      66A      1.108954    67A      1.117466    68A      1.125105  
      69A      1.137184    70A      1.144999    71A      1.172432  
      72A      1.183541    73A      1.200588    74A      1.215451  
      75A      1.227296    76A      1.265505    77A      1.296796  
      78A      1.333873    79A      1.335573    80A      1.375294  
      81A      1.442408    82A      1.449608    83A      1.500775  
      84A      1.511721    85A      1.615531    86A      1.627841  
      87A      1.695455    88A      1.716414    89A      1.743403  
      90A      1.767557    91A      1.777375    92A      1.801088  
      93A      1.845371    94A      1.962900    95A      2.033119  
      96A      2.102375    97A      2.148529    98A      2.170248  
      99A      2.205924   100A      2.260486   101A      2.316112  
     102A      2.332147   103A      2.363823   104A      2.406230  
     105A      2.425371   106A      2.434946   107A      2.468114  
     108A      2.473986   109A      2.507325   110A      2.556972  
     111A      2.583194   112A      2.624901   113A      2.654657  
     114A      2.670004   115A      2.726500   116A      2.839471  
     117A      2.904754   118A      2.925826   119A      3.003938  
     120A      3.043136   121A      3.102637   122A      3.105850  
     123A      3.124089   124A      3.137096   125A      3.281590  
     126A      3.363263   127A      3.564311   128A      3.842283  
     129A      4.486071   130A      4.532469   131A      4.550467  
     132A      4.628958   133A      4.723322   134A      4.769410  
     135A      4.860622   136A      5.180050  

    Final Occupation by Irrep:
              A 
    DOCC [    29 ]

  Energy converged.

  @DF-RHF Final Energy:  -344.57808657869521

   => Energetics <=

    Nuclear Repulsion Energy =            346.0065049755319251
    One-Electron Energy =               -1153.1315162588027761
    Two-Electron Energy =                 462.5469247045757584
    DFT Exchange-Correlation Energy =       0.0000000000000000
    Empirical Dispersion Energy =           0.0000000000000000
    PCM Polarization Energy =               0.0000000000000000
    EFP Energy =                            0.0000000000000000
    Total Energy =                       -344.5780865786950926

    Alert: EFP and PCM quantities not currently incorporated into SCF psivars.

Properties will be evaluated at   0.000000,   0.000000,   0.000000 Bohr
  ==> Properties <==


Properties computed using the SCF density matrix

  Nuclear Dipole Moment: (a.u.)
     X:     1.2613      Y:    -2.2811      Z:     1.7599

  Electronic Dipole Moment: (a.u.)
     X:    -1.2926      Y:     1.8853      Z:    -1.3986

  Dipole Moment: (a.u.)
     X:    -0.0313      Y:    -0.3958      Z:     0.3613     Total:     0.5368

  Dipole Moment: (Debye)
     X:    -0.0796      Y:    -1.0059      Z:     0.9183     Total:     1.3644


  Saving occupied orbitals to File 180.

*** tstop() called on cx1-5-5-2.cx1.hpc.ic.ac.uk at Fri Sep  2 13:43:17 2016
Module time:
	user time   =      18.46 seconds =       0.31 minutes
	system time =       0.20 seconds =       0.00 minutes
	total time  =          6 seconds =       0.10 minutes
Total time:
	user time   =      62.93 seconds =       1.05 minutes
	system time =       0.68 seconds =       0.01 minutes
	total time  =         20 seconds =       0.33 minutes

*** tstart() called on cx1-5-5-2.cx1.hpc.ic.ac.uk
*** at Fri Sep  2 13:43:17 2016


         ------------------------------------------------------------
                                   SCF GRAD                          
                          Rob Parrish, Justin Turney,                
                       Andy Simmonett, and Alex Sokolov              
         ------------------------------------------------------------

  ==> Geometry <==

    Molecular point group: c1
    Full point group: C1

    Geometry (in Angstrom), charge = 0, multiplicity = 1:

       Center              X                  Y                   Z               Mass       
    ------------   -----------------  -----------------  -----------------  -----------------
           H         -3.207432843799     1.026500375489    -0.167685276685     1.007825032070
           C         -2.177119909915     0.721505000280    -0.143612421527    12.000000000000
           C         -1.840723926172    -0.623788151983    -0.148923854945    12.000000000000
           C         -1.165138510893     1.660444236920    -0.121586319317    12.000000000000
           H         -2.615281466764    -1.369876306942    -0.185656181028     1.007825032070
           C         -0.516140539866    -1.014730300872    -0.120739458609    12.000000000000
           H         -1.403638040935     2.709097295152    -0.127067072470     1.007825032070
           C          0.169432077745     1.279437728614    -0.088342670338    12.000000000000
           H         -0.283737722256    -2.056375680410    -0.156341156272     1.007825032070
           C          0.509956790641    -0.057935775131    -0.072493994683    12.000000000000
           H          0.943943658636     2.024466666427    -0.075068179752     1.007825032070
           O          1.846811072929    -0.319074244959    -0.094822921668    15.994914619560
           C          2.445903609724    -1.335414269376     0.664385766076    12.000000000000
           H          2.214666145355    -1.217027139587     1.718076533803     1.007825032070
           H          3.509294640929    -1.215420446810     0.519570152924     1.007825032070
           H          2.178111441381    -2.332993506430     0.351917728677     1.007825032070

  Nuclear repulsion =  346.006504975531925

  ==> Basis Set <==

  Basis Set: 6-31G*
    Number of shells: 64
    Number of basis function: 136
    Number of Cartesian functions: 136
    Spherical Harmonics?: false
    Max angular momentum: 2

  ==> DFJKGrad: Density-Fitted SCF Gradients <==

    Gradient:                    1
    J tasked:                  Yes
    K tasked:                  Yes
    wK tasked:                  No
    OpenMP threads:              4
    Integrals threads:           4
    Memory (MB):              1430
    Schwarz Cutoff:          0E+00
    Fitting Condition:       1E-12

   => Auxiliary Basis Set <=

  Basis Set: 
    Number of shells: 264
    Number of basis function: 848
    Number of Cartesian functions: 848
    Spherical Harmonics?: false
    Max angular momentum: 3


  -Total Gradient:
     Atom            X                  Y                   Z
    ------   -----------------  -----------------  -----------------
       1        0.000019344745    -0.000159333204    -0.000104116050
       2        0.000769867143     0.002384193078     0.000482508855
       3        0.001025685154    -0.004030686240    -0.000185610055
       4       -0.003390569848    -0.003733971981    -0.000066509771
       5       -0.001199712797     0.000460114780    -0.000164480270
       6       -0.014880906777    -0.002636561764    -0.001681381836
       7        0.000532191123    -0.000198526602     0.000059981949
       8        0.006290802311    -0.006822102018    -0.001324937249
       9       -0.003283748383     0.005403070363    -0.001079119258
      10        0.003738763536     0.006802965175     0.000470270276
      11       -0.000882605387     0.001764701409    -0.000292808210
      12        0.003622491369     0.002887734327     0.005136211840
      13        0.002503368870    -0.004705330308    -0.003983601317
      14        0.000606832977     0.000767015865    -0.000131342114
      15       -0.000368654833    -0.000283531430    -0.000682476470
      16        0.004896850797     0.002100248549     0.003547409678


*** tstop() called on cx1-5-5-2.cx1.hpc.ic.ac.uk at Fri Sep  2 13:43:24 2016
Module time:
	user time   =      22.17 seconds =       0.37 minutes
	system time =       0.21 seconds =       0.00 minutes
	total time  =          7 seconds =       0.12 minutes
Total time:
	user time   =      85.12 seconds =       1.42 minutes
	system time =       0.89 seconds =       0.01 minutes
	total time  =         27 seconds =       0.45 minutes
CURRENT ENERGY: -344.5780865787

			-----------------------------------------
			 OPTKING 2.0: for geometry optimizations 
			  - R.A. King,  Bethel University        
			-----------------------------------------

	Previous internal coordinate definitions found.
	---Fragment 1 Geometry and Gradient---
	 H          -6.0611696644        1.9398045850       -0.3168792495
	 C          -4.1141603882        1.3634468540       -0.2713881460
	 C          -3.4784641067       -1.1787887722       -0.2814253005
	 C          -2.2017926925        3.1377848667       -0.2297648450
	 H          -4.9421657326       -2.5886910560       -0.3508393370
	 C          -0.9753642664       -1.9175623674       -0.2281645102
	 H          -2.6524914871        5.1194519552       -0.2401219675
	 C           0.3201802251        2.4177869112       -0.1669434528
	 H          -0.5361865886       -3.8859868623       -0.2954419687
	 C           0.9636786739       -0.1094827483       -0.1369937962
	 H           1.7837949997        3.8256875647       -0.1418583010
	 O           3.4899671470       -0.6029629390       -0.1791893531
	 C           4.6220879698       -2.5235672431        1.2555071445
	 H           4.1851124905       -2.2998479901        3.2466941242
	 H           6.6316057910       -2.2968117808        0.9818452958
	 H           4.1160341111       -4.4087187970        0.6650281285
	             0.0000193447       -0.0001593332       -0.0001041160
	             0.0007698671        0.0023841931        0.0004825089
	             0.0010256852       -0.0040306862       -0.0001856101
	            -0.0033905698       -0.0037339720       -0.0000665098
	            -0.0011997128        0.0004601148       -0.0001644803
	            -0.0148809068       -0.0026365618       -0.0016813818
	             0.0005321911       -0.0001985266        0.0000599819
	             0.0062908023       -0.0068221020       -0.0013249372
	            -0.0032837484        0.0054030704       -0.0010791193
	             0.0037387635        0.0068029652        0.0004702703
	            -0.0008826054        0.0017647014       -0.0002928082
	             0.0036224914        0.0028877343        0.0051362118
	             0.0025033689       -0.0047053303       -0.0039836013
	             0.0006068330        0.0007670159       -0.0001313421
	            -0.0003686548       -0.0002835314       -0.0006824765
	             0.0048968508        0.0021002485        0.0035474097

	---Fragment 1 Intrafragment Coordinates---
	 - Coordinate -           - BOHR/RAD -       - ANG/DEG -
	 R(1,2)           =         2.031035	       1.074777
	 R(2,3)           =         2.620529	       1.386724
	 R(2,4)           =         2.609053	       1.380652
	 R(3,5)           =         2.033486	       1.076075
	 R(3,6)           =         2.610389	       1.381359
	 R(4,7)           =         2.032299	       1.075447
	 R(4,8)           =         2.623488	       1.388290
	 R(6,9)           =         2.017944	       1.067850
	 R(6,10)          =         2.652801	       1.403802
	 R(8,10)          =         2.608080	       1.380136
	 R(8,11)          =         2.031005	       1.074762
	 R(10,12)         =         2.574381	       1.362304
	 R(12,13)         =         2.651183	       1.402946
	 R(13,14)         =         2.050810	       1.085242
	 R(13,15)         =         2.040703	       1.079894
	 R(13,16)         =         2.039253	       1.079126
	 B(1,2,3)         =         2.103377	     120.514645
	 B(1,2,4)         =         2.106005	     120.665187
	 B(2,3,5)         =         2.092257	     119.877490
	 B(2,3,6)         =         2.102604	     120.470316
	 B(2,4,7)         =         2.094967	     120.032767
	 B(2,4,8)         =         2.115720	     121.221853
	 B(3,2,4)         =         2.073738	     118.816452
	 B(3,6,9)         =         2.076106	     118.952129
	 B(3,6,10)        =         2.104478	     120.577710
	 B(4,8,10)        =         2.098325	     120.225191
	 B(4,8,11)        =         2.097633	     120.185529
	 B(5,3,6)         =         2.088270	     119.649079
	 B(6,10,8)        =         2.071125	     118.666710
	 B(6,10,12)       =         2.197001	     125.878868
	 B(7,4,8)         =         2.072493	     118.745128
	 B(8,10,12)       =         2.012726	     115.320716
	 B(9,6,10)        =         2.102398	     120.458538
	 B(10,8,11)       =         2.087227	     119.589278
	 B(10,12,13)      =         2.152016	     123.301408
	 B(12,13,14)      =         1.934144	     110.818273
	 B(12,13,15)      =         1.841524	     105.511579
	 B(12,13,16)      =         1.989992	     114.018138
	 B(14,13,15)      =         1.904876	     109.141354
	 B(14,13,16)      =         1.906154	     109.214588
	 B(15,13,16)      =         1.884153	     107.954023
	 D(1,2,3,5)       =         0.008916	       0.510840
	 D(1,2,3,6)       =         3.139262	     179.866448
	 D(1,2,4,7)       =         0.001471	       0.084272
	 D(1,2,4,8)       =         3.139841	     179.899630
	 D(2,3,6,9)       =        -3.108626	    -178.111139
	 D(2,3,6,10)      =         0.011420	       0.654320
	 D(2,4,8,10)      =        -0.003481	      -0.199452
	 D(2,4,8,11)      =         3.137811	     179.783312
	 D(3,2,4,7)       =         3.130886	     179.386563
	 D(3,2,4,8)       =        -0.013929	      -0.798079
	 D(3,6,10,8)      =        -0.028508	      -1.633371
	 D(3,6,10,12)     =        -3.093069	    -177.219804
	 D(4,2,3,5)       =        -3.120518	    -178.792534
	 D(4,2,3,6)       =         0.009828	       0.563075
	 D(4,8,10,6)      =         0.024440	       1.400302
	 D(4,8,10,12)     =         3.096997	     177.444864
	 D(5,3,6,9)       =         0.021746	       1.245937
	 D(5,3,6,10)      =        -3.141394	    -179.988605
	 D(6,10,8,11)     =        -3.116854	    -178.582565
	 D(6,10,12,13)    =        -0.772900	     -44.283931
	 D(7,4,8,10)      =         3.134929	     179.618228
	 D(7,4,8,11)      =        -0.006964	      -0.399008
	 D(8,10,6,9)      =         3.091212	     177.113425
	*D(8,10,12,13)    =         2.443461	     139.999986
	 D(9,6,10,12)     =         0.026651	       1.526992
	 D(10,12,13,14)   =        -0.970892	     -55.628040
	 D(10,12,13,15)   =        -3.030519	    -173.635928
	 D(10,12,13,16)   =         1.188150	      68.075996
	 D(11,8,10,12)    =        -0.044297	      -2.538003

	Current energy   :      -344.5780865787

	Energy change for the previous step:
		Projected    :         0.0029672120
		Actual       :        -0.0042976637

	Performing BFGS update.
	Previous computed or guess Hessian on step 1.
	Steps to be used in Hessian update: 1
	Taking RFO optimization step.
	Going to follow RFO solution 1.
	Using RFO vector 1.
	Norm of target step-size    0.18939
	Projected energy change by RFO approximation:         0.0010549389

	Back-transformation to cartesian coordinates...
	Successfully converged to displaced geometry.

	Back-transformation to cartesian coordinates to adjust frozen coordinates...
	Successfully converged to displaced geometry.

	--- Internal Coordinate Step in ANG or DEG, aJ/ANG or AJ/DEG ---
	 ---------------------------------------------------------------------------
	   Coordinate                Previous        Force       Change         New 
	   ----------                --------       ------       ------       ------
	    1 R(1,2)          =      1.074777     0.000506     0.000065     1.074843
	    2 R(2,3)          =      1.386724     0.013093     0.001139     1.387863
	    3 R(2,4)          =      1.380652     0.021862     0.002385     1.383037
	    4 R(3,5)          =      1.076075    -0.004533    -0.000532     1.075542
	    5 R(3,6)          =      1.381359     0.015229     0.001436     1.382795
	    6 R(4,7)          =      1.075447     0.002570     0.000306     1.075752
	    7 R(4,8)          =      1.388290    -0.020696    -0.001980     1.386310
	    8 R(6,9)          =      1.067850     0.049014     0.005677     1.073527
	    9 R(6,10)         =      1.403802    -0.120451    -0.011429     1.392373
	   10 R(8,10)         =      1.380136     0.047585     0.004048     1.384185
	   11 R(8,11)         =      1.074762    -0.004808    -0.000460     1.074302
	   12 R(10,12)        =      1.362304    -0.089307    -0.006682     1.355622
	   13 R(12,13)        =      1.402946    -0.033962    -0.003088     1.399858
	   14 R(13,14)        =      1.085242     0.001427     0.000196     1.085439
	   15 R(13,15)        =      1.079894     0.002496     0.000327     1.080221
	   16 R(13,16)        =      1.079126     0.034470     0.004050     1.083177
	   17 B(1,2,3)        =    120.514645    -0.000019    -0.087165   120.427480
	   18 B(1,2,4)        =    120.665187    -0.000042    -0.154627   120.510560
	   19 B(2,3,5)        =    119.877490     0.000018     0.114537   119.992026
	   20 B(2,3,6)        =    120.470316     0.000145     0.334532   120.804848
	   21 B(2,4,7)        =    120.032767     0.000113     0.179857   120.212625
	   22 B(2,4,8)        =    121.221853    -0.000300    -0.588099   120.633754
	   23 B(3,2,4)        =    118.816452     0.000061     0.245497   119.061949
	   24 B(3,6,9)        =    118.952129     0.000318     0.747832   119.699960
	   25 B(3,6,10)       =    120.577710    -0.000317    -0.814109   119.763600
	   26 B(4,8,10)       =    120.225191    -0.000101    -0.147233   120.077958
	   27 B(4,8,11)       =    120.185529     0.000196     0.658067   120.843596
	   28 B(5,3,6)        =    119.649079    -0.000163    -0.447452   119.201626
	   29 B(6,10,8)       =    118.666710     0.000514     0.987935   119.654645
	   30 B(6,10,12)      =    125.878868    -0.001267    -1.900519   123.978349
	   31 B(7,4,8)        =    118.745128     0.000187     0.406879   119.152007
	   32 B(8,10,12)      =    115.320716     0.000762     1.023216   116.343932
	   33 B(9,6,10)       =    120.458538    -0.000000     0.071443   120.529981
	   34 B(10,8,11)      =    119.589278    -0.000096    -0.512691   119.076587
	   35 B(10,12,13)     =    123.301408    -0.001778    -3.527498   119.773909
	   36 B(12,13,14)     =    110.818273     0.000108     0.251740   111.070013
	   37 B(12,13,15)     =    105.511579     0.000171     0.664313   106.175892
	   38 B(12,13,16)     =    114.018138    -0.000574    -1.806872   112.211267
	   39 B(14,13,15)     =    109.141354     0.000035     0.362241   109.503596
	   40 B(14,13,16)     =    109.214588     0.000071    -0.064291   109.150297
	   41 B(15,13,16)     =    107.954023     0.000216     0.687995   108.642018
	   42 D(1,2,3,5)      =      0.510840    -0.000003    -0.103605     0.407235
	   43 D(1,2,3,6)      =    179.866448     0.000002     0.091734   179.958182
	   44 D(1,2,4,7)      =      0.084272    -0.000001    -0.072464     0.011808
	   45 D(1,2,4,8)      =    179.899630    -0.000002    -0.353940   179.545690
	   46 D(2,3,6,9)      =   -178.111139    -0.000014    -0.654646  -178.765784
	   47 D(2,3,6,10)     =      0.654320    -0.000006    -0.339579     0.314741
	   48 D(2,4,8,10)     =     -0.199452     0.000008     0.875930     0.676478
	   49 D(2,4,8,11)     =    179.783312     0.000001     0.392586   180.175897
	   50 D(3,2,4,7)      =    179.386563     0.000008     0.664183   180.050746
	   51 D(3,2,4,8)      =     -0.798079     0.000007     0.382707    -0.415372
	   52 D(3,6,10,8)     =     -1.633371     0.000018     1.578657    -0.054714
	   53 D(3,6,10,12)    =   -177.219804    -0.000024    -1.021613  -178.241417
	   54 D(4,2,3,5)      =   -178.792534    -0.000012    -0.839136  -179.631670
	   55 D(4,2,3,6)      =      0.563075    -0.000007    -0.643797    -0.080723
	   56 D(4,8,10,6)     =      1.400302    -0.000018    -1.836062    -0.435760
	   57 D(4,8,10,12)    =    177.444864    -0.000000     0.441483   177.886347
	   58 D(5,3,6,9)      =      1.245937    -0.000009    -0.457269     0.788668
	   59 D(5,3,6,10)     =   -179.988605    -0.000001    -0.142202  -180.130807
	   60 D(6,10,8,11)    =   -178.582565    -0.000012    -1.361436  -179.944000
	   61 D(6,10,12,13)   =    -44.283931     0.000040     2.525519   -41.758412
	   62 D(7,4,8,10)     =    179.618228     0.000007     0.597024   180.215253
	   63 D(7,4,8,11)     =     -0.399008     0.000001     0.113680    -0.285328
	   64 D(8,10,6,9)     =    177.113425     0.000028     1.904626   179.018051
	   65 *D(8,10,12,13)  =    139.999986    -0.000000     0.000000   139.999986
	   66 D(9,6,10,12)    =      1.526992    -0.000015    -0.695644     0.831348
	   67 D(10,12,13,14)  =    -55.628040     0.000036     5.354280   -50.273759
	   68 D(10,12,13,15)  =   -173.635928    -0.000009     4.396212  -169.239716
	   69 D(10,12,13,16)  =     68.075996    -0.000022     4.132710    72.208706
	   70 D(11,8,10,12)   =     -2.538003     0.000006     0.916109    -1.621894
	 ---------------------------------------------------------------------------

  ==> Convergence Check <==

  Measures of convergence in internal coordinates in au.
  Criteria marked as inactive (o), active & met (*), and active & unmet ( ).
  ---------------------------------------------------------------------------------------------
   Step     Total Energy     Delta E     MAX Force     RMS Force      MAX Disp      RMS Disp   
  ---------------------------------------------------------------------------------------------
    Convergence Criteria    1.00e-06 *    3.00e-04 *             o    1.20e-03 *             o
  ---------------------------------------------------------------------------------------------
      2    -344.57808658   -4.30e-03      2.34e-02      4.78e-03 o    9.34e-02      2.26e-02 o  ~
  ---------------------------------------------------------------------------------------------

	Writing optimization data to binary file.
	Structure for next step:
	Cartesian Geometry (in Angstrom)
	    H    -3.1876781190   0.9877898277  -0.1356610407
	    C    -2.1506825489   0.7051714578  -0.1283184085
	    C    -1.7872552718  -0.6342244041  -0.1181363401
	    C    -1.1599066731   1.6701347494  -0.1280580049
	    H    -2.5454122594  -1.3970828419  -0.1241784742
	    C    -0.4555709786  -1.0065997312  -0.1095160690
	    H    -1.4207034719   2.7137723419  -0.1350326233
	    C     0.1782905734   1.3085746594  -0.1091414178
	    H    -0.1943335744  -2.0477840090  -0.1217872531
	    C     0.5355785058  -0.0286949687  -0.1043991850
	    H     0.9506029446   2.0553335962  -0.1060458645
	    O     1.8642354902  -0.2964737516  -0.1304046968
	    C     2.3786446053  -1.3389571391   0.6494766697
	    H     2.0387594967  -1.2616610195   1.6774263058
	    H     3.4535690633  -1.2373577747   0.6164354027
	    H     2.1107687409  -2.3131256739   0.2589518077
			--------------------------
			 OPTKING Finished Execution 
			--------------------------

    Structure for next step:
    Molecular point group: c1
    Full point group: C1

    Geometry (in Angstrom), charge = 0, multiplicity = 1:

    H           -3.201582252270     0.979987388582    -0.129019071348
    C           -2.164586761373     0.697369040186    -0.121676439660
    C           -1.801159512045    -0.642026719399    -0.111494372094
    C           -1.173810961223     1.662332258151    -0.121416036108
    H           -2.559316441738    -1.404885098975    -0.117536505742
    C           -0.469475320508    -1.014402018094    -0.102874101620
    H           -1.434607740133     2.705969770958    -0.128390653996
    C            0.164386183037     1.300772195723    -0.102499450430
    H           -0.208237936317    -2.055586216340    -0.115145284749
    C            0.521674088191    -0.036497330226    -0.097757218003
    H            0.936698495315     2.047531075484    -0.099403897433
    O            1.850330971135    -0.304276092712    -0.123762727855
    C            2.364740046924    -1.346759400619     0.656118579078
    H            2.024854964334    -1.269463286916     1.684068136705
    H            3.439664422812    -1.245160043955     0.623077314618
    H            2.096864203016    -2.320927860947     0.265593746899

gradient() will perform analytic gradient computation.

*** tstart() called on cx1-5-5-2.cx1.hpc.ic.ac.uk
*** at Fri Sep  2 13:43:24 2016


         ---------------------------------------------------------
                                   SCF
            by Justin Turney, Rob Parrish, and Andy Simmonett
                              RHF Reference
                        4 Threads,   2000 MiB Core
         ---------------------------------------------------------

  ==> Geometry <==

    Molecular point group: c1
    Full point group: C1

    Geometry (in Angstrom), charge = 0, multiplicity = 1:

       Center              X                  Y                   Z               Mass       
    ------------   -----------------  -----------------  -----------------  -----------------
           H         -3.201582252270     0.979987388582    -0.129019071348     1.007825032070
           C         -2.164586761373     0.697369040186    -0.121676439660    12.000000000000
           C         -1.801159512045    -0.642026719399    -0.111494372094    12.000000000000
           C         -1.173810961223     1.662332258151    -0.121416036108    12.000000000000
           H         -2.559316441738    -1.404885098975    -0.117536505742     1.007825032070
           C         -0.469475320508    -1.014402018094    -0.102874101620    12.000000000000
           H         -1.434607740133     2.705969770958    -0.128390653996     1.007825032070
           C          0.164386183037     1.300772195723    -0.102499450430    12.000000000000
           H         -0.208237936317    -2.055586216340    -0.115145284749     1.007825032070
           C          0.521674088191    -0.036497330226    -0.097757218003    12.000000000000
           H          0.936698495315     2.047531075484    -0.099403897433     1.007825032070
           O          1.850330971135    -0.304276092712    -0.123762727855    15.994914619560
           C          2.364740046924    -1.346759400619     0.656118579078    12.000000000000
           H          2.024854964334    -1.269463286916     1.684068136705     1.007825032070
           H          3.439664422812    -1.245160043955     0.623077314618     1.007825032070
           H          2.096864203016    -2.320927860947     0.265593746899     1.007825032070

  Running in c1 symmetry.

  Rotational constants: A =      0.16963  B =      0.05208  C =      0.04099 [cm^-1]
  Rotational constants: A =   5085.28416  B =   1561.23358  C =   1228.82650 [MHz]
  Nuclear repulsion =  347.602442759109977

  Charge       = 0
  Multiplicity = 1
  Electrons    = 58
  Nalpha       = 29
  Nbeta        = 29

  ==> Algorithm <==

  SCF Algorithm Type is DF.
  DIIS enabled.
  MOM disabled.
  Fractional occupation disabled.
  Guess Type is READ.
  Energy threshold   = 1.00e-08
  Density threshold  = 1.00e-08
  Integral threshold = 0.00e+00

  ==> Primary Basis <==

  Basis Set: 6-31G*
    Number of shells: 64
    Number of basis function: 136
    Number of Cartesian functions: 136
    Spherical Harmonics?: false
    Max angular momentum: 2

  ==> Pre-Iterations <==

   -------------------------------------------------------
    Irrep   Nso     Nmo     Nalpha   Nbeta   Ndocc  Nsocc
   -------------------------------------------------------
     A        136     136       0       0       0       0
   -------------------------------------------------------
    Total     136     136      29      29      29       0
   -------------------------------------------------------

 OEINTS: Overlap, kinetic, potential, dipole, and quadrupole integrals
         stored in file 35.

  ==> Integral Setup <==

  ==> DFJK: Density-Fitted J/K Matrices <==

    J tasked:                  Yes
    K tasked:                  Yes
    wK tasked:                  No
    OpenMP threads:              4
    Integrals threads:           4
    Memory (MB):              1430
    Algorithm:                Core
    Integral Cache:           NONE
    Schwarz Cutoff:          1E-12
    Fitting Condition:       1E-12

   => Auxiliary Basis Set <=

  Basis Set: 
    Number of shells: 264
    Number of basis function: 848
    Number of Cartesian functions: 848
    Spherical Harmonics?: false
    Max angular momentum: 3

  Minimum eigenvalue in the overlap matrix is 4.4030244595E-04.
  Using Symmetric Orthogonalization.
  SCF Guess: Reading in previously saved MOs, projecting if necessary.

  Using orbitals from previous SCF, no projection.
  Recomputing DOCC and SOCC from number of alpha and beta electrons from previous calculation.
              A 
    DOCC [    29 ]

  ==> Iterations <==

                           Total Energy        Delta E     RMS |[F,P]|

   @DF-RHF iter   0:  -344.57444078311948   -3.44574e+02   1.02231e-03 
   @DF-RHF iter   1:  -344.57992392704796   -5.48314e-03   1.81436e-04 
   @DF-RHF iter   2:  -344.58050539386034   -5.81467e-04   6.47781e-05 DIIS
   @DF-RHF iter   3:  -344.58059174200503   -8.63481e-05   2.74470e-05 DIIS
   @DF-RHF iter   4:  -344.58060112168903   -9.37968e-06   5.58555e-06 DIIS
   @DF-RHF iter   5:  -344.58060191808238   -7.96393e-07   2.53077e-06 DIIS
   @DF-RHF iter   6:  -344.58060212145176   -2.03369e-07   8.84133e-07 DIIS
   @DF-RHF iter   7:  -344.58060216570414   -4.42524e-08   3.92842e-07 DIIS
   @DF-RHF iter   8:  -344.58060217441118   -8.70705e-09   1.59502e-07 DIIS
   @DF-RHF iter   9:  -344.58060217573768   -1.32650e-09   5.60747e-08 DIIS
   @DF-RHF iter  10:  -344.58060217589104   -1.53364e-10   1.79753e-08 DIIS
   @DF-RHF iter  11:  -344.58060217589957   -8.52651e-12   5.97467e-09 DIIS

  ==> Post-Iterations <==

    Orbital Energies (a.u.)
    -----------------------

    Doubly Occupied:                                                      

       1A    -20.577918     2A    -11.290728     3A    -11.277972  
       4A    -11.233391     5A    -11.231348     6A    -11.225796  
       7A    -11.222202     8A    -11.220073     9A     -1.406859  
      10A     -1.146535    11A     -1.020249    12A     -1.013630  
      13A     -0.937476    14A     -0.831376    15A     -0.805619  
      16A     -0.717674    17A     -0.665730    18A     -0.661691  
      19A     -0.648005    20A     -0.614501    21A     -0.590073  
      22A     -0.580259    23A     -0.528189    24A     -0.512386  
      25A     -0.505434    26A     -0.479872    27A     -0.449063  
      28A     -0.334524    29A     -0.310619  

    Virtual:                                                              

      30A      0.146375    31A      0.159935    32A      0.234935  
      33A      0.255713    34A      0.294130    35A      0.304023  
      36A      0.316229    37A      0.322604    38A      0.328199  
      39A      0.341873    40A      0.373621    41A      0.384434  
      42A      0.453341    43A      0.483040    44A      0.489386  
      45A      0.539495    46A      0.561471    47A      0.662092  
      48A      0.718201    49A      0.737650    50A      0.752928  
      51A      0.756235    52A      0.772847    53A      0.814015  
      54A      0.821611    55A      0.828291    56A      0.841510  
      57A      0.843802    58A      0.848375    59A      0.860247  
      60A      0.889597    61A      0.920339    62A      0.928542  
      63A      0.993688    64A      1.010581    65A      1.087617  
      66A      1.111501    67A      1.118150    68A      1.123827  
      69A      1.137486    70A      1.142404    71A      1.177823  
      72A      1.188089    73A      1.200777    74A      1.213614  
      75A      1.228656    76A      1.271650    77A      1.289048  
      78A      1.337693    79A      1.339968    80A      1.369171  
      81A      1.447743    82A      1.463258    83A      1.479491  
      84A      1.510824    85A      1.618140    86A      1.646338  
      87A      1.686008    88A      1.720534    89A      1.734553  
      90A      1.760508    91A      1.777684    92A      1.799086  
      93A      1.832641    94A      1.973379    95A      2.043423  
      96A      2.102875    97A      2.144515    98A      2.170114  
      99A      2.204694   100A      2.264850   101A      2.320017  
     102A      2.327304   103A      2.369110   104A      2.412814  
     105A      2.434618   106A      2.446272   107A      2.467525  
     108A      2.478215   109A      2.509763   110A      2.567362  
     111A      2.586251   112A      2.629501   113A      2.653042  
     114A      2.679134   115A      2.734006   116A      2.846665  
     117A      2.906049   118A      2.928626   119A      3.005700  
     120A      3.043843   121A      3.097563   122A      3.107208  
     123A      3.119113   124A      3.140685   125A      3.274606  
     126A      3.373318   127A      3.566799   128A      3.843084  
     129A      4.477493   130A      4.532304   131A      4.550638  
     132A      4.635874   133A      4.728497   134A      4.767254  
     135A      4.868840   136A      5.182350  

    Final Occupation by Irrep:
              A 
    DOCC [    29 ]

  Energy converged.

  @DF-RHF Final Energy:  -344.58060217589957

   => Energetics <=

    Nuclear Repulsion Energy =            347.6024427591099766
    One-Electron Energy =               -1156.2877071704574519
    Two-Electron Energy =                 464.1046622354479609
    DFT Exchange-Correlation Energy =       0.0000000000000000
    Empirical Dispersion Energy =           0.0000000000000000
    PCM Polarization Energy =               0.0000000000000000
    EFP Energy =                            0.0000000000000000
    Total Energy =                       -344.5806021758995144

    Alert: EFP and PCM quantities not currently incorporated into SCF psivars.

Properties will be evaluated at   0.000000,   0.000000,   0.000000 Bohr
  ==> Properties <==


Properties computed using the SCF density matrix

  Nuclear Dipole Moment: (a.u.)
     X:     1.0348      Y:    -2.4038      Z:     1.8586

  Electronic Dipole Moment: (a.u.)
     X:    -1.1031      Y:     2.0124      Z:    -1.4804

  Dipole Moment: (a.u.)
     X:    -0.0683      Y:    -0.3913      Z:     0.3783     Total:     0.5485

  Dipole Moment: (Debye)
     X:    -0.1735      Y:    -0.9947      Z:     0.9615     Total:     1.3942


  Saving occupied orbitals to File 180.

*** tstop() called on cx1-5-5-2.cx1.hpc.ic.ac.uk at Fri Sep  2 13:43:30 2016
Module time:
	user time   =      17.71 seconds =       0.30 minutes
	system time =       0.16 seconds =       0.00 minutes
	total time  =          6 seconds =       0.10 minutes
Total time:
	user time   =     103.46 seconds =       1.72 minutes
	system time =       1.06 seconds =       0.02 minutes
	total time  =         33 seconds =       0.55 minutes

*** tstart() called on cx1-5-5-2.cx1.hpc.ic.ac.uk
*** at Fri Sep  2 13:43:30 2016


         ------------------------------------------------------------
                                   SCF GRAD                          
                          Rob Parrish, Justin Turney,                
                       Andy Simmonett, and Alex Sokolov              
         ------------------------------------------------------------

  ==> Geometry <==

    Molecular point group: c1
    Full point group: C1

    Geometry (in Angstrom), charge = 0, multiplicity = 1:

       Center              X                  Y                   Z               Mass       
    ------------   -----------------  -----------------  -----------------  -----------------
           H         -3.201582252270     0.979987388582    -0.129019071348     1.007825032070
           C         -2.164586761373     0.697369040186    -0.121676439660    12.000000000000
           C         -1.801159512045    -0.642026719399    -0.111494372094    12.000000000000
           C         -1.173810961223     1.662332258151    -0.121416036108    12.000000000000
           H         -2.559316441738    -1.404885098975    -0.117536505742     1.007825032070
           C         -0.469475320508    -1.014402018094    -0.102874101620    12.000000000000
           H         -1.434607740133     2.705969770958    -0.128390653996     1.007825032070
           C          0.164386183037     1.300772195723    -0.102499450430    12.000000000000
           H         -0.208237936317    -2.055586216340    -0.115145284749     1.007825032070
           C          0.521674088191    -0.036497330226    -0.097757218003    12.000000000000
           H          0.936698495315     2.047531075484    -0.099403897433     1.007825032070
           O          1.850330971135    -0.304276092712    -0.123762727855    15.994914619560
           C          2.364740046924    -1.346759400619     0.656118579078    12.000000000000
           H          2.024854964334    -1.269463286916     1.684068136705     1.007825032070
           H          3.439664422812    -1.245160043955     0.623077314618     1.007825032070
           H          2.096864203016    -2.320927860947     0.265593746899     1.007825032070

  Nuclear repulsion =  347.602442759109977

  ==> Basis Set <==

  Basis Set: 6-31G*
    Number of shells: 64
    Number of basis function: 136
    Number of Cartesian functions: 136
    Spherical Harmonics?: false
    Max angular momentum: 2

  ==> DFJKGrad: Density-Fitted SCF Gradients <==

    Gradient:                    1
    J tasked:                  Yes
    K tasked:                  Yes
    wK tasked:                  No
    OpenMP threads:              4
    Integrals threads:           4
    Memory (MB):              1430
    Schwarz Cutoff:          0E+00
    Fitting Condition:       1E-12

   => Auxiliary Basis Set <=

  Basis Set: 
    Number of shells: 264
    Number of basis function: 848
    Number of Cartesian functions: 848
    Spherical Harmonics?: false
    Max angular momentum: 3


  -Total Gradient:
     Atom            X                  Y                   Z
    ------   -----------------  -----------------  -----------------
       1        0.000051830987     0.000134277472     0.000116683015
       2        0.000611026145     0.003627336401    -0.000198439833
       3        0.002660460580    -0.003178617446     0.000105933253
       4       -0.003290346164    -0.001388989538    -0.000241853928
       5        0.000040652389    -0.000014080214    -0.000064560834
       6       -0.005970378671    -0.000019622724    -0.000214528412
[...]
      15        0.000021204450     0.000018480106     0.000001923288
      16       -0.000031611959    -0.000012264582    -0.000060568819


*** tstop() called on cx1-5-5-2.cx1.hpc.ic.ac.uk at Fri Sep  2 13:44:13 2016
Module time:
	user time   =      21.52 seconds =       0.36 minutes
	system time =       0.23 seconds =       0.00 minutes
	total time  =          6 seconds =       0.10 minutes
Total time:
	user time   =     245.66 seconds =       4.09 minutes
	system time =       2.60 seconds =       0.04 minutes
	total time  =         76 seconds =       1.27 minutes
CURRENT ENERGY: -344.5808743926

			-----------------------------------------
			 OPTKING 2.0: for geometry optimizations 
			  - R.A. King,  Bethel University        
			-----------------------------------------

	Previous internal coordinate definitions found.
	---Fragment 1 Geometry and Gradient---
	 H          -6.0463642723        1.8191071728       -0.1940494225
	 C          -4.0828722146        1.2988065192       -0.1986592641
	 C          -3.3826293506       -1.2198763815       -0.1725539563
	 C          -2.2205956444        3.1442880593       -0.2280442771
	 H          -4.8064436998       -2.6703402772       -0.1526106578
	 C          -0.8535349729       -1.9095535815       -0.1813781190
	 H          -2.7367817178        5.1100998828       -0.2411102604
	 C           0.3058929809        2.4803635516       -0.2214672919
	 H          -0.3407157320       -3.8731315955       -0.1825338867
	 C           0.9947221147       -0.0512968996       -0.2123443085
	 H           1.7684582337        3.8880162622       -0.2340558945
	 O           3.5027422614       -0.5734721487       -0.2597699463
	 C           4.4111721440       -2.5634563402        1.2363698768
	 H           3.6288961610       -2.4822243542        3.1291014983
	 H           6.4386141742       -2.3411995991        1.3276124065
	 H           3.9875979341       -4.3903328642        0.4093544201
	            -0.0000091307       -0.0000258266        0.0000061250
	             0.0000851709        0.0002460204       -0.0000431809
	             0.0001699256       -0.0001931979        0.0000248624
	            -0.0001971385       -0.0000739783        0.0000387559
	            -0.0000151191        0.0000113316        0.0000001281
	            -0.0002130581       -0.0000813751        0.0000325873
	             0.0000310258        0.0000044950       -0.0000068377
	             0.0001589942       -0.0001739310        0.0015778312
	             0.0000301515       -0.0000150297        0.0000037390
	             0.0000337090        0.0008137880       -0.0018062418
	             0.0000048468        0.0000188888       -0.0000077261
	            -0.0002886257       -0.0015303636       -0.0010265856
	             0.0001912423        0.0009986794        0.0012833533
	             0.0000284135       -0.0000057163       -0.0000181646
	             0.0000212045        0.0000184801        0.0000019233
	            -0.0000316120       -0.0000122646       -0.0000605688

	---Fragment 1 Intrafragment Coordinates---
	 - Coordinate -           - BOHR/RAD -       - ANG/DEG -
	 R(1,2)           =         2.031264	       1.074899
	 R(2,3)           =         2.614342	       1.383450
	 R(2,4)           =         2.621972	       1.387488
	 R(3,5)           =         2.032607	       1.075609
	 R(3,6)           =         2.621460	       1.387217
	 R(4,7)           =         2.032495	       1.075550
	 R(4,8)           =         2.612276	       1.382357
	 R(6,9)           =         2.029439	       1.073933
	 R(6,10)          =         2.621093	       1.387023
	 R(8,10)          =         2.623714	       1.388410
	 R(8,11)          =         2.029961	       1.074209
	 R(10,12)         =         2.562241	       1.355880
	 R(12,13)         =         2.650229	       1.402441
	 R(13,14)         =         2.049631	       1.084618
	 R(13,15)         =         2.041628	       1.080383
	 R(13,16)         =         2.049597	       1.084600
	 B(1,2,3)         =         2.100944	     120.375252
	 B(1,2,4)         =         2.101681	     120.417469
	 B(2,3,5)         =         2.094351	     119.997491
	 B(2,3,6)         =         2.108119	     120.786348
	 B(2,4,7)         =         2.094915	     120.029794
	 B(2,4,8)         =         2.103677	     120.531819
	 B(3,2,4)         =         2.080559	     119.207241
	 B(3,6,9)         =         2.092479	     119.890214
	 B(3,6,10)        =         2.087275	     119.592070
	 B(4,8,10)        =         2.093431	     119.944789
	 B(4,8,11)        =         2.118317	     121.370605
	 B(5,3,6)         =         2.080707	     119.215708
	 B(6,10,8)        =         2.093241	     119.933879
	 B(6,10,12)       =         2.148331	     123.090293
	 B(7,4,8)         =         2.084562	     119.436578
	 B(8,10,12)       =         2.041558	     116.972685
	 B(9,6,10)        =         2.103384	     120.515005
	 B(10,8,11)       =         2.071421	     118.683667
	 B(10,12,13)      =         2.069282	     118.561136
	 B(12,13,14)      =         1.939850	     111.145207
	 B(12,13,15)      =         1.858635	     106.491915
	 B(12,13,16)      =         1.950506	     111.755740
	 B(14,13,15)      =         1.910736	     109.477116
	 B(14,13,16)      =         1.906108	     109.211923
	 B(15,13,16)      =         1.896834	     108.680590
	 D(1,2,3,5)       =         0.002919	       0.167223
	 D(1,2,3,6)       =         3.140208	     179.920671
	 D(1,2,4,7)       =         0.003001	       0.171964
	 D(1,2,4,8)       =         3.136007	     179.679987
	 D(2,3,6,9)       =        -3.129241	    -179.292316
	 D(2,3,6,10)      =         0.001954	       0.111972
	 D(2,4,8,10)      =         0.011934	       0.683786
	 D(2,4,8,11)      =        -3.135894	    -179.673505
	 D(3,2,4,7)       =        -3.137365	    -179.757765
	 D(3,2,4,8)       =        -0.004359	      -0.249742
	 D(3,6,10,8)      =         0.005629	       0.322519
	 D(3,6,10,12)     =        -3.124359	    -179.012578
	 D(4,2,3,5)       =        -3.139900	    -179.903017
	 D(4,2,3,6)       =        -0.002610	      -0.149569
	 D(4,8,10,6)      =        -0.012534	      -0.718118
	 D(4,8,10,12)     =         3.118150	     178.656828
	 D(5,3,6,9)       =         0.008082	       0.463036
	 D(5,3,6,10)      =         3.139277	     179.867324
	 D(6,10,8,11)     =         3.135128	     179.629615
	 D(6,10,12,13)    =        -0.709416	     -40.646548
	 D(7,4,8,10)      =        -3.138194	    -179.805291
	 D(7,4,8,11)      =        -0.002838	      -0.162581
	 D(8,10,6,9)      =         3.136758	     179.723013
	*D(8,10,12,13)    =         2.443461	     139.999986
	 D(9,6,10,12)     =         0.006770	       0.387916
	 D(10,12,13,14)   =        -0.799144	     -45.787556
	 D(10,12,13,15)   =        -2.878990	    -164.954004
	 D(10,12,13,16)   =         1.335248	      76.504067
	 D(11,8,10,12)    =        -0.017374	      -0.995438

	Current energy   :      -344.5808743926

	Energy change for the previous step:
		Projected    :        -0.0000009866
		Actual       :        -0.0000024983
	Energy ratio indicates good step: Trust radius increased to 1.000e+00.


	Performing BFGS update.
	Previous computed or guess Hessian on step 1.
	Steps to be used in Hessian update: 5 4
	Taking RFO optimization step.
	Going to follow RFO solution 1.
	Using RFO vector 1.
	Norm of target step-size    0.00343
	Projected energy change by RFO approximation:        -0.0000004384

	Back-transformation to cartesian coordinates...
	Successfully converged to displaced geometry.

	Back-transformation to cartesian coordinates to adjust frozen coordinates...
	Successfully converged to displaced geometry.

	--- Internal Coordinate Step in ANG or DEG, aJ/ANG or AJ/DEG ---
	 ---------------------------------------------------------------------------
	   Coordinate                Previous        Force       Change         New 
	   ----------                --------       ------       ------       ------
	    1 R(1,2)          =      1.074899    -0.000018    -0.000001     1.074898
	    2 R(2,3)          =      1.383450    -0.001200    -0.000300     1.383150
	    3 R(2,4)          =      1.387488     0.000958     0.000289     1.387778
	    4 R(3,5)          =      1.075609    -0.000021    -0.000007     1.075602
	    5 R(3,6)          =      1.387217     0.001189     0.000302     1.387519
	    6 R(4,7)          =      1.075550     0.000029     0.000007     1.075557
	    7 R(4,8)          =      1.382357    -0.000608    -0.000225     1.382132
	    8 R(6,9)          =      1.073933    -0.000183    -0.000009     1.073924
	    9 R(6,10)         =      1.387023    -0.001020    -0.000312     1.386711
	   10 R(8,10)         =      1.388410     0.001440     0.000319     1.388729
	   11 R(8,11)         =      1.074209    -0.000137    -0.000022     1.074188
	   12 R(10,12)        =      1.355880    -0.000224    -0.000057     1.355823
	   13 R(12,13)        =      1.402441    -0.000021     0.000025     1.402466
	   14 R(13,14)        =      1.084618     0.000229     0.000020     1.084638
	   15 R(13,15)        =      1.080383    -0.000191    -0.000041     1.080342
	   16 R(13,16)        =      1.084600    -0.000345    -0.000052     1.084548
	   17 B(1,2,3)        =    120.375252     0.000003     0.019718   120.394970
	   18 B(1,2,4)        =    120.417469    -0.000002    -0.017280   120.400189
	   19 B(2,3,5)        =    119.997491     0.000001     0.010970   120.008462
	   20 B(2,3,6)        =    120.786348     0.000002     0.002875   120.789223
	   21 B(2,4,7)        =    120.029794    -0.000003    -0.019612   120.010182
	   22 B(2,4,8)        =    120.531819     0.000000     0.000077   120.531897
	   23 B(3,2,4)        =    119.207241    -0.000001    -0.002412   119.204829
	   24 B(3,6,9)        =    119.890214    -0.000003    -0.008031   119.882184
	   25 B(3,6,10)       =    119.592070     0.000002     0.001731   119.593802
	   26 B(4,8,10)       =    119.944789     0.000001     0.000355   119.945144
	   27 B(4,8,11)       =    121.370605     0.000000     0.010789   121.381394
	   28 B(5,3,6)        =    119.215708    -0.000002    -0.013799   119.201909
	   29 B(6,10,8)       =    119.933879    -0.000004    -0.002447   119.931432
	   30 B(6,10,12)      =    123.090293     0.000008     0.022890   123.113183
	   31 B(7,4,8)        =    119.436578     0.000002     0.019396   119.455975
	   32 B(8,10,12)      =    116.972685    -0.000004    -0.021145   116.951540
	   33 B(9,6,10)       =    120.515005     0.000001     0.006292   120.521297
	   34 B(10,8,11)      =    118.683667    -0.000001    -0.011086   118.672580
	   35 B(10,12,13)     =    118.561136     0.000003    -0.003880   118.557255
	   36 B(12,13,14)     =    111.145207    -0.000003    -0.021467   111.123740
	   37 B(12,13,15)     =    106.491915     0.000001    -0.002110   106.489804
	   38 B(12,13,16)     =    111.755740     0.000006     0.027633   111.783373
	   39 B(14,13,15)     =    109.477116     0.000000     0.004126   109.481242
	   40 B(14,13,16)     =    109.211923    -0.000002    -0.005784   109.206140
	   41 B(15,13,16)     =    108.680590    -0.000002    -0.002125   108.678465
	   42 D(1,2,3,5)      =      0.167223    -0.000000    -0.009643     0.157580
	   43 D(1,2,3,6)      =    179.920671    -0.000000     0.003338   179.924010
	   44 D(1,2,4,7)      =      0.171964     0.000000     0.016851     0.188815
	   45 D(1,2,4,8)      =    179.679987     0.000000    -0.001500   179.678488
	   46 D(2,3,6,9)      =   -179.292316     0.000000    -0.004550  -179.296865
	   47 D(2,3,6,10)     =      0.111972     0.000000    -0.005315     0.106657
	   48 D(2,4,8,10)     =      0.683786    -0.000000     0.001647     0.685433
	   49 D(2,4,8,11)     =   -179.673505     0.000000     0.012646  -179.660859
	   50 D(3,2,4,7)      =   -179.757765    -0.000000    -0.012672  -179.770437
	   51 D(3,2,4,8)      =     -0.249742    -0.000000    -0.031023    -0.280765
	   52 D(3,6,10,8)     =      0.322519    -0.000000    -0.024431     0.298088
	   53 D(3,6,10,12)    =   -179.012578     0.000000     0.046202  -178.966376
	   54 D(4,2,3,5)      =   -179.903017     0.000000     0.019852  -179.883165
	   55 D(4,2,3,6)      =     -0.149569     0.000000     0.032833    -0.116735
	   56 D(4,8,10,6)     =     -0.718118     0.000000     0.026231    -0.691887
	   57 D(4,8,10,12)    =    178.656828    -0.000000    -0.039858   178.616970
	   58 D(5,3,6,9)      =      0.463036     0.000000     0.008388     0.471425
	   59 D(5,3,6,10)     =    179.867324     0.000000     0.007623   179.874947
	   60 D(6,10,8,11)    =    179.629615     0.000000     0.015452   179.645068
	   61 D(6,10,12,13)   =    -40.646548    -0.000001    -0.068564   -40.715112
	   62 D(7,4,8,10)     =   -179.805291    -0.000000    -0.016793  -179.822083
	   63 D(7,4,8,11)     =     -0.162581    -0.000000    -0.005794    -0.168375
	   64 D(8,10,6,9)     =    179.723013    -0.000000    -0.025288   179.697725
	   65 *D(8,10,12,13)  =    139.999986     0.000000     0.000000   139.999986
	   66 D(9,6,10,12)    =      0.387916     0.000000     0.045344     0.433261
	   67 D(10,12,13,14)  =    -45.787556    -0.000000    -0.057125   -45.844682
	   68 D(10,12,13,15)  =   -164.954004     0.000000    -0.048915  -165.002919
	   69 D(10,12,13,16)  =     76.504067    -0.000000    -0.060359    76.443708
	   70 D(11,8,10,12)   =     -0.995438    -0.000000    -0.050637    -1.046075
	 ---------------------------------------------------------------------------

  ==> Convergence Check <==

  Measures of convergence in internal coordinates in au.
  Criteria marked as inactive (o), active & met (*), and active & unmet ( ).
  ---------------------------------------------------------------------------------------------
   Step     Total Energy     Delta E     MAX Force     RMS Force      MAX Disp      RMS Disp   
  ---------------------------------------------------------------------------------------------
    Convergence Criteria    1.00e-06 *    3.00e-04 *             o    1.20e-03 *             o
  ---------------------------------------------------------------------------------------------
      6    -344.58087439   -2.50e-06      1.75e-04 *    4.68e-05 o    1.20e-03 *    4.10e-04 o  ~
  ---------------------------------------------------------------------------------------------


  **** Optimization is complete! (in 6 steps) ****

  ==> Optimization Summary <==

  Measures of convergence in internal coordinates in au.
  --------------------------------------------------------------------------------------------------------------- ~
   Step         Total Energy             Delta E       MAX Force       RMS Force        MAX Disp        RMS Disp  ~
  --------------------------------------------------------------------------------------------------------------- ~
      1    -344.573788914958   -344.573788914958      0.04837663      0.00861798      0.17729058      0.04244195  ~
      2    -344.578086578695     -0.004297663737      0.02336201      0.00477530      0.09344982      0.02263454  ~
      3    -344.580602175900     -0.002515597204      0.00646491      0.00140615      0.07832923      0.01699572  ~
      4    -344.580853938680     -0.000251762780      0.00151638      0.00040823      0.00597557      0.00201716  ~
      5    -344.580871894310     -0.000017955630      0.00042673      0.00011954      0.00471283      0.00134180  ~
      6    -344.580874392630     -0.000002498320      0.00017473      0.00004677      0.00119667      0.00041030  ~
  --------------------------------------------------------------------------------------------------------------- ~

	Writing optimization data to binary file.
	Final energy is   -344.5808743926300
	Final (previous) structure:
	Cartesian Geometry (in Angstrom)
	    H    -3.1995984121   0.9626301293  -0.1026865396
	    C    -2.1605630866   0.6872988608  -0.1051259629
	    C    -1.7900104941  -0.6455308277  -0.0913116279
	    C    -1.1750886942   1.6638857053  -0.1206758432
	    H    -2.5434606545  -1.4130833218  -0.0807580880
	    C    -0.4516712889  -1.0104923111  -0.0959811740
	    H    -1.4482426206   2.7041485981  -0.1275900643
	    C     0.1618716061   1.3125519608  -0.1171954523
	    H    -0.1802990138  -2.0495731227  -0.0965927800
	    C     0.5263843122  -0.0271451522  -0.1123677770
	    H     0.9358278631   2.0574497497  -0.1238570544
	    O     1.8535715139  -0.3034684141  -0.1374643456
	    C     2.3342919400  -1.3565227741   0.6542588102
	    H     1.9203292874  -1.3135366552   1.6558493227
	    H     3.4071681361  -1.2389095632   0.7025422810
	    H     2.1101461049  -2.3232642673   0.2166210459
	Saving final (previous) structure.
			--------------------------
			 OPTKING Finished Execution 
			--------------------------

    Final optimized geometry and variables:
    Molecular point group: c1
    Full point group: C1

    Geometry (in Angstrom), charge = 0, multiplicity = 1:

    H           -3.199598167717     0.962630055818    -0.102686531714
    C           -2.160562921571     0.687298808340    -0.105125954851
    C           -1.790010357440    -0.645530778382    -0.091311620913
    C           -1.175088604509     1.663885578228    -0.120675833994
    H           -2.543460460306    -1.413083213884    -0.080758081871
    C           -0.451671254410    -1.010492233895    -0.095981166710
    H           -1.448242509967     2.704148391572    -0.127590054556
    C            0.161871593753     1.312551860549    -0.117195443313
    H           -0.180299000000    -2.049572966226    -0.096592772622
    C            0.526384272004    -0.027145150128    -0.112367768434
    H            0.935827791607     2.057449592595    -0.123857044923
    O            1.853571372304    -0.303468390876    -0.137464335082
    C            2.334291761759    -1.356522670466     0.654258760195
    H            1.920329140747    -1.313536554861     1.655849196244
    H            3.407167875909    -1.238909468616     0.702542227349
    H            2.110145943757    -2.323264089881     0.216621029335

	Cleaning optimization helper files.


Properties will be evaluated at   0.000000,   0.000000,   0.000000 Bohr

Properties computed using the  density matrix

  Nuclear Dipole Moment: (a.u.)
     X:     0.9481      Y:    -2.4521      Z:     1.9151

  Electronic Dipole Moment: (a.u.)
     X:    -1.0325      Y:     2.0638      Z:    -1.5230

  Dipole Moment: (a.u.)
     X:    -0.0843      Y:    -0.3883      Z:     0.3921     Total:     0.5583

  Dipole Moment: (Debye)
     X:    -0.2144      Y:    -0.9870      Z:     0.9967     Total:     1.4190

  Quadrupole Moment: (Debye Ang)
    XX:   -43.5170     YY:   -41.0779     ZZ:   -50.7277
    XY:    -2.5862     XZ:     2.5190     YZ:    -1.0963

  Traceless Quadrupole Moment: (Debye Ang)
    XX:     1.5905     YY:     4.0297     ZZ:    -5.6202
    XY:    -2.5862     XZ:     2.5190     YZ:    -1.0963

  Mulliken Charges: (a.u.)
   Center  Symbol    Alpha    Beta     Spin     Total
       1     H     0.40066  0.40066  0.00000  0.19867
       2     C     3.10946  3.10946  0.00000 -0.21893
       3     C     3.09348  3.09348  0.00000 -0.18696
       4     C     3.09396  3.09396  0.00000 -0.18793
       5     H     0.39911  0.39911  0.00000  0.20177
       6     C     3.13391  3.13391  0.00000 -0.26781
       7     H     0.39857  0.39857  0.00000  0.20286
       8     C     3.12407  3.12407  0.00000 -0.24813
       9     H     0.39725  0.39725  0.00000  0.20550
      10     C     2.78948  2.78948  0.00000  0.42103
      11     H     0.39306  0.39306  0.00000  0.21389
      12     O     4.32988  4.32988  0.00000 -0.65975
      13     C     3.08774  3.08774  0.00000 -0.17548
      14     H     0.41942  0.41942  0.00000  0.16116
      15     H     0.40747  0.40747  0.00000  0.18506
      16     H     0.42247  0.42247  0.00000  0.15505

   Total alpha = 29.00000, Total beta = 29.00000, Total charge =  0.00000


*** PSI4 exiting successfully. Buy a developer a beer!
