    -----------------------------------------------------------------------
          Psi4: An Open-Source Ab Initio Electronic Structure Package
                              Psi4 1.0.54 Driver

                          Git: Rev {master} 8d4cec3 dirty

    J. M. Turney, A. C. Simmonett, R. M. Parrish, E. G. Hohenstein,
    F. A. Evangelista, J. T. Fermann, B. J. Mintz, L. A. Burns, J. J. Wilke,
    M. L. Abrams, N. J. Russ, M. L. Leininger, C. L. Janssen, E. T. Seidl,
    W. D. Allen, H. F. Schaefer, R. A. King, E. F. Valeev, C. D. Sherrill,
    and T. D. Crawford, WIREs Comput. Mol. Sci. 2, 556-565 (2012)
    (doi: 10.1002/wcms.93)

                         Additional Contributions by
    A. E. DePrince, U. Bozkaya, A. Yu. Sokolov, D. G. A. Smith, R. Di Remigio,
    R. M. Richard, J. F. Gonthier, H. R. McAlexander, M. Saitow, and
    B. P. Pritchard
    -----------------------------------------------------------------------


    Psi4 started on: Sat Sep 10 16:23:43 2016

    Process ID:  28310
    PSI4DATADIR: /export131/home/mjharvey/miniconda3/share/psi4
    Memory level set to 256.000 MB

  ==> Input File <==

--------------------------------------------------------------------------
set {
	reference rhf
	basis cc-pvtz
}


set_num_threads( 4 )
memory 2 gb

molecule MOL {
0 1

H	 1.128311	 0.207724	 1.465118
C	 1.134565	 0.093781	 0.372499
C	 0.062554	 0.862911	 -0.350953
O	 1.948932	 -0.587720	 -0.146651
C	 0.454186	 2.321667	 -0.606432
H	 -0.855812	 0.791797	 0.217414
H	 -0.092484	 0.361972	 -1.303894
C	 0.565498	 3.152547	 0.668675
H	 -0.285188	 2.764839	 -1.263318
H	 1.396063	 2.352056	 -1.147163
H	 -0.376235	 3.167276	 1.205778
H	 0.834527	 4.176450	 0.438703
H	 1.318630	 2.756838	 1.341164

	symmetry c1
}
set optking {
	frozen_dihedral = ("
		6 3 2 4
	")
}

ee,wfn = optimize('scf', return_wfn=True)
oeprop( wfn, 'DIPOLE', 'QUADRUPOLE', 'MULLIKEN_CHARGES')
f=open( 'psi4out.xyz', 'w' )
f.write( "13  " )
f.write( str(ee) + "\n" )
f.write( MOL.save_string_xyz() )
f.close()
--------------------------------------------------------------------------

  Memory set to   2.000 GiB by Python script.
gradient() will perform analytic gradient computation.

*** tstart() called on cx1-27-2-1
*** at Sat Sep 10 16:23:43 2016


         ---------------------------------------------------------
                                   SCF
            by Justin Turney, Rob Parrish, and Andy Simmonett
                              RHF Reference
                        4 Threads,   2000 MiB Core
         ---------------------------------------------------------

  ==> Geometry <==

    Molecular point group: c1
    Full point group: C1

    Geometry (in Angstrom), charge = 0, multiplicity = 1:

       Center              X                  Y                   Z               Mass       
    ------------   -----------------  -----------------  -----------------  -----------------
           H          0.283618329551    -0.964659251853     1.470376808790     1.007825032070
           C          0.289872329551    -1.078602251853     0.377757808790    12.000000000000
           C         -0.782138670449    -0.309472251853    -0.345694191210    12.000000000000
           O          1.104239329551    -1.760103251853    -0.141392191210    15.994914619560
           C         -0.390506670449     1.149283748147    -0.601173191210    12.000000000000
           H         -1.700504670449    -0.380586251853     0.222672808790     1.007825032070
           H         -0.937176670449    -0.810411251853    -1.298635191210     1.007825032070
           C         -0.279194670449     1.980163748147     0.673933808790    12.000000000000
           H         -1.129880670449     1.592455748147    -1.258059191210     1.007825032070
           H          0.551370329551     1.179672748147    -1.141904191210     1.007825032070
           H         -1.220927670449     1.994892748147     1.211036808790     1.007825032070
           H         -0.010165670449     3.004066748147     0.443961808790     1.007825032070
           H          0.473937329551     1.584454748147     1.346422808790     1.007825032070

  Running in c1 symmetry.

  Rotational constants: A =      0.37844  B =      0.09316  C =      0.08639 [cm^-1]
  Rotational constants: A =  11345.29502  B =   2792.75240  C =   2589.92343 [MHz]
  Nuclear repulsion =  174.000908688397260

  Charge       = 0
  Multiplicity = 1
  Electrons    = 40
  Nalpha       = 20
  Nbeta        = 20

  ==> Algorithm <==

  SCF Algorithm Type is DF.
  DIIS enabled.
  MOM disabled.
  Fractional occupation disabled.
  Guess Type is SAD.
  Energy threshold   = 1.00e-08
  Density threshold  = 1.00e-08
  Integral threshold = 0.00e+00

  ==> Primary Basis <==

  Basis Set: CC-PVTZ
    Number of shells: 98
    Number of basis function: 262
    Number of Cartesian functions: 295
    Spherical Harmonics?: true
    Max angular momentum: 3

  ==> Pre-Iterations <==

   -------------------------------------------------------
    Irrep   Nso     Nmo     Nalpha   Nbeta   Ndocc  Nsocc
   -------------------------------------------------------
     A        262     262       0       0       0       0
   -------------------------------------------------------
    Total     262     262      20      20      20       0
   -------------------------------------------------------

  ==> Integral Setup <==

  ==> DFJK: Density-Fitted J/K Matrices <==

    J tasked:                  Yes
    K tasked:                  Yes
    wK tasked:                  No
    OpenMP threads:              4
    Integrals threads:           4
    Memory (MB):              1430
    Algorithm:                Core
    Integral Cache:           NONE
    Schwarz Cutoff:          1E-12
    Fitting Condition:       1E-12

   => Auxiliary Basis Set <=

  Basis Set: 
    Number of shells: 205
    Number of basis function: 635
    Number of Cartesian functions: 760
    Spherical Harmonics?: true
    Max angular momentum: 4

  Minimum eigenvalue in the overlap matrix is 6.1417353868E-04.
  Using Symmetric Orthogonalization.
  SCF Guess: Superposition of Atomic Densities via on-the-fly atomic UHF.

  ==> Iterations <==

                           Total Energy        Delta E     RMS |[F,P]|

   @DF-RHF iter   0:  -232.94565966866804   -2.32946e+02   1.63404e-02 
   @DF-RHF iter   1:  -230.94634272964203    1.99932e+00   1.54013e-03 
   @DF-RHF iter   2:  -231.05128830517918   -1.04946e-01   6.05226e-04 DIIS
   @DF-RHF iter   3:  -231.06462369730758   -1.33354e-02   3.16779e-04 DIIS
   @DF-RHF iter   4:  -231.06820425225294   -3.58055e-03   7.30080e-05 DIIS
   @DF-RHF iter   5:  -231.06848248425689   -2.78232e-04   2.40214e-05 DIIS
   @DF-RHF iter   6:  -231.06852611160491   -4.36273e-05   8.41066e-06 DIIS
   @DF-RHF iter   7:  -231.06853421791828   -8.10631e-06   3.74481e-06 DIIS
   @DF-RHF iter   8:  -231.06853603285379   -1.81494e-06   1.30080e-06 DIIS
   @DF-RHF iter   9:  -231.06853631887537   -2.86022e-07   5.41628e-07 DIIS
   @DF-RHF iter  10:  -231.06853637799748   -5.91221e-08   2.63569e-07 DIIS
   @DF-RHF iter  11:  -231.06853639324652   -1.52490e-08   9.85283e-08 DIIS
   @DF-RHF iter  12:  -231.06853639493073   -1.68421e-09   2.52068e-08 DIIS
   @DF-RHF iter  13:  -231.06853639499451   -6.37783e-11   7.06092e-09 DIIS

  ==> Post-Iterations <==

    Orbital Energies (a.u.)
    -----------------------

    Doubly Occupied:                                                      

       1A    -20.553253     2A    -11.321327     3A    -11.236911  
       4A    -11.233923     5A    -11.222330     6A     -1.407839  
       7A     -1.087487     8A     -0.974545     9A     -0.855719  
      10A     -0.778095    11A     -0.684778    12A     -0.649192  
      13A     -0.611409    14A     -0.601331    15A     -0.568835  
      16A     -0.538170    17A     -0.507671    18A     -0.494324  
      19A     -0.483454    20A     -0.410923  

    Virtual:                                                              

      21A      0.123468    22A      0.152475    23A      0.162164  
      24A      0.174549    25A      0.193475    26A      0.212548  
      27A      0.214205    28A      0.229200    29A      0.243295  
      30A      0.290393    31A      0.337007    32A      0.343254  
      33A      0.372197    34A      0.391784    35A      0.394612  
      36A      0.424162    37A      0.433189    38A      0.466292  
      39A      0.494846    40A      0.508488    41A      0.568158  
      42A      0.574579    43A      0.586867    44A      0.594947  
      45A      0.610774    46A      0.632029    47A      0.639712  
      48A      0.642201    49A      0.650507    50A      0.666347  
      51A      0.674224    52A      0.679596    53A      0.706553  
      54A      0.725529    55A      0.747406    56A      0.783096  
      57A      0.817414    58A      0.835089    59A      0.890977  
      60A      0.911281    61A      0.917581    62A      0.940542  
      63A      0.967001    64A      1.006329    65A      1.030205  
      66A      1.031081    67A      1.088167    68A      1.132312  
      69A      1.150718    70A      1.176308    71A      1.195187  
      72A      1.202414    73A      1.207501    74A      1.252967  
      75A      1.261378    76A      1.274305    77A      1.313684  
      78A      1.323372    79A      1.336154    80A      1.349542  
      81A      1.366567    82A      1.382883    83A      1.390061  
      84A      1.404110    85A      1.415345    86A      1.446750  
      87A      1.464274    88A      1.494686    89A      1.503663  
      90A      1.515167    91A      1.539986    92A      1.556703  
      93A      1.593039    94A      1.615651    95A      1.640011  
      96A      1.669856    97A      1.680633    98A      1.696800  
      99A      1.739625   100A      1.800412   101A      1.810128  
     102A      1.837983   103A      1.875575   104A      1.898083  
     105A      1.972285   106A      2.048954   107A      2.223487  
     108A      2.277605   109A      2.366003   110A      2.428603  
     111A      2.452362   112A      2.482846   113A      2.570598  
     114A      2.601158   115A      2.643121   116A      2.670489  
     117A      2.683012   118A      2.741077   119A      2.765135  
     120A      2.790087   121A      2.813078   122A      2.821985  
     123A      2.856945   124A      2.872858   125A      2.906697  
     126A      2.924046   127A      2.962161   128A      2.977559  
     129A      3.024595   130A      3.032743   131A      3.058939  
     132A      3.092814   133A      3.109370   134A      3.122538  
     135A      3.144923   136A      3.172693   137A      3.190089  
     138A      3.227009   139A      3.251060   140A      3.272564  
     141A      3.300470   142A      3.328175   143A      3.330580  
     144A      3.378676   145A      3.387907   146A      3.397617  
     147A      3.406109   148A      3.431091   149A      3.437857  
     150A      3.465134   151A      3.471661   152A      3.481146  
     153A      3.483772   154A      3.536295   155A      3.544594  
     156A      3.602659   157A      3.615221   158A      3.642556  
     159A      3.677055   160A      3.690875   161A      3.709263  
     162A      3.731913   163A      3.750509   164A      3.785653  
     165A      3.816046   166A      3.818268   167A      3.853315  
     168A      3.864122   169A      3.890726   170A      3.905662  
     171A      3.935648   172A      3.989971   173A      4.007852  
     174A      4.027784   175A      4.060503   176A      4.082716  
     177A      4.101431   178A      4.108975   179A      4.126241  
     180A      4.146178   181A      4.150458   182A      4.178312  
     183A      4.197394   184A      4.219292   185A      4.258352  
     186A      4.267570   187A      4.282700   188A      4.330650  
     189A      4.341661   190A      4.356500   191A      4.399068  
     192A      4.412741   193A      4.429503   194A      4.446699  
     195A      4.467284   196A      4.488380   197A      4.499144  
     198A      4.507968   199A      4.580415   200A      4.601672  
     201A      4.614861   202A      4.638148   203A      4.647061  
     204A      4.675104   205A      4.736112   206A      4.739836  
     207A      4.775802   208A      4.793414   209A      4.848072  
     210A      4.888426   211A      4.946293   212A      4.963314  
     213A      5.005320   214A      5.057428   215A      5.115010  
     216A      5.144841   217A      5.182152   218A      5.226850  
     219A      5.238084   220A      5.242948   221A      5.255891  
     222A      5.291348   223A      5.353117   224A      5.388479  
     225A      5.402303   226A      5.455791   227A      5.528897  
     228A      5.538357   229A      5.578501   230A      5.594044  
     231A      5.664026   232A      5.694268   233A      5.724788  
     234A      5.735666   235A      5.741867   236A      5.754331  
     237A      5.776448   238A      5.811813   239A      5.860690  
     240A      5.884529   241A      5.933363   242A      5.972938  
     243A      6.053575   244A      6.184485   245A      6.300052  
     246A      6.308958   247A      6.335417   248A      6.374119  
     249A      6.393057   250A      6.783881   251A      6.804418  
     252A      6.916849   253A      6.974751   254A      7.358286  
     255A      7.385828   256A      7.531984   257A      7.586359  
     258A     10.710781   259A     13.024060   260A     13.609386  
     261A     14.194424   262A     14.338517  

    Final Occupation by Irrep:
              A 
    DOCC [    20 ]

  Energy converged.

  @DF-RHF Final Energy:  -231.06853639499451

   => Energetics <=

    Nuclear Repulsion Energy =            174.0009086883972600
    One-Electron Energy =                -657.6958576129587755
    Two-Electron Energy =                 252.6264125295669487
    DFT Exchange-Correlation Energy =       0.0000000000000000
    Empirical Dispersion Energy =           0.0000000000000000
    PCM Polarization Energy =               0.0000000000000000
    EFP Energy =                            0.0000000000000000
    Total Energy =                       -231.0685363949945668


  Saving occupied orbitals to File 180.

*** tstop() called on cx1-27-2-1 at Sat Sep 10 16:23:48 2016
Module time:
	user time   =      13.95 seconds =       0.23 minutes
	system time =       0.40 seconds =       0.01 minutes
	total time  =          5 seconds =       0.08 minutes
Total time:
	user time   =      13.95 seconds =       0.23 minutes
	system time =       0.40 seconds =       0.01 minutes
	total time  =          5 seconds =       0.08 minutes


Properties will be evaluated at   0.000000,   0.000000,   0.000000 Bohr

Properties computed using the SCF density matrix

  Nuclear Dipole Moment: (a.u.)
     X:    -3.4537      Y:     6.7412      Z:     0.9329

  Electronic Dipole Moment: (a.u.)
     X:     2.6103      Y:    -5.9095      Z:    -0.6308

  Dipole Moment: (a.u.)
     X:    -0.8434      Y:     0.8317      Z:     0.3021     Total:     1.2224

  Dipole Moment: (Debye)
     X:    -2.1437      Y:     2.1139      Z:     0.7680     Total:     3.1070


*** tstart() called on cx1-27-2-1
*** at Sat Sep 10 16:23:48 2016


         ------------------------------------------------------------
                                   SCF GRAD                          
                          Rob Parrish, Justin Turney,                
                       Andy Simmonett, and Alex Sokolov              
         ------------------------------------------------------------

  ==> Geometry <==

    Molecular point group: c1
    Full point group: C1

    Geometry (in Angstrom), charge = 0, multiplicity = 1:

       Center              X                  Y                   Z               Mass       
    ------------   -----------------  -----------------  -----------------  -----------------
           H          0.283618329551    -0.964659251853     1.470376808790     1.007825032070
           C          0.289872329551    -1.078602251853     0.377757808790    12.000000000000
           C         -0.782138670449    -0.309472251853    -0.345694191210    12.000000000000
           O          1.104239329551    -1.760103251853    -0.141392191210    15.994914619560
           C         -0.390506670449     1.149283748147    -0.601173191210    12.000000000000
           H         -1.700504670449    -0.380586251853     0.222672808790     1.007825032070
           H         -0.937176670449    -0.810411251853    -1.298635191210     1.007825032070
           C         -0.279194670449     1.980163748147     0.673933808790    12.000000000000
           H         -1.129880670449     1.592455748147    -1.258059191210     1.007825032070
           H          0.551370329551     1.179672748147    -1.141904191210     1.007825032070
           H         -1.220927670449     1.994892748147     1.211036808790     1.007825032070
           H         -0.010165670449     3.004066748147     0.443961808790     1.007825032070
           H          0.473937329551     1.584454748147     1.346422808790     1.007825032070

  Nuclear repulsion =  174.000908688397260

  ==> Basis Set <==

  Basis Set: CC-PVTZ
    Number of shells: 98
    Number of basis function: 262
    Number of Cartesian functions: 295
    Spherical Harmonics?: true
    Max angular momentum: 3

  ==> DFJKGrad: Density-Fitted SCF Gradients <==

    Gradient:                    1
    J tasked:                  Yes
    K tasked:                  Yes
    wK tasked:                  No
    OpenMP threads:              4
    Integrals threads:           4
    Memory (MB):              1430
    Schwarz Cutoff:          0E+00
    Fitting Condition:       1E-12

   => Auxiliary Basis Set <=

  Basis Set: 
    Number of shells: 205
    Number of basis function: 635
    Number of Cartesian functions: 760
    Spherical Harmonics?: true
    Max angular momentum: 4


  -Total Gradient:
     Atom            X                  Y                   Z
    ------   -----------------  -----------------  -----------------
       1       -0.001919800679     0.001250777507     0.000787615889
       2        0.000927865437    -0.001893579844    -0.007783002471
       3       -0.003019989139     0.008405137064     0.013575293510
       4        0.000737076545    -0.000325214898     0.001900853653
       5       -0.000490951622    -0.002675754944    -0.002742825658
       6        0.001745911518    -0.002809056086    -0.001774181810
       7        0.000404683619    -0.001659107276    -0.002447054133
       8       -0.000289664809    -0.000852716524    -0.000046588644
       9        0.000692548373     0.000238023122    -0.000539553586
      10        0.001115806395     0.001631604297    -0.000784675059
      11        0.000460174109    -0.000404074554    -0.000116461016
      12        0.000007430544     0.000108266272    -0.000408874209
      13       -0.000371090288    -0.001014304138     0.000379453533


*** tstop() called on cx1-27-2-1 at Sat Sep 10 16:23:51 2016
Module time:
	user time   =      14.34 seconds =       0.24 minutes
	system time =       0.38 seconds =       0.01 minutes
	total time  =          3 seconds =       0.05 minutes
Total time:
	user time   =      28.36 seconds =       0.47 minutes
	system time =       0.78 seconds =       0.01 minutes
	total time  =          8 seconds =       0.13 minutes

			-----------------------------------------
			 OPTKING 2.0: for geometry optimizations 
			  - R.A. King,  Bethel University        
			-----------------------------------------

	Internal coordinates to be generated automatically.
	Detected frag 1 with atoms:  1 2 3 4 5 6 7 8 9 10 11 12 13
	---Fragment 1 Bond Connectivity---
	 1 : 2
	 2 : 1 3 4
	 3 : 2 5 6 7
	 4 : 2
	 5 : 3 8 9 10
	 6 : 3
	 7 : 3
	 8 : 5 11 12 13
	 9 : 5
	 10 : 5
	 11 : 8
	 12 : 8
	 13 : 8

	Assuming in current code that numbering for constraints corresponds to unified fragment.
	Frozen dihedral atom list: 
	     6     3     2     4
	---Fragment 1 Geometry and Gradient---
	 H           0.5359609691       -1.8229417976        2.7786094808
	 C           0.5477793164       -2.0382628623        0.7138588032
	 C          -1.4780278851       -0.5848178017       -0.6532673471
	 O           2.0867099180       -3.3261131116       -0.2671925187
	 C          -0.7379506602        2.1718315330       -1.1360526898
	 H          -3.2134881148       -0.7192037859        0.4207906259
	 H          -1.7710072453       -1.5314553210       -2.4540648579
	 C          -0.5276014649        3.7419671823        1.2735503303
	 H          -2.1351650300        3.0093052427       -2.3773873303
	 H           1.0419389207        2.2292584204       -2.1578861914
	 H          -2.3072189252        3.7698009585        2.2885279055
	 H          -0.0192103331        5.6768634389        0.8389662321
	 H           0.8956117570        2.9941855439        2.5443703677
	            -0.0019198007        0.0012507775        0.0007876159
	             0.0009278654       -0.0018935798       -0.0077830025
	            -0.0030199891        0.0084051371        0.0135752935
	             0.0007370765       -0.0003252149        0.0019008537
	            -0.0004909516       -0.0026757549       -0.0027428257
	             0.0017459115       -0.0028090561       -0.0017741818
	             0.0004046836       -0.0016591073       -0.0024470541
	            -0.0002896648       -0.0008527165       -0.0000465886
	             0.0006925484        0.0002380231       -0.0005395536
	             0.0011158064        0.0016316043       -0.0007846751
	             0.0004601741       -0.0004040746       -0.0001164610
	             0.0000074305        0.0001082663       -0.0004088742
	            -0.0003710903       -0.0010143041        0.0003794535

	Previous optimization step data not found.  Starting new optimization.

	---Fragment 1 Intrafragment Coordinates---
	 - Coordinate -           - BOHR/RAD -       - ANG/DEG -
	 R(1,2)           =         2.075981	       1.098562
	 R(2,3)           =         2.843489	       1.504710
	 R(2,4)           =         2.233680	       1.182013
	 R(3,5)           =         2.894808	       1.531866
	 R(3,6)           =         2.045356	       1.082356
	 R(3,7)           =         2.055439	       1.087692
	 R(5,8)           =         2.883706	       1.525991
	 R(5,9)           =         2.048043	       1.083778
	 R(5,10)          =         2.053156	       1.086483
	 R(8,11)          =         2.048900	       1.084231
	 R(8,12)          =         2.047229	       1.083347
	 R(8,13)          =         2.049316	       1.084451
	 B(1,2,3)         =         2.005475	     114.905226
	 B(1,2,4)         =         2.095037	     120.036762
	 B(2,3,5)         =         1.965786	     112.631233
	 B(2,3,6)         =         1.894876	     108.568419
	 B(2,3,7)         =         1.862273	     106.700393
	 B(3,2,4)         =         2.182649	     125.056577
	 B(3,5,8)         =         1.979904	     113.440138
	 B(3,5,9)         =         1.892379	     108.425333
	 B(3,5,10)        =         1.908443	     109.345750
	 B(5,3,6)         =         1.946650	     111.534816
	 B(5,3,7)         =         1.905933	     109.201900
	 B(5,8,11)        =         1.936892	     110.975740
	 B(5,8,12)        =         1.934079	     110.814556
	 B(5,8,13)        =         1.949963	     111.724631
	 B(6,3,7)         =         1.884794	     107.990713
	 B(8,5,9)         =         1.910890	     109.485912
	 B(8,5,10)        =         1.914951	     109.718583
	 B(9,5,10)        =         1.852849	     106.160448
	 B(11,8,12)       =         1.883900	     107.939491
	 B(11,8,13)       =         1.876508	     107.515996
	 B(12,8,13)       =         1.879735	     107.700897
	 D(1,2,3,5)       =         1.458893	      83.588419
	 D(1,2,3,6)       =        -0.705774	     -40.437896
	 D(1,2,3,7)       =        -2.733235	    -156.602830
	 D(2,3,5,8)       =        -1.172464	     -67.177229
	 D(2,3,5,9)       =         2.984073	     170.974801
	 D(2,3,5,10)      =         0.971122	      55.641198
	 D(3,5,8,11)      =        -1.039366	     -59.551308
	 D(3,5,8,12)      =        -3.132201	    -179.461885
	 D(3,5,8,13)      =         1.054720	      60.431001
	 D(4,2,3,5)       =        -1.675057	     -95.973678
	*D(4,2,3,6)       =         2.443461	     140.000008
	 D(4,2,3,7)       =         0.416001	      23.835073
	 D(6,3,5,8)       =         0.963321	      55.194209
	 D(6,3,5,9)       =        -1.163328	     -66.653761
	 D(6,3,5,10)      =         3.106907	     178.012636
	 D(7,3,5,8)       =         3.045101	     174.471425
	 D(7,3,5,9)       =         0.918453	      52.623454
	 D(7,3,5,10)      =        -1.094499	     -62.710148
	 D(9,5,8,11)      =         1.076928	      61.703413
	 D(9,5,8,12)      =        -1.015907	     -58.207164
	 D(9,5,8,13)      =        -3.112171	    -178.314278
	 D(10,5,8,11)     =         3.103827	     177.836163
	 D(10,5,8,12)     =         1.010992	      57.925586
	 D(10,5,8,13)     =        -1.085272	     -62.181527

	Current energy   :      -231.0685363950

	Generating empirical Hessian (Schlegel '84) for each fragment.
	Taking RFO optimization step.
	Going to follow RFO solution 1.
	Using RFO vector 1.
	Norm of target step-size    0.21829
	Projected energy change by RFO approximation:         0.0013008438

	Back-transformation to cartesian coordinates...
	Could not converge backtransformation.
	Using first guess instead.

	Back-transformation to cartesian coordinates to adjust frozen coordinates...
	Successfully converged to displaced geometry.

	--- Internal Coordinate Step in ANG or DEG, aJ/ANG or AJ/DEG ---
	 ---------------------------------------------------------------------------
	   Coordinate                Previous        Force       Change         New 
	   ----------                --------       ------       ------       ------
	    1 R(1,2)          =      1.098562    -0.007613    -0.001261     1.097301
	    2 R(2,3)          =      1.504710     0.017599     0.004401     1.509111
	    3 R(2,4)          =      1.182013     0.001150     0.000247     1.182260
	    4 R(3,5)          =      1.531866     0.015072     0.003663     1.535529
	    5 R(3,6)          =      1.082356     0.018360     0.003685     1.086041
	    6 R(3,7)          =      1.087692    -0.023483    -0.004189     1.083503
	    7 R(5,8)          =      1.525991     0.011143     0.002442     1.528433
	    8 R(5,9)          =      1.083778     0.000396     0.000245     1.084022
	    9 R(5,10)         =      1.086483    -0.011563    -0.002009     1.084475
	   10 R(8,11)         =      1.084231     0.003813     0.002148     1.086379
	   11 R(8,12)         =      1.083347    -0.001573     0.001091     1.084438
	   12 R(8,13)         =      1.084451    -0.002865     0.001478     1.085929
	   13 B(1,2,3)        =    114.905226     0.000351     1.402237   116.307463
	   14 B(1,2,4)        =    120.036762    -0.000000    -0.219185   119.817577
	   15 B(2,3,5)        =    112.631233    -0.000004    -0.180932   112.450300
	   16 B(2,3,6)        =    108.568419     0.000067    -0.172707   108.395712
	   17 B(2,3,7)        =    106.700393     0.000044     1.241323   107.941716
	   18 B(3,2,4)        =    125.056577    -0.000350    -1.188835   123.867741
	   19 B(3,5,8)        =    113.440138     0.000353     1.210983   114.651121
	   20 B(3,5,9)        =    108.425333    -0.000120    -0.563572   107.861761
	   21 B(3,5,10)       =    109.345750    -0.000181    -0.827819   108.517931
	   22 B(5,3,6)        =    111.534816    -0.000167    -1.977037   109.557779
	   23 B(5,3,7)        =    109.201900     0.000063     0.826118   110.028018
	   24 B(5,8,11)       =    110.975740     0.000010     0.116717   111.092457
	   25 B(5,8,12)       =    110.814556     0.000016    -0.107581   110.706975
	   26 B(5,8,13)       =    111.724631     0.000041     0.210078   111.934709
	   27 B(6,3,7)        =    107.990713     0.000007     0.372786   108.363499
	   28 B(8,5,9)        =    109.485912    -0.000114    -0.366014   109.119898
	   29 B(8,5,10)       =    109.718583    -0.000043     0.209444   109.928027
	   30 B(9,5,10)       =    106.160448     0.000088     0.267602   106.428049
	   31 B(11,8,12)      =    107.939491    -0.000026    -0.171300   107.768190
	   32 B(11,8,13)      =    107.515996     0.000007     0.304837   107.820833
	   33 B(12,8,13)      =    107.700897    -0.000053    -0.369852   107.331045
	   34 D(1,2,3,5)      =     83.588419    -0.000024    -3.296276    80.292143
	   35 D(1,2,3,6)      =    -40.437896     0.000015    -0.544051   -40.981947
	   36 D(1,2,3,7)      =   -156.602830     0.000000    -1.551337  -158.154167
	   37 D(2,3,5,8)      =    -67.177229     0.000007     3.210820   -63.966409
	   38 D(2,3,5,9)      =    170.974801     0.000007     3.287577   174.262377
	   39 D(2,3,5,10)     =     55.641198     0.000020     3.704850    59.346048
	   40 D(3,5,8,11)     =    -59.551308    -0.000004     2.560750   -56.990559
	   41 D(3,5,8,12)     =   -179.461885    -0.000001     2.770390  -176.691495
	   42 D(3,5,8,13)     =     60.431001     0.000006     3.172040    63.603041
	   43 D(4,2,3,5)      =    -95.973678    -0.000039    -2.752225   -98.725903
	   44 *D(4,2,3,6)     =    140.000008    -0.000000     0.000000   140.000008
	   45 D(4,2,3,7)      =     23.835073    -0.000015    -1.007287    22.827787
	   46 D(6,3,5,8)      =     55.194209    -0.000002     1.446842    56.641052
	   47 D(6,3,5,9)      =    -66.653761    -0.000003     1.523599   -65.130162
	   48 D(6,3,5,10)     =    178.012636     0.000011     1.940872   179.953508
	   49 D(7,3,5,8)      =    174.471425    -0.000014     1.205223   175.676648
	   50 D(7,3,5,9)      =     52.623454    -0.000015     1.281980    53.905434
	   51 D(7,3,5,10)     =    -62.710148    -0.000001     1.699253   -61.010895
	   52 D(9,5,8,11)     =     61.703413    -0.000003     2.388663    64.092076
	   53 D(9,5,8,12)     =    -58.207164     0.000000     2.598304   -55.608860
	   54 D(9,5,8,13)     =   -178.314278     0.000007     2.999953  -175.314325
	   55 D(10,5,8,11)    =    177.836163     0.000000     2.619916   180.456080
	   56 D(10,5,8,12)    =     57.925586     0.000004     2.829557    60.755143
	   57 D(10,5,8,13)    =    -62.181527     0.000010     3.231206   -58.950321
	 ---------------------------------------------------------------------------
	Successfully symmetrized geometry.

  ==> Convergence Check <==

  Measures of convergence in internal coordinates in au.
  Criteria marked as inactive (o), active & met (*), and active & unmet ( ).
  --------------------------------------------------------------------------------------------- ~
   Step     Total Energy     Delta E     MAX Force     RMS Force      MAX Disp      RMS Disp    ~
  --------------------------------------------------------------------------------------------- ~
    Convergence Criteria    1.00e-06 *    3.00e-04 *             o    1.20e-03 *             o  ~
  --------------------------------------------------------------------------------------------- ~
      1    -231.06853639   -2.31e+02      4.65e-03      1.46e-03 o    6.47e-02      2.89e-02 o  ~
  ---------------------------------------------------------------------------------------------

	Writing optimization data to binary file.
	Structure for next step:
	Cartesian Geometry (in Angstrom)
	    H     0.2722156473  -0.9469462515   1.4849555758
	    C     0.2753034329  -1.0801986912   0.3957801122
	    C    -0.7767826571  -0.3199752477  -0.3740194136
	    O     1.0865487188  -1.7764963774  -0.1089857065
	    C    -0.3918940909   1.1495008902  -0.5984083400
	    H    -1.7099966599  -0.3709790784   0.1791487408
	    H    -0.9171590185  -0.8164541310  -1.3267955356
	    C    -0.2689133901   1.9786091505   0.6797006289
	    H    -1.1430048041   1.5956740214  -1.2401769577
	    H     0.5410186249   1.1807619698  -1.1504790043
	    H    -1.1918891365   1.9537512243   1.2521662845
	    H    -0.0528163813   3.0150787604   0.4450954357
	    H     0.5299119985   1.6188294864   1.3213226942
			--------------------------
			 OPTKING Finished Execution 
			--------------------------

    Structure for next step:
    Molecular point group: c1
    Full point group: C1

    Geometry (in Angstrom), charge = 0, multiplicity = 1:

    H            0.275943746004    -0.941486919559     1.478485618764
    C            0.279031531604    -1.074739359223     0.389310155199
    C           -0.773054558353    -0.314515915714    -0.380489370618
    O            1.090276817537    -1.771037045416    -0.115455663560
    C           -0.388165992153     1.154960222220    -0.604878297080
    H           -1.706268561200    -0.365519746387     0.172678783736
    H           -0.913430919775    -0.810994799035    -1.333265492683
    C           -0.265185291403     1.984068482479     0.673230671897
    H           -1.139276705348     1.601133353417    -1.246646914791
    H            0.544746723653     1.186221301762    -1.156948961380
    H           -1.188161037795     1.959210556253     1.245696327445
    H           -0.049088282627     3.020538092382     0.438625478630
    H            0.533640097258     1.624288818372     1.314852737162

gradient() will perform analytic gradient computation.

*** tstart() called on cx1-27-2-1
*** at Sat Sep 10 16:23:52 2016


         ---------------------------------------------------------
                                   SCF
            by Justin Turney, Rob Parrish, and Andy Simmonett
                              RHF Reference
                        4 Threads,   2000 MiB Core
         ---------------------------------------------------------

  ==> Geometry <==

    Molecular point group: c1
    Full point group: C1

    Geometry (in Angstrom), charge = 0, multiplicity = 1:

       Center              X                  Y                   Z               Mass       
    ------------   -----------------  -----------------  -----------------  -----------------
           H          0.275943746004    -0.941486919559     1.478485618764     1.007825032070
           C          0.279031531604    -1.074739359223     0.389310155199    12.000000000000
           C         -0.773054558353    -0.314515915714    -0.380489370618    12.000000000000
           O          1.090276817537    -1.771037045416    -0.115455663560    15.994914619560
           C         -0.388165992153     1.154960222220    -0.604878297080    12.000000000000
           H         -1.706268561200    -0.365519746387     0.172678783736     1.007825032070
           H         -0.913430919775    -0.810994799035    -1.333265492683     1.007825032070
           C         -0.265185291403     1.984068482479     0.673230671897    12.000000000000
           H         -1.139276705348     1.601133353417    -1.246646914791     1.007825032070
           H          0.544746723653     1.186221301762    -1.156948961380     1.007825032070
           H         -1.188161037795     1.959210556253     1.245696327445     1.007825032070
           H         -0.049088282627     3.020538092382     0.438625478630     1.007825032070
           H          0.533640097258     1.624288818372     1.314852737162     1.007825032070

  Running in c1 symmetry.

  Rotational constants: A =      0.37557  B =      0.09332  C =      0.08592 [cm^-1]
  Rotational constants: A =  11259.19205  B =   2797.74046  C =   2575.93253 [MHz]
  Nuclear repulsion =  173.772484859549110

  Charge       = 0
  Multiplicity = 1
  Electrons    = 40
  Nalpha       = 20
  Nbeta        = 20

  ==> Algorithm <==

  SCF Algorithm Type is DF.
  DIIS enabled.
  MOM disabled.
  Fractional occupation disabled.
  Guess Type is READ.
  Energy threshold   = 1.00e-08
  Density threshold  = 1.00e-08
  Integral threshold = 0.00e+00

  ==> Primary Basis <==

  Basis Set: CC-PVTZ
    Number of shells: 98
    Number of basis function: 262
    Number of Cartesian functions: 295
    Spherical Harmonics?: true
    Max angular momentum: 3

  ==> Pre-Iterations <==

   -------------------------------------------------------
    Irrep   Nso     Nmo     Nalpha   Nbeta   Ndocc  Nsocc
   -------------------------------------------------------
     A        262     262       0       0       0       0
   -------------------------------------------------------
    Total     262     262      20      20      20       0
   -------------------------------------------------------

  ==> Integral Setup <==

  ==> DFJK: Density-Fitted J/K Matrices <==

    J tasked:                  Yes
    K tasked:                  Yes
    wK tasked:                  No
    OpenMP threads:              4
    Integrals threads:           4
    Memory (MB):              1430
    Algorithm:                Core
    Integral Cache:           NONE
    Schwarz Cutoff:          1E-12
    Fitting Condition:       1E-12

   => Auxiliary Basis Set <=

  Basis Set: 
    Number of shells: 205
    Number of basis function: 635
    Number of Cartesian functions: 760
    Spherical Harmonics?: true
    Max angular momentum: 4

  Minimum eigenvalue in the overlap matrix is 6.2876254363E-04.
  Using Symmetric Orthogonalization.
  SCF Guess: Reading in previously saved MOs, projecting if necessary.

  Using orbitals from previous SCF, no projection.
  Recomputing DOCC and SOCC from number of alpha and beta electrons from previous calculation.
              A 
    DOCC [    20 ]

  ==> Iterations <==

                           Total Energy        Delta E     RMS |[F,P]|

   @DF-RHF iter   0:  -231.06210220946954   -2.31062e+02   2.58895e-04 
   @DF-RHF iter   1:  -231.06879257230102   -6.69036e-03   4.72248e-05 
   @DF-RHF iter   2:  -231.06892360678441   -1.31034e-04   1.94940e-05 DIIS
   @DF-RHF iter   3:  -231.06894234845058   -1.87417e-05   1.12142e-05 DIIS
   @DF-RHF iter   4:  -231.06894753793833   -5.18949e-06   2.23239e-06 DIIS
   @DF-RHF iter   5:  -231.06894799133394   -4.53396e-07   1.03290e-06 DIIS
   @DF-RHF iter   6:  -231.06894813315270   -1.41819e-07   4.66797e-07 DIIS
   @DF-RHF iter   7:  -231.06894817461634   -4.14636e-08   1.95241e-07 DIIS
   @DF-RHF iter   8:  -231.06894818296107   -8.34473e-09   7.71615e-08 DIIS
   @DF-RHF iter   9:  -231.06894818405013   -1.08906e-09   3.36849e-08 DIIS
   @DF-RHF iter  10:  -231.06894818425675   -2.06626e-10   1.00237e-08 DIIS
   @DF-RHF iter  11:  -231.06894818427341   -1.66551e-11   1.92832e-09 DIIS

  ==> Post-Iterations <==

    Orbital Energies (a.u.)
    -----------------------

    Doubly Occupied:                                                      

       1A    -20.552433     2A    -11.321199     3A    -11.236755  
       4A    -11.234324     5A    -11.223580     6A     -1.407420  
       7A     -1.085570     8A     -0.973163     9A     -0.854996  
      10A     -0.778911    11A     -0.684204    12A     -0.648067  
      13A     -0.609794    14A     -0.602997    15A     -0.567185  
      16A     -0.537414    17A     -0.507848    18A     -0.494150  
      19A     -0.483237    20A     -0.410982  

    Virtual:                                                              

      21A      0.123730    22A      0.152588    23A      0.162022  
      24A      0.175443    25A      0.193192    26A      0.212031  
      27A      0.214043    28A      0.230637    29A      0.239917  
      30A      0.290981    31A      0.336751    32A      0.342956  
      33A      0.370849    34A      0.390778    35A      0.396863  
      36A      0.423849    37A      0.433557    38A      0.464386  
      39A      0.491556    40A      0.506774    41A      0.568631  
      42A      0.577380    43A      0.587443    44A      0.594307  
      45A      0.612512    46A      0.630620    47A      0.639801  
      48A      0.641119    49A      0.648769    50A      0.665428  
      51A      0.674414    52A      0.678631    53A      0.706851  
      54A      0.725126    55A      0.747868    56A      0.783368  
      57A      0.816858    58A      0.841444    59A      0.885919  
      60A      0.909592    61A      0.913838    62A      0.940052  
      63A      0.961319    64A      1.000109    65A      1.026422  
      66A      1.037129    67A      1.088046    68A      1.130118  
      69A      1.151542    70A      1.180303    71A      1.194521  
      72A      1.202156    73A      1.209188    74A      1.255307  
      75A      1.258747    76A      1.269050    77A      1.317358  
      78A      1.323573    79A      1.332549    80A      1.344866  
      81A      1.365126    82A      1.382740    83A      1.391146  
      84A      1.404867    85A      1.416835    86A      1.447774  
      87A      1.465519    88A      1.493153    89A      1.497749  
      90A      1.519255    91A      1.537589    92A      1.558885  
      93A      1.586612    94A      1.608555    95A      1.638615  
      96A      1.670822    97A      1.677484    98A      1.698577  
      99A      1.740803   100A      1.798657   101A      1.811732  
     102A      1.838576   103A      1.875314   104A      1.904247  
     105A      1.969052   106A      2.045103   107A      2.220291  
     108A      2.277709   109A      2.364088   110A      2.429482  
     111A      2.453870   112A      2.479068   113A      2.571437  
     114A      2.604424   115A      2.642791   116A      2.660805  
     117A      2.684544   118A      2.736857   119A      2.755176  
     120A      2.788012   121A      2.817036   122A      2.823110  
     123A      2.856796   124A      2.865747   125A      2.910405  
     126A      2.923636   127A      2.966103   128A      2.977730  
     129A      3.023454   130A      3.030525   131A      3.058587  
     132A      3.093522   133A      3.108688   134A      3.130156  
     135A      3.139775   136A      3.169041   137A      3.190891  
     138A      3.226093   139A      3.253902   140A      3.275168  
     141A      3.298353   142A      3.324336   143A      3.333419  
     144A      3.371982   145A      3.384382   146A      3.401644  
     147A      3.406010   148A      3.426656   149A      3.437139  
     150A      3.469231   151A      3.472463   152A      3.480469  
     153A      3.484106   154A      3.534589   155A      3.542194  
     156A      3.602673   157A      3.613111   158A      3.643516  
     159A      3.677730   160A      3.687229   161A      3.708243  
     162A      3.721918   163A      3.750083   164A      3.781786  
     165A      3.810034   166A      3.819156   167A      3.859527  
     168A      3.865952   169A      3.884129   170A      3.901729  
     171A      3.936017   172A      3.982994   173A      3.996831  
     174A      4.018496   175A      4.057454   176A      4.089052  
     177A      4.096073   178A      4.103020   179A      4.129272  
     180A      4.148655   181A      4.152769   182A      4.178732  
     183A      4.191174   184A      4.213370   185A      4.254382  
     186A      4.267650   187A      4.293252   188A      4.323332  
     189A      4.333167   190A      4.355547   191A      4.395195  
     192A      4.415197   193A      4.428373   194A      4.443597  
     195A      4.464192   196A      4.490248   197A      4.495950  
     198A      4.506096   199A      4.576449   200A      4.598544  
     201A      4.612782   202A      4.630417   203A      4.649015  
     204A      4.674315   205A      4.728153   206A      4.740203  
     207A      4.774355   208A      4.794669   209A      4.841421  
     210A      4.889982   211A      4.936395   212A      4.959254  
     213A      5.009584   214A      5.046880   215A      5.107460  
     216A      5.154319   217A      5.199224   218A      5.224381  
     219A      5.233210   220A      5.238293   221A      5.252117  
     222A      5.293913   223A      5.348281   224A      5.381747  
     225A      5.402411   226A      5.460038   227A      5.512573  
     228A      5.530772   229A      5.579462   230A      5.588559  
     231A      5.666986   232A      5.694064   233A      5.721802  
     234A      5.730236   235A      5.739347   236A      5.750389  
     237A      5.776371   238A      5.803714   239A      5.863155  
     240A      5.884840   241A      5.933185   242A      5.961475  
     243A      6.056350   244A      6.181245   245A      6.296624  
     246A      6.313995   247A      6.338487   248A      6.364092  
     249A      6.392470   250A      6.778689   251A      6.794494  
     252A      6.917392   253A      6.974944   254A      7.358063  
     255A      7.380071   256A      7.531730   257A      7.585918  
     258A     10.700525   259A     13.036673   260A     13.580168  
     261A     14.163065   262A     14.303441  

    Final Occupation by Irrep:
              A 
    DOCC [    20 ]

  Energy converged.

  @DF-RHF Final Energy:  -231.06894818427341

   => Energetics <=

    Nuclear Repulsion Energy =            173.7724848595491096
    One-Electron Energy =                -657.2544115745420186
    Two-Electron Energy =                 252.4129785307194140
    DFT Exchange-Correlation Energy =       0.0000000000000000
    Empirical Dispersion Energy =           0.0000000000000000
    PCM Polarization Energy =               0.0000000000000000
    EFP Energy =                            0.0000000000000000
    Total Energy =                       -231.0689481842735233


  Saving occupied orbitals to File 180.

*** tstop() called on cx1-27-2-1 at Sat Sep 10 16:23:56 2016
Module time:
	user time   =      11.21 seconds =       0.19 minutes
	system time =       0.19 seconds =       0.00 minutes
	total time  =          4 seconds =       0.07 minutes
Total time:
	user time   =      41.35 seconds =       0.69 minutes
	system time =       1.04 seconds =       0.02 minutes
	total time  =         13 seconds =       0.22 minutes


Properties will be evaluated at   0.000000,   0.000000,   0.000000 Bohr

Properties computed using the SCF density matrix

  Nuclear Dipole Moment: (a.u.)
     X:    -3.4089      Y:     6.8101      Z:     0.8558

  Electronic Dipole Moment: (a.u.)
     X:     2.5753      Y:    -5.9655      Z:    -0.5645

  Dipole Moment: (a.u.)
     X:    -0.8337      Y:     0.8446      Z:     0.2913     Total:     1.2220

  Dipole Moment: (Debye)
     X:    -2.1190      Y:     2.1468      Z:     0.7403     Total:     3.1059


*** tstart() called on cx1-27-2-1
*** at Sat Sep 10 16:23:56 2016


         ------------------------------------------------------------
                                   SCF GRAD                          
                          Rob Parrish, Justin Turney,                
                       Andy Simmonett, and Alex Sokolov              
         ------------------------------------------------------------

  ==> Geometry <==

    Molecular point group: c1
    Full point group: C1

    Geometry (in Angstrom), charge = 0, multiplicity = 1:

       Center              X                  Y                   Z               Mass       
    ------------   -----------------  -----------------  -----------------  -----------------
           H          0.275943746004    -0.941486919559     1.478485618764     1.007825032070
           C          0.279031531604    -1.074739359223     0.389310155199    12.000000000000
           C         -0.773054558353    -0.314515915714    -0.380489370618    12.000000000000
           O          1.090276817537    -1.771037045416    -0.115455663560    15.994914619560
           C         -0.388165992153     1.154960222220    -0.604878297080    12.000000000000
           H         -1.706268561200    -0.365519746387     0.172678783736     1.007825032070
           H         -0.913430919775    -0.810994799035    -1.333265492683     1.007825032070
           C         -0.265185291403     1.984068482479     0.673230671897    12.000000000000
           H         -1.139276705348     1.601133353417    -1.246646914791     1.007825032070
           H          0.544746723653     1.186221301762    -1.156948961380     1.007825032070
           H         -1.188161037795     1.959210556253     1.245696327445     1.007825032070
           H         -0.049088282627     3.020538092382     0.438625478630     1.007825032070
           H          0.533640097258     1.624288818372     1.314852737162     1.007825032070

  Nuclear repulsion =  173.772484859549110

  ==> Basis Set <==

  Basis Set: CC-PVTZ
    Number of shells: 98
    Number of basis function: 262
    Number of Cartesian functions: 295
    Spherical Harmonics?: true
    Max angular momentum: 3

  ==> DFJKGrad: Density-Fitted SCF Gradients <==

    Gradient:                    1
    J tasked:                  Yes
    K tasked:                  Yes
    wK tasked:                  No
    OpenMP threads:              4
    Integrals threads:           4
    Memory (MB):              1430
    Schwarz Cutoff:          0E+00
    Fitting Condition:       1E-12

   => Auxiliary Basis Set <=

  Basis Set: 
    Number of shells: 205
    Number of basis function: 635
    Number of Cartesian functions: 760
    Spherical Harmonics?: true
    Max angular momentum: 4


  -Total Gradient:
     Atom            X                  Y                   Z
    ------   -----------------  -----------------  -----------------
       1        0.000248113398     0.000053389481     0.000918094138
       2        0.000909242328    -0.001791526683     0.000290189998
       3        0.000447033782     0.001499459019    -0.001263930762
       4       -0.000776318768     0.001232252143     0.000363081639
       5       -0.000408050980    -0.000759322369     0.000135941801
       6        0.000574511934    -0.000137605730    -0.000023371590
       7       -0.000920518010    -0.000655308918    -0.000900243446
       8       -0.000307923286     0.000715967790    -0.000594098894
       9        0.000111395261     0.000108196944    -0.000068443092
      10       -0.000253318416    -0.000525799039    -0.000133457688
      11       -0.000876385745    -0.000135348279     0.000463034950
      12        0.000245248897     0.001003182587     0.000107880626
      13        0.001006969608    -0.000607536949     0.000705322319


*** tstop() called on cx1-27-2-1 at Sat Sep 10 16:23:59 2016
Module time:
	user time   =      14.16 seconds =       0.24 minutes
	system time =       0.32 seconds =       0.01 minutes
	total time  =          3 seconds =       0.05 minutes
Total time:
	user time   =      55.57 seconds =       0.93 minutes
	system time =       1.36 seconds =       0.02 minutes
	total time  =         16 seconds =       0.27 minutes

			-----------------------------------------
			 OPTKING 2.0: for geometry optimizations 
			  - R.A. King,  Bethel University        
			-----------------------------------------

	Previous internal coordinate definitions found.
	---Fragment 1 Geometry and Gradient---
	 H           0.5214581080       -1.7791524357        2.7939329109
	 C           0.5272931772       -2.0309630532        0.7356895741
	 C          -1.4608614011       -0.5943489451       -0.7190207069
	 O           2.0603245942       -3.3467749870       -0.2181795846
	 C          -0.7335274193        2.1825585144       -1.1430543252
	 H          -3.2243802898       -0.6907322168        0.3263156102
	 H          -1.7261342797       -1.5325580654       -2.5195066436
	 C          -0.5011275752        3.7493460608        1.2722215941
	 H          -2.1529209627        3.0257035402       -2.3558212534
	 H           1.0294221195        2.2416333933       -2.1863166867
	 H          -2.2452989632        3.7023713880        2.3540249036
	 H          -0.0927634105        5.7079897686        0.8288820295
	 H           1.0084336373        3.0694610274        2.4847115783
	             0.0002481134        0.0000533895        0.0009180941
	             0.0009092423       -0.0017915267        0.0002901900
	             0.0004470338        0.0014994590       -0.0012639308
	            -0.0007763188        0.0012322521        0.0003630816
	            -0.0004080510       -0.0007593224        0.0001359418
	             0.0005745119       -0.0001376057       -0.0000233716
	            -0.0009205180       -0.0006553089       -0.0009002434
	            -0.0003079233        0.0007159678       -0.0005940989
	             0.0001113953        0.0001081969       -0.0000684431
	            -0.0002533184       -0.0005257990       -0.0001334577
	            -0.0008763857       -0.0001353483        0.0004630349
	             0.0002452489        0.0010031826        0.0001078806
	             0.0010069696       -0.0006075369        0.0007053223

	---Fragment 1 Intrafragment Coordinates---
	 - Coordinate -           - BOHR/RAD -       - ANG/DEG -
	 R(1,2)           =         2.073598	       1.097301
	 R(2,3)           =         2.851807	       1.509111
	 R(2,4)           =         2.234147	       1.182260
	 R(3,5)           =         2.901730	       1.535529
	 R(3,6)           =         2.052320	       1.086041
	 R(3,7)           =         2.047524	       1.083503
	 R(5,8)           =         2.888320	       1.528433
	 R(5,9)           =         2.048506	       1.084022
	 R(5,10)          =         2.049360	       1.084475
	 R(8,11)          =         2.052959	       1.086379
	 R(8,12)          =         2.049292	       1.084438
	 R(8,13)          =         2.052109	       1.085929
	 B(1,2,3)         =         2.029948	     116.307463
	 B(1,2,4)         =         2.091211	     119.817577
	 B(2,3,5)         =         1.962628	     112.450300
	 B(2,3,6)         =         1.891862	     108.395712
	 B(2,3,7)         =         1.883938	     107.941716
	 B(3,2,4)         =         2.161900	     123.867741
	 B(3,5,8)         =         2.001040	     114.651121
	 B(3,5,9)         =         1.882543	     107.861761
	 B(3,5,10)        =         1.893995	     108.517931
	 B(5,3,6)         =         1.912144	     109.557779
	 B(5,3,7)         =         1.920351	     110.028018
	 B(5,8,11)        =         1.938929	     111.092457
	 B(5,8,12)        =         1.932201	     110.706975
	 B(5,8,13)        =         1.953629	     111.934709
	 B(6,3,7)         =         1.891300	     108.363499
	 B(8,5,9)         =         1.904501	     109.119898
	 B(8,5,10)        =         1.918606	     109.928027
	 B(9,5,10)        =         1.857520	     106.428049
	 B(11,8,12)       =         1.880910	     107.768190
	 B(11,8,13)       =         1.881829	     107.820833
	 B(12,8,13)       =         1.873280	     107.331045
	 D(1,2,3,5)       =         1.401362	      80.292143
	 D(1,2,3,6)       =        -0.715270	     -40.981947
	 D(1,2,3,7)       =        -2.760311	    -158.154167
	 D(2,3,5,8)       =        -1.116424	     -63.966409
	 D(2,3,5,9)       =         3.041452	     174.262377
	 D(2,3,5,10)      =         1.035784	      59.346048
	 D(3,5,8,11)      =        -0.994673	     -56.990559
	 D(3,5,8,12)      =        -3.083848	    -176.691495
	 D(3,5,8,13)      =         1.110082	      63.603041
	 D(4,2,3,5)       =        -1.723092	     -98.725903
	*D(4,2,3,6)       =         2.443461	     140.000008
	 D(4,2,3,7)       =         0.398420	      22.827787
	 D(6,3,5,8)       =         0.988573	      56.641052
	 D(6,3,5,9)       =        -1.136736	     -65.130162
	 D(6,3,5,10)      =         3.140781	     179.953508
	 D(7,3,5,8)       =         3.066136	     175.676648
	 D(7,3,5,9)       =         0.940827	      53.905434
	 D(7,3,5,10)      =        -1.064841	     -61.010895
	 D(9,5,8,11)      =         1.118618	      64.092076
	 D(9,5,8,12)      =        -0.970558	     -55.608860
	 D(9,5,8,13)      =        -3.059812	    -175.314325
	 D(10,5,8,11)     =        -3.133633	    -179.543920
	 D(10,5,8,12)     =         1.060377	      60.755143
	 D(10,5,8,13)     =        -1.028877	     -58.950321

	Current energy   :      -231.0689481843

	Energy change for the previous step:
		Projected    :         0.0013008438
		Actual       :        -0.0004117893

	Performing BFGS update.
	Previous computed or guess Hessian on step 1.
	Steps to be used in Hessian update: 1
	Taking RFO optimization step.
	Going to follow RFO solution 1.
	Using RFO vector 1.
	Norm of target step-size    0.05104
	Projected energy change by RFO approximation:         0.0000742401

	Back-transformation to cartesian coordinates...
	Could not converge backtransformation.
	Using first guess instead.

	Back-transformation to cartesian coordinates to adjust frozen coordinates...
	Successfully converged to displaced geometry.

	--- Internal Coordinate Step in ANG or DEG, aJ/ANG or AJ/DEG ---
	 ---------------------------------------------------------------------------
	   Coordinate                Previous        Force       Change         New 
	   ----------                --------       ------       ------       ------
	    1 R(1,2)          =      1.097301    -0.007556    -0.001330     1.095971
	    2 R(2,3)          =      1.509111    -0.010892    -0.001839     1.507272
	    3 R(2,4)          =      1.182260     0.011645     0.000622     1.182882
	    4 R(3,5)          =      1.535529     0.003319     0.000821     1.536350
	    5 R(3,6)          =      1.086041     0.004112     0.000838     1.086879
	    6 R(3,7)          =      1.083503    -0.009978    -0.001877     1.081626
	    7 R(5,8)          =      1.528433    -0.009108    -0.001662     1.526771
	    8 R(5,9)          =      1.084022    -0.000065    -0.000001     1.084021
	    9 R(5,10)         =      1.084475     0.001360     0.000144     1.084619
	   10 R(8,11)         =      1.086379    -0.008170    -0.001368     1.085011
	   11 R(8,12)         =      1.084438    -0.008110    -0.001346     1.083093
	   12 R(8,13)         =      1.085929    -0.011194    -0.001889     1.084040
	   13 B(1,2,3)        =    116.307463    -0.000037    -0.066572   116.240891
	   14 B(1,2,4)        =    119.817577    -0.000001     0.007837   119.825413
	   15 B(2,3,5)        =    112.450300     0.000016     0.000083   112.450383
	   16 B(2,3,6)        =    108.395712     0.000028     0.323884   108.719596
	   17 B(2,3,7)        =    107.941716    -0.000028    -0.251207   107.690510
	   18 B(3,2,4)        =    123.867741     0.000038     0.065705   123.933446
	   19 B(3,5,8)        =    114.651121    -0.000026    -0.041071   114.610051
	   20 B(3,5,9)        =    107.861761    -0.000007    -0.123041   107.738720
	   21 B(3,5,10)       =    108.517931     0.000045     0.269251   108.787182
	   22 B(5,3,6)        =    109.557779    -0.000021    -0.105303   109.452476
	   23 B(5,3,7)        =    110.028018    -0.000018    -0.220854   109.807165
	   24 B(5,8,11)       =    111.092457     0.000016     0.089678   111.182135
	   25 B(5,8,12)       =    110.706975    -0.000044    -0.228217   110.478757
	   26 B(5,8,13)       =    111.934709     0.000025     0.147127   112.081836
	   27 B(6,3,7)        =    108.363499     0.000024     0.270421   108.633920
	   28 B(8,5,9)        =    109.119898     0.000014    -0.047610   109.072287
	   29 B(8,5,10)       =    109.928027    -0.000023    -0.116064   109.811963
	   30 B(9,5,10)       =    106.428049    -0.000001     0.066943   106.494992
	   31 B(11,8,12)      =    107.768190     0.000007    -0.033354   107.734836
	   32 B(11,8,13)      =    107.820833    -0.000011     0.038392   107.859224
	   33 B(12,8,13)      =    107.331045     0.000007    -0.017527   107.313518
	   34 D(1,2,3,5)      =     80.292143     0.000004     0.889721    81.181864
	   35 D(1,2,3,6)      =    -40.981947     0.000003     0.799466   -40.182480
	   36 D(1,2,3,7)      =   -158.154167    -0.000003     0.442837  -157.711330
	   37 D(2,3,5,8)      =    -63.966409    -0.000005    -0.871377   -64.837786
	   38 D(2,3,5,9)      =    174.262377    -0.000004    -0.692502   173.569875
	   39 D(2,3,5,10)     =     59.346048    -0.000008    -0.844526    58.501522
	   40 D(3,5,8,11)     =    -56.990559     0.000001     0.605188   -56.385371
	   41 D(3,5,8,12)     =   -176.691495     0.000004     0.738847  -175.952648
	   42 D(3,5,8,13)     =     63.603041     0.000005     0.818543    64.421583
	   43 D(4,2,3,5)      =    -98.725903     0.000001     0.090255   -98.635649
	   44 *D(4,2,3,6)     =    140.000008    -0.000000    -0.000000   140.000008
	   45 D(4,2,3,7)      =     22.827787    -0.000006    -0.356629    22.471158
	   46 D(6,3,5,8)      =     56.641052     0.000002    -0.533962    56.107090
	   47 D(6,3,5,9)      =    -65.130162     0.000004    -0.355087   -65.485249
	   48 D(6,3,5,10)     =    179.953508    -0.000001    -0.507111   179.446397
	   49 D(7,3,5,8)      =    175.676648     0.000004    -0.401291   175.275357
	   50 D(7,3,5,9)      =     53.905434     0.000005    -0.222416    53.683018
	   51 D(7,3,5,10)     =    -61.010895     0.000001    -0.374440   -61.385336
	   52 D(9,5,8,11)     =     64.092076    -0.000002     0.382892    64.474968
	   53 D(9,5,8,12)     =    -55.608860    -0.000000     0.516551   -55.092309
	   54 D(9,5,8,13)     =   -175.314325     0.000001     0.596247  -174.718078
	   55 D(10,5,8,11)    =   -179.543920    -0.000004     0.370514  -179.173406
	   56 D(10,5,8,12)    =     60.755143    -0.000002     0.504173    61.259316
	   57 D(10,5,8,13)    =    -58.950321    -0.000001     0.583869   -58.366453
	 ---------------------------------------------------------------------------
	Successfully symmetrized geometry.

  ==> Convergence Check <==

  Measures of convergence in internal coordinates in au.
  Criteria marked as inactive (o), active & met (*), and active & unmet ( ).
  ---------------------------------------------------------------------------------------------
   Step     Total Energy     Delta E     MAX Force     RMS Force      MAX Disp      RMS Disp   
  ---------------------------------------------------------------------------------------------
    Convergence Criteria    1.00e-06 *    3.00e-04 *             o    1.20e-03 *             o
  ---------------------------------------------------------------------------------------------
      2    -231.06894818   -4.12e-04      1.41e-03      5.07e-04 o    1.55e-02      6.76e-03 o  ~
  ---------------------------------------------------------------------------------------------

	Writing optimization data to binary file.
	Structure for next step:
	Cartesian Geometry (in Angstrom)
	    H     0.2759098832  -0.9559006663   1.4745298688
	    C     0.2803729714  -1.0779645039   0.3853870652
	    C    -0.7732207318  -0.3141582854  -0.3751448559
	    O     1.0865180743  -1.7771737881  -0.1249515700
	    C    -0.3836240943   1.1544457074  -0.6027138947
	    H    -1.7061268693  -0.3591966402   0.1806997635
	    H    -0.9140157556  -0.8077599757  -1.3272215136
	    C    -0.2678068631   1.9864173370   0.6722131697
	    H    -1.1324054786   1.5985041890  -1.2486555088
	    H     0.5527503365   1.1867916678  -1.1491157989
	    H    -1.1893464514   1.9576222176   1.2442140300
	    H    -0.0611624077   3.0219936204   0.4314445552
	    H     0.5331649539   1.6385061618   1.3145097622
			--------------------------
			 OPTKING Finished Execution 
			--------------------------

    Structure for next step:
    Molecular point group: c1
    Full point group: C1

    Geometry (in Angstrom), charge = 0, multiplicity = 1:

    H            0.276219432108    -0.954466690261     1.476113111316
    C            0.280682520305    -1.076530527830     0.386970307745
    C           -0.772911182833    -0.312724309412    -0.373561613323
    O            1.086827623227    -1.775739812113    -0.123368327447
    C           -0.383314545336     1.155879683459    -0.601130652133
    H           -1.705817320391    -0.357762664160     0.182283006068
    H           -0.913706206682    -0.806325999691    -1.325638271056
    C           -0.267497314186     1.987851313061     0.673796412233
    H           -1.132095929662     1.599938165050    -1.247072266279
    H            0.553059885467     1.188225643852    -1.147532556384
    H           -1.189036902441     1.959056193657     1.245797272542
    H           -0.060852858702     3.023427596461     0.433027797791
    H            0.533474502890     1.639940137808     1.316093004747

gradient() will perform analytic gradient computation.

*** tstart() called on cx1-27-2-1
*** at Sat Sep 10 16:24:00 2016


         ---------------------------------------------------------
                                   SCF
            by Justin Turney, Rob Parrish, and Andy Simmonett
                              RHF Reference
                        4 Threads,   2000 MiB Core
         ---------------------------------------------------------

  ==> Geometry <==

    Molecular point group: c1
    Full point group: C1

    Geometry (in Angstrom), charge = 0, multiplicity = 1:

       Center              X                  Y                   Z               Mass       
    ------------   -----------------  -----------------  -----------------  -----------------
           H          0.276219432108    -0.954466690261     1.476113111316     1.007825032070
           C          0.280682520305    -1.076530527830     0.386970307745    12.000000000000
           C         -0.772911182833    -0.312724309412    -0.373561613323    12.000000000000
           O          1.086827623227    -1.775739812113    -0.123368327447    15.994914619560
           C         -0.383314545336     1.155879683459    -0.601130652133    12.000000000000
           H         -1.705817320391    -0.357762664160     0.182283006068     1.007825032070
           H         -0.913706206682    -0.806325999691    -1.325638271056     1.007825032070
           C         -0.267497314186     1.987851313061     0.673796412233    12.000000000000
           H         -1.132095929662     1.599938165050    -1.247072266279     1.007825032070
           H          0.553059885467     1.188225643852    -1.147532556384     1.007825032070
           H         -1.189036902441     1.959056193657     1.245797272542     1.007825032070
           H         -0.060852858702     3.023427596461     0.433027797791     1.007825032070
           H          0.533474502890     1.639940137808     1.316093004747     1.007825032070

  Running in c1 symmetry.

  Rotational constants: A =      0.37800  B =      0.09299  C =      0.08582 [cm^-1]
  Rotational constants: A =  11332.27692  B =   2787.72225  C =   2572.93862 [MHz]
  Nuclear repulsion =  173.786533124445981

  Charge       = 0
  Multiplicity = 1
  Electrons    = 40
  Nalpha       = 20
  Nbeta        = 20

  ==> Algorithm <==

  SCF Algorithm Type is DF.
  DIIS enabled.
  MOM disabled.
  Fractional occupation disabled.
  Guess Type is READ.
  Energy threshold   = 1.00e-08
  Density threshold  = 1.00e-08
  Integral threshold = 0.00e+00

  ==> Primary Basis <==

  Basis Set: CC-PVTZ
    Number of shells: 98
    Number of basis function: 262
    Number of Cartesian functions: 295
    Spherical Harmonics?: true
    Max angular momentum: 3

  ==> Pre-Iterations <==

   -------------------------------------------------------
    Irrep   Nso     Nmo     Nalpha   Nbeta   Ndocc  Nsocc
   -------------------------------------------------------
     A        262     262       0       0       0       0
   -------------------------------------------------------
    Total     262     262      20      20      20       0
   -------------------------------------------------------

  ==> Integral Setup <==

  ==> DFJK: Density-Fitted J/K Matrices <==

    J tasked:                  Yes
    K tasked:                  Yes
    wK tasked:                  No
    OpenMP threads:              4
    Integrals threads:           4
    Memory (MB):              1430
    Algorithm:                Core
    Integral Cache:           NONE
    Schwarz Cutoff:          1E-12
    Fitting Condition:       1E-12

   => Auxiliary Basis Set <=

  Basis Set: 
    Number of shells: 205
    Number of basis function: 635
    Number of Cartesian functions: 760
    Spherical Harmonics?: true
    Max angular momentum: 4

  Minimum eigenvalue in the overlap matrix is 6.2757506645E-04.
  Using Symmetric Orthogonalization.
  SCF Guess: Reading in previously saved MOs, projecting if necessary.

  Using orbitals from previous SCF, no projection.
  Recomputing DOCC and SOCC from number of alpha and beta electrons from previous calculation.
              A 
    DOCC [    20 ]

  ==> Iterations <==

                           Total Energy        Delta E     RMS |[F,P]|

   @DF-RHF iter   0:  -231.07062753417202   -2.31071e+02   7.78213e-05 
   @DF-RHF iter   1:  -231.06895932009016    1.66821e-03   1.08475e-05 
   @DF-RHF iter   2:  -231.06896627995840   -6.95987e-06   3.76283e-06 DIIS
   @DF-RHF iter   3:  -231.06896738159108   -1.10163e-06   1.94523e-06 DIIS
   @DF-RHF iter   4:  -231.06896756651579   -1.84925e-07   6.88098e-07 DIIS
   @DF-RHF iter   5:  -231.06896763482851   -6.83127e-08   3.92506e-07 DIIS
   @DF-RHF iter   6:  -231.06896766656669   -3.17382e-08   1.62126e-07 DIIS
   @DF-RHF iter   7:  -231.06896767282578   -6.25909e-09   5.05428e-08 DIIS
   @DF-RHF iter   8:  -231.06896767328138   -4.55600e-10   1.64155e-08 DIIS
   @DF-RHF iter   9:  -231.06896767331799   -3.66072e-11   5.91407e-09 DIIS

  ==> Post-Iterations <==

    Orbital Energies (a.u.)
    -----------------------

    Doubly Occupied:                                                      

       1A    -20.552388     2A    -11.321028     3A    -11.236640  
       4A    -11.234099     5A    -11.222794     6A     -1.406965  
       7A     -1.085908     8A     -0.973951     9A     -0.855045  
      10A     -0.779160    11A     -0.684553    12A     -0.648125  
      13A     -0.610074    14A     -0.602966    15A     -0.567650  
      16A     -0.537513    17A     -0.507793    18A     -0.494480  
      19A     -0.482787    20A     -0.411236  

    Virtual:                                                              

      21A      0.123457    22A      0.152555    23A      0.162405  
      24A      0.175225    25A      0.193122    26A      0.211992  
      27A      0.213896    28A      0.230728    29A      0.240017  
      30A      0.290492    31A      0.336993    32A      0.343168  
      33A      0.370747    34A      0.390383    35A      0.396815  
      36A      0.423770    37A      0.434240    38A      0.464295  
      39A      0.492308    40A      0.507621    41A      0.568410  
      42A      0.577319    43A      0.587270    44A      0.593845  
      45A      0.613089    46A      0.630747    47A      0.640050  
      48A      0.641540    49A      0.649336    50A      0.665792  
      51A      0.674755    52A      0.679174    53A      0.706354  
      54A      0.724792    55A      0.746815    56A      0.784057  
      57A      0.816351    58A      0.842878    59A      0.887399  
      60A      0.909290    61A      0.914178    62A      0.940644  
      63A      0.962736    64A      1.000260    65A      1.026567  
      66A      1.036803    67A      1.088164    68A      1.129677  
      69A      1.152654    70A      1.179663    71A      1.193586  
      72A      1.202712    73A      1.208955    74A      1.256829  
      75A      1.258847    76A      1.268983    77A      1.317280  
      78A      1.325117    79A      1.333746    80A      1.345291  
      81A      1.365507    82A      1.382855    83A      1.390794  
      84A      1.404766    85A      1.417307    86A      1.446748  
      87A      1.466042    88A      1.493658    89A      1.496145  
      90A      1.519205    91A      1.538571    92A      1.559971  
      93A      1.587140    94A      1.607476    95A      1.639241  
      96A      1.671430    97A      1.677413    98A      1.698661  
      99A      1.741999   100A      1.799048   101A      1.812979  
     102A      1.839229   103A      1.874612   104A      1.902515  
     105A      1.969706   106A      2.043790   107A      2.221919  
     108A      2.277201   109A      2.364236   110A      2.430181  
     111A      2.453629   112A      2.478042   113A      2.570717  
     114A      2.605301   115A      2.640760   116A      2.662893  
     117A      2.684091   118A      2.736393   119A      2.756412  
     120A      2.787681   121A      2.816975   122A      2.821048  
     123A      2.857983   124A      2.865765   125A      2.911557  
     126A      2.924074   127A      2.966282   128A      2.978743  
     129A      3.023881   130A      3.030701   131A      3.061271  
     132A      3.093478   133A      3.109516   134A      3.130152  
     135A      3.139246   136A      3.170409   137A      3.191553  
     138A      3.226446   139A      3.254503   140A      3.275333  
     141A      3.299032   142A      3.324270   143A      3.332597  
     144A      3.370389   145A      3.385393   146A      3.401867  
     147A      3.404983   148A      3.426688   149A      3.437297  
     150A      3.469370   151A      3.472164   152A      3.481581  
     153A      3.484881   154A      3.534903   155A      3.542371  
     156A      3.605133   157A      3.613768   158A      3.644944  
     159A      3.678384   160A      3.687202   161A      3.710258  
     162A      3.724289   163A      3.752254   164A      3.782912  
     165A      3.812228   166A      3.819431   167A      3.860653  
     168A      3.865383   169A      3.887200   170A      3.904264  
     171A      3.937034   172A      3.984857   173A      3.998588  
     174A      4.017371   175A      4.057018   176A      4.092022  
     177A      4.096251   178A      4.105833   179A      4.130244  
     180A      4.149064   181A      4.152917   182A      4.179482  
     183A      4.191758   184A      4.211823   185A      4.255181  
     186A      4.268769   187A      4.296553   188A      4.326771  
     189A      4.333583   190A      4.355763   191A      4.396164  
     192A      4.417495   193A      4.429753   194A      4.443670  
     195A      4.466487   196A      4.490605   197A      4.496964  
     198A      4.507144   199A      4.576634   200A      4.599496  
     201A      4.613809   202A      4.632657   203A      4.648668  
     204A      4.675545   205A      4.728695   206A      4.741762  
     207A      4.777672   208A      4.795779   209A      4.841932  
     210A      4.890370   211A      4.936919   212A      4.962489  
     213A      5.010311   214A      5.052389   215A      5.109649  
     216A      5.156296   217A      5.200368   218A      5.228173  
     219A      5.234374   220A      5.241659   221A      5.253009  
     222A      5.294968   223A      5.349367   224A      5.384341  
     225A      5.405570   226A      5.462636   227A      5.516161  
     228A      5.535721   229A      5.583464   230A      5.590237  
     231A      5.667757   232A      5.697031   233A      5.725477  
     234A      5.731885   235A      5.742831   236A      5.755366  
     237A      5.778558   238A      5.806799   239A      5.862276  
     240A      5.886984   241A      5.934926   242A      5.965460  
     243A      6.057405   244A      6.181754   245A      6.299309  
     246A      6.316031   247A      6.338348   248A      6.364219  
     249A      6.392288   250A      6.776992   251A      6.795314  
     252A      6.917201   253A      6.975124   254A      7.358039  
     255A      7.381090   256A      7.532379   257A      7.585717  
     258A     10.711592   259A     13.037162   260A     13.591694  
     261A     14.192485   262A     14.306303  

    Final Occupation by Irrep:
              A 
    DOCC [    20 ]

  Energy converged.

  @DF-RHF Final Energy:  -231.06896767331799

   => Energetics <=

    Nuclear Repulsion Energy =            173.7865331244459810
    One-Electron Energy =                -657.2806926285149984
    Two-Electron Energy =                 252.4251918307512028
    DFT Exchange-Correlation Energy =       0.0000000000000000
    Empirical Dispersion Energy =           0.0000000000000000
    PCM Polarization Energy =               0.0000000000000000
    EFP Energy =                            0.0000000000000000
    Total Energy =                       -231.0689676733177862


  Saving occupied orbitals to File 180.

*** tstop() called on cx1-27-2-1 at Sat Sep 10 16:24:03 2016
Module time:
	user time   =      10.71 seconds =       0.18 minutes
	system time =       0.20 seconds =       0.00 minutes
	total time  =          3 seconds =       0.05 minutes
Total time:
	user time   =      67.34 seconds =       1.12 minutes
	system time =       1.57 seconds =       0.03 minutes
	total time  =         20 seconds =       0.33 minutes


Properties will be evaluated at   0.000000,   0.000000,   0.000000 Bohr

Properties computed using the SCF density matrix

  Nuclear Dipole Moment: (a.u.)
     X:    -3.4060      Y:     6.8275      Z:     0.8741

  Electronic Dipole Moment: (a.u.)
     X:     2.5744      Y:    -5.9788      Z:    -0.5770

  Dipole Moment: (a.u.)
     X:    -0.8316      Y:     0.8487      Z:     0.2971     Total:     1.2248

  Dipole Moment: (Debye)
     X:    -2.1138      Y:     2.1572      Z:     0.7552     Total:     3.1132


*** tstart() called on cx1-27-2-1
*** at Sat Sep 10 16:24:03 2016


         ------------------------------------------------------------
                                   SCF GRAD                          
                          Rob Parrish, Justin Turney,                
                       Andy Simmonett, and Alex Sokolov              
         ------------------------------------------------------------

  ==> Geometry <==

    Molecular point group: c1
    Full point group: C1

    Geometry (in Angstrom), charge = 0, multiplicity = 1:

       Center              X                  Y                   Z               Mass       
    ------------   -----------------  -----------------  -----------------  -----------------
           H          0.276219432108    -0.954466690261     1.476113111316     1.007825032070
           C          0.280682520305    -1.076530527830     0.386970307745    12.000000000000
           C         -0.772911182833    -0.312724309412    -0.373561613323    12.000000000000
           O          1.086827623227    -1.775739812113    -0.123368327447    15.994914619560
           C         -0.383314545336     1.155879683459    -0.601130652133    12.000000000000
           H         -1.705817320391    -0.357762664160     0.182283006068     1.007825032070
           H         -0.913706206682    -0.806325999691    -1.325638271056     1.007825032070
           C         -0.267497314186     1.987851313061     0.673796412233    12.000000000000
           H         -1.132095929662     1.599938165050    -1.247072266279     1.007825032070
           H          0.553059885467     1.188225643852    -1.147532556384     1.007825032070
           H         -1.189036902441     1.959056193657     1.245797272542     1.007825032070
           H         -0.060852858702     3.023427596461     0.433027797791     1.007825032070
           H          0.533474502890     1.639940137808     1.316093004747     1.007825032070

  Nuclear repulsion =  173.786533124445981

  ==> Basis Set <==

  Basis Set: CC-PVTZ
    Number of shells: 98
    Number of basis function: 262
    Number of Cartesian functions: 295
    Spherical Harmonics?: true
    Max angular momentum: 3

  ==> DFJKGrad: Density-Fitted SCF Gradients <==

    Gradient:                    1
    J tasked:                  Yes
    K tasked:                  Yes
    wK tasked:                  No
    OpenMP threads:              4
    Integrals threads:           4
    Memory (MB):              1430
    Schwarz Cutoff:          0E+00
    Fitting Condition:       1E-12

   => Auxiliary Basis Set <=

  Basis Set: 
    Number of shells: 205
    Number of basis function: 635
    Number of Cartesian functions: 760
    Spherical Harmonics?: true
    Max angular momentum: 4


  -Total Gradient:
     Atom            X                  Y                   Z
    ------   -----------------  -----------------  -----------------
       1       -0.000422184100    -0.000492257774     0.000045658622
       2        0.001255749467     0.000629453589    -0.000133387962
[...]
           H         -0.917537847212    -0.801486617906    -1.327424505638     1.007825032070
           C         -0.253752869403     1.986100836945     0.675943650618    12.000000000000
           H         -1.129243813292     1.607116724109    -1.242483289873     1.007825032070
           H          0.554218129606     1.187059567060    -1.151087244355     1.007825032070
           H         -1.175452679492     1.967912314118     1.247998030974     1.007825032070
           H         -0.033841297950     3.019557214807     0.437479196529     1.007825032070
           H          0.542363406318     1.626218530874     1.317518983493     1.007825032070

  Nuclear repulsion =  173.824791040892990

  ==> Basis Set <==

  Basis Set: CC-PVTZ
    Number of shells: 98
    Number of basis function: 262
    Number of Cartesian functions: 295
    Spherical Harmonics?: true
    Max angular momentum: 3

  ==> DFJKGrad: Density-Fitted SCF Gradients <==

    Gradient:                    1
    J tasked:                  Yes
    K tasked:                  Yes
    wK tasked:                  No
    OpenMP threads:              4
    Integrals threads:           4
    Memory (MB):              1430
    Schwarz Cutoff:          0E+00
    Fitting Condition:       1E-12

   => Auxiliary Basis Set <=

  Basis Set: 
    Number of shells: 205
    Number of basis function: 635
    Number of Cartesian functions: 760
    Spherical Harmonics?: true
    Max angular momentum: 4


  -Total Gradient:
     Atom            X                  Y                   Z
    ------   -----------------  -----------------  -----------------
       1        0.000001319773    -0.000001873437    -0.000005434915
       2       -0.000292658725    -0.000318069691     0.000079032795
       3       -0.000000422182    -0.000224857785    -0.000224898671
       4        0.000217192467     0.000265562942    -0.000026343865
       5       -0.000007160541    -0.000003191410     0.000002034822
       6        0.000081722782     0.000279832525     0.000163076220
       7        0.000001484021     0.000003434126     0.000008186030
       8        0.000003845819     0.000003133513     0.000003648014
       9       -0.000000941933    -0.000001270561    -0.000000389386
      10       -0.000002070951    -0.000001650474     0.000005164535
      11        0.000001844922     0.000002622629    -0.000001834889
      12        0.000000124116    -0.000004862325     0.000000902456
      13       -0.000004279564     0.000001189944    -0.000003143147


*** tstop() called on cx1-27-2-1 at Sat Sep 10 16:24:44 2016
Module time:
	user time   =      14.02 seconds =       0.23 minutes
	system time =       0.34 seconds =       0.01 minutes
	total time  =          4 seconds =       0.07 minutes
Total time:
	user time   =     212.68 seconds =       3.54 minutes
	system time =       4.67 seconds =       0.08 minutes
	total time  =         61 seconds =       1.02 minutes

			-----------------------------------------
			 OPTKING 2.0: for geometry optimizations 
			  - R.A. King,  Bethel University        
			-----------------------------------------

	Previous internal coordinate definitions found.
	---Fragment 1 Geometry and Gradient---
	 H           0.5252585093       -1.7865647596        2.7854594832
	 C           0.5181067044       -2.0351965831        0.7294978724
	 C          -1.4659196762       -0.5848456733       -0.7076168088
	 O           2.0369438435       -3.3625394869       -0.2346984161
	 C          -0.7179029598        2.1886072863       -1.1350396718
	 H          -3.2291854936       -0.6627185914        0.3412163515
	 H          -1.7338952478       -1.5145902070       -2.5084687777
	 C          -0.4795234286        3.7531866541        1.2773483809
	 H          -2.1339615444        3.0370104721       -2.3479531425
	 H           1.0473204828        2.2432174852       -2.1752396469
	 H          -2.2212836464        3.7188153272        2.3583744929
	 H          -0.0639507851        5.7061361786        0.8267158703
	 H           1.0249183024        3.0731076556        2.4897500537
	             0.0000013198       -0.0000018734       -0.0000054349
	            -0.0002926587       -0.0003180697        0.0000790328
	            -0.0000004222       -0.0002248578       -0.0002248987
	             0.0002171925        0.0002655629       -0.0000263439
	            -0.0000071605       -0.0000031914        0.0000020348
	             0.0000817228        0.0002798325        0.0001630762
	             0.0000014840        0.0000034341        0.0000081860
	             0.0000038458        0.0000031335        0.0000036480
	            -0.0000009419       -0.0000012706       -0.0000003894
	            -0.0000020710       -0.0000016505        0.0000051645
	             0.0000018449        0.0000026226       -0.0000018349
	             0.0000001241       -0.0000048623        0.0000009025
	            -0.0000042796        0.0000011899       -0.0000031431

	---Fragment 1 Intrafragment Coordinates---
	 - Coordinate -           - BOHR/RAD -       - ANG/DEG -
	 R(1,2)           =         2.070953	       1.095901
	 R(2,3)           =         2.846959	       1.506546
	 R(2,4)           =         2.235706	       1.183084
	 R(3,5)           =         2.904180	       1.536826
	 R(3,6)           =         2.053100	       1.086454
	 R(3,7)           =         2.044335	       1.081815
	 R(5,8)           =         2.885195	       1.526779
	 R(5,9)           =         2.048455	       1.083996
	 R(5,10)          =         2.049637	       1.084621
	 R(8,11)          =         2.050251	       1.084946
	 R(8,12)          =         2.046896	       1.083171
	 R(8,13)          =         2.048358	       1.083944
	 B(1,2,3)         =         2.029047	     116.255853
	 B(1,2,4)         =         2.091028	     119.807096
	 B(2,3,5)         =         1.962003	     112.414465
	 B(2,3,6)         =         1.897916	     108.742605
	 B(2,3,7)         =         1.880032	     107.717893
	 B(3,2,4)         =         2.163000	     123.930788
	 B(3,5,8)         =         1.999940	     114.588123
	 B(3,5,9)         =         1.880334	     107.735185
	 B(3,5,10)        =         1.898597	     108.781591
	 B(5,3,6)         =         1.909868	     109.427402
	 B(5,3,7)         =         1.916050	     109.781555
	 B(5,8,11)        =         1.940758	     111.197234
	 B(5,8,12)        =         1.928461	     110.492654
	 B(5,8,13)        =         1.955769	     112.057332
	 B(6,3,7)         =         1.896719	     108.673983
	 B(8,5,9)         =         1.904559	     109.123212
	 B(8,5,10)        =         1.916366	     109.799686
	 B(9,5,10)        =         1.858575	     106.488498
	 B(11,8,12)       =         1.880265	     107.731227
	 B(11,8,13)       =         1.882103	     107.836561
	 B(12,8,13)       =         1.873357	     107.335453
	 D(1,2,3,5)       =         1.403428	      80.410490
	 D(1,2,3,6)       =        -0.714098	     -40.914808
	 D(1,2,3,7)       =        -2.766670	    -158.518516
	 D(2,3,5,8)       =        -1.125541	     -64.488772
	 D(2,3,5,9)       =         3.034615	     173.870650
	 D(2,3,5,10)      =         1.026509	      58.814638
	 D(3,5,8,11)      =        -0.993251	     -56.909110
	 D(3,5,8,12)      =        -3.080346	    -176.490811
	 D(3,5,8,13)      =         1.114609	      63.862418
	 D(4,2,3,5)       =        -1.722198	     -98.674694
	*D(4,2,3,6)       =         2.443461	     140.000008
	 D(4,2,3,7)       =         0.390889	      22.396300
	 D(6,3,5,8)       =         0.985137	      56.444209
	 D(6,3,5,9)       =        -1.137891	     -65.196369
	 D(6,3,5,10)      =         3.137188	     179.747619
	 D(7,3,5,8)       =         3.065334	     175.630697
	 D(7,3,5,9)       =         0.942305	      53.990119
	 D(7,3,5,10)      =        -1.065801	     -61.065892
	 D(9,5,8,11)      =         1.116479	      63.969519
	 D(9,5,8,12)      =        -0.970616	     -55.612182
	 D(9,5,8,13)      =        -3.058846	    -175.258953
	 D(10,5,8,11)     =        -3.135735	    -179.664402
	 D(10,5,8,12)     =         1.060356	      60.753897
	 D(10,5,8,13)     =        -1.027875	     -58.892874

	Current energy   :      -231.0689782762

	Energy change for the previous step:
		Projected    :         0.0000003066
		Actual       :        -0.0000000278

	Performing BFGS update.
	Previous computed or guess Hessian on step 1.
	Denominators (dg)(dq) or (dq)(dq) are very small.
	 Skipping Hessian update for step 7.
	Steps to be used in Hessian update: 6 5
	Taking RFO optimization step.
	Going to follow RFO solution 1.
	Using RFO vector 1.
	Norm of target step-size    0.00196
	Projected energy change by RFO approximation:         0.0000000396

	Back-transformation to cartesian coordinates...
	Could not converge backtransformation.
	Using first guess instead.

	Back-transformation to cartesian coordinates to adjust frozen coordinates...
	Successfully converged to displaced geometry.

	--- Internal Coordinate Step in ANG or DEG, aJ/ANG or AJ/DEG ---
	 ---------------------------------------------------------------------------
	   Coordinate                Previous        Force       Change         New 
	   ----------                --------       ------       ------       ------
	    1 R(1,2)          =      1.095901     0.000046     0.000010     1.095911
	    2 R(2,3)          =      1.506546     0.000001     0.000003     1.506549
	    3 R(2,4)          =      1.183084    -0.000010    -0.000002     1.183082
	    4 R(3,5)          =      1.536826     0.000058     0.000007     1.536833
	    5 R(3,6)          =      1.086454    -0.000021    -0.000008     1.086446
	    6 R(3,7)          =      1.081815     0.000074     0.000020     1.081836
	    7 R(5,8)          =      1.526779    -0.000007     0.000003     1.526782
	    8 R(5,9)          =      1.083996    -0.000003     0.000000     1.083996
	    9 R(5,10)         =      1.084621     0.000037     0.000007     1.084628
	   10 R(8,11)         =      1.084946     0.000021     0.000006     1.084952
	   11 R(8,12)         =      1.083171     0.000040     0.000009     1.083180
	   12 R(8,13)         =      1.083944     0.000044     0.000011     1.083955
	   13 B(1,2,3)        =    116.255853    -0.000000    -0.000893   116.254960
	   14 B(1,2,4)        =    119.807096     0.000000     0.000892   119.807988
	   15 B(2,3,5)        =    112.414465    -0.000000    -0.000142   112.414323
	   16 B(2,3,6)        =    108.742605    -0.000000    -0.001897   108.740708
	   17 B(2,3,7)        =    107.717893     0.000000     0.000218   107.718112
	   18 B(3,2,4)        =    123.930788    -0.000000    -0.000011   123.930777
	   19 B(3,5,8)        =    114.588123    -0.000001    -0.001833   114.586290
	   20 B(3,5,9)        =    107.735185     0.000000    -0.000168   107.735017
	   21 B(3,5,10)       =    108.781591     0.000000     0.001854   108.783445
	   22 B(5,3,6)        =    109.427402     0.000000     0.004019   109.431420
	   23 B(5,3,7)        =    109.781555    -0.000000    -0.000696   109.780859
	   24 B(5,8,11)       =    111.197234    -0.000000    -0.000773   111.196462
	   25 B(5,8,12)       =    110.492654     0.000000     0.001002   110.493656
	   26 B(5,8,13)       =    112.057332     0.000000    -0.000384   112.056948
	   27 B(6,3,7)        =    108.673983    -0.000000    -0.001652   108.672331
	   28 B(8,5,9)        =    109.123212     0.000000    -0.000663   109.122549
	   29 B(8,5,10)       =    109.799686     0.000000     0.001863   109.801549
	   30 B(9,5,10)       =    106.488498    -0.000000    -0.001066   106.487432
	   31 B(11,8,12)      =    107.731227     0.000000     0.000449   107.731676
	   32 B(11,8,13)      =    107.836561    -0.000000    -0.000614   107.835947
	   33 B(12,8,13)      =    107.335453    -0.000000     0.000356   107.335809
	   34 D(1,2,3,5)      =     80.410490     0.000000     0.002827    80.413317
	   35 D(1,2,3,6)      =    -40.914808    -0.000000    -0.000840   -40.915649
	   36 D(1,2,3,7)      =   -158.518516    -0.000000     0.002018  -158.516499
	   37 D(2,3,5,8)      =    -64.488772     0.000000     0.020315   -64.468457
	   38 D(2,3,5,9)      =    173.870650     0.000000     0.022493   173.893143
	   39 D(2,3,5,10)     =     58.814638     0.000000     0.022884    58.837522
	   40 D(3,5,8,11)     =    -56.909110     0.000000     0.032278   -56.876831
	   41 D(3,5,8,12)     =   -176.490811     0.000000     0.031559  -176.459252
	   42 D(3,5,8,13)     =     63.862418     0.000000     0.030682    63.893100
	   43 D(4,2,3,5)      =    -98.674694     0.000000     0.003668   -98.671026
	   44 *D(4,2,3,6)     =    140.000008    -0.000000     0.000000   140.000008
	   45 D(4,2,3,7)      =     22.396300     0.000000     0.002858    22.399158
	   46 D(6,3,5,8)      =     56.444209    -0.000000     0.020601    56.464810
	   47 D(6,3,5,9)      =    -65.196369     0.000000     0.022779   -65.173590
	   48 D(6,3,5,10)     =    179.747619     0.000000     0.023169   179.770788
	   49 D(7,3,5,8)      =    175.630697    -0.000000     0.020607   175.651305
	   50 D(7,3,5,9)      =     53.990119     0.000000     0.022785    54.012905
	   51 D(7,3,5,10)     =    -61.065892     0.000000     0.023176   -61.042717
	   52 D(9,5,8,11)     =     63.969519     0.000000     0.030328    63.999848
	   53 D(9,5,8,12)     =    -55.612182     0.000000     0.029609   -55.582573
	   54 D(9,5,8,13)     =   -175.258953    -0.000000     0.028732  -175.230221
	   55 D(10,5,8,11)    =   -179.664402     0.000000     0.029718  -179.634684
	   56 D(10,5,8,12)    =     60.753897     0.000000     0.028998    60.782895
	   57 D(10,5,8,13)    =    -58.892874    -0.000000     0.028122   -58.864752
	 ---------------------------------------------------------------------------
	Successfully symmetrized geometry.

  ==> Convergence Check <==

  Measures of convergence in internal coordinates in au.
  Criteria marked as inactive (o), active & met (*), and active & unmet ( ).
  ---------------------------------------------------------------------------------------------
   Step     Total Energy     Delta E     MAX Force     RMS Force      MAX Disp      RMS Disp   
  ---------------------------------------------------------------------------------------------
    Convergence Criteria    1.00e-06 *    3.00e-04 *             o    1.20e-03 *             o
  ---------------------------------------------------------------------------------------------
      8    -231.06897828   -2.78e-08 *    8.97e-06 *    2.82e-06 o    5.63e-04 *    2.60e-04 o  ~
  ---------------------------------------------------------------------------------------------


  **** Optimization is complete! (in 8 steps) ****

  ==> Optimization Summary <==

  Measures of convergence in internal coordinates in au.
  --------------------------------------------------------------------------------------------------------------- ~
   Step         Total Energy             Delta E       MAX Force       RMS Force        MAX Disp        RMS Disp  ~
  --------------------------------------------------------------------------------------------------------------- ~
      1    -231.068536394995   -231.068536394995      0.00464528      0.00146355      0.06466182      0.02887522  ~
      2    -231.068948184273     -0.000411789279      0.00141346      0.00050684      0.01552856      0.00676390  ~
      3    -231.068967673318     -0.000019489045      0.00050448      0.00013798      0.05778000      0.01442446  ~
      4    -231.068881515691      0.000086157627      0.00167032      0.00057859      0.04524522      0.01079993  ~
      5    -231.068977093306     -0.000095577615      0.00013261      0.00004840      0.02343286      0.00917766  ~
      6    -231.068973960433      0.000003132873      0.00023775      0.00008220      0.01544788      0.00615354  ~
      7    -231.068978248383     -0.000004287950      0.00007282      0.00001776      0.00125108      0.00051538  ~
      8    -231.068978276232     -0.000000027849      0.00000897      0.00000282      0.00056336      0.00025953  ~
  --------------------------------------------------------------------------------------------------------------- ~

	Writing optimization data to binary file.
	Final energy is   -231.0689782762320
	Final (previous) structure:
	Cartesian Geometry (in Angstrom)
	    H     0.2779548317  -0.9454093524   1.4740016740
	    C     0.2741702596  -1.0769796468   0.3860336478
	    C    -0.7757312823  -0.3094870008  -0.3744546876
	    O     1.0779042572  -1.7793792595  -0.1241970527
	    C    -0.3798978843   1.1581610944  -0.6006371252
	    H    -1.7088113655  -0.3506955743   0.1805639164
	    H    -0.9175378472  -0.8014866179  -1.3274245056
	    C    -0.2537528694   1.9861008369   0.6759436506
	    H    -1.1292438133   1.6071167241  -1.2424832899
	    H     0.5542181296   1.1870595671  -1.1510872444
	    H    -1.1754526795   1.9679123141   1.2479980310
	    H    -0.0338412980   3.0195572148   0.4374791965
	    H     0.5423634063   1.6262185309   1.3175189835
	Saving final (previous) structure.
			--------------------------
			 OPTKING Finished Execution 
			--------------------------

    Final optimized geometry and variables:
    Molecular point group: c1
    Full point group: C1

    Geometry (in Angstrom), charge = 0, multiplicity = 1:

    H            0.277954831738    -0.945409352427     1.474001673951
    C            0.274170259577    -1.076979646774     0.386033647791
    C           -0.775731282286    -0.309487000829    -0.374454687619
    O            1.077904257173    -1.779379259464    -0.124197052696
    C           -0.379897884293     1.158161094443    -0.600637125172
    H           -1.708811365539    -0.350695574272     0.180563916437
    H           -0.917537847212    -0.801486617906    -1.327424505638
    C           -0.253752869403     1.986100836945     0.675943650618
    H           -1.129243813292     1.607116724109    -1.242483289873
    H            0.554218129606     1.187059567060    -1.151087244355
    H           -1.175452679492     1.967912314118     1.247998030974
    H           -0.033841297950     3.019557214807     0.437479196529
    H            0.542363406318     1.626218530874     1.317518983493

	Cleaning optimization helper files.


Properties will be evaluated at   0.000000,   0.000000,   0.000000 Bohr

Properties computed using the  density matrix

  Nuclear Dipole Moment: (a.u.)
     X:    -3.3607      Y:     6.8446      Z:     0.8774

  Electronic Dipole Moment: (a.u.)
     X:     2.5327      Y:    -5.9906      Z:    -0.5800

  Dipole Moment: (a.u.)
     X:    -0.8279      Y:     0.8541      Z:     0.2974     Total:     1.2261

  Dipole Moment: (Debye)
     X:    -2.1044      Y:     2.1708      Z:     0.7560     Total:     3.1165

  Quadrupole Moment: (Debye Ang)
    XX:   -33.6815     YY:   -36.0865     ZZ:   -30.9378
    XY:     3.9770     XZ:     0.6759     YZ:    -1.5872

  Traceless Quadrupole Moment: (Debye Ang)
    XX:    -0.1129     YY:    -2.5179     ZZ:     2.6308
    XY:     3.9770     XZ:     0.6759     YZ:    -1.5872

  Mulliken Charges: (a.u.)
   Center  Symbol    Alpha    Beta     Spin     Total
       1     H     0.46097  0.46097  0.00000  0.07807
       2     C     2.90705  2.90705  0.00000  0.18591
       3     C     3.08879  3.08879  0.00000 -0.17759
       4     O     4.16652  4.16652  0.00000 -0.33305
       5     C     3.09490  3.09490  0.00000 -0.18979
       6     H     0.45127  0.45127  0.00000  0.09745
       7     H     0.43816  0.43816  0.00000  0.12369
       8     C     3.15186  3.15186  0.00000 -0.30371
       9     H     0.44616  0.44616  0.00000  0.10768
      10     H     0.44465  0.44465  0.00000  0.11069
      11     H     0.45377  0.45377  0.00000  0.09246
      12     H     0.44365  0.44365  0.00000  0.11270
      13     H     0.45225  0.45225  0.00000  0.09549

   Total alpha = 20.00000, Total beta = 20.00000, Total charge = -0.00000


*** Psi4 exiting successfully. Buy a developer a beer!
