    -----------------------------------------------------------------------
          Psi4: An Open-Source Ab Initio Electronic Structure Package
                              Psi4 (no tag) Driver

                          Git: Rev {detached?}  

    J. M. Turney, A. C. Simmonett, R. M. Parrish, E. G. Hohenstein,
    F. A. Evangelista, J. T. Fermann, B. J. Mintz, L. A. Burns, J. J. Wilke,
    M. L. Abrams, N. J. Russ, M. L. Leininger, C. L. Janssen, E. T. Seidl,
    W. D. Allen, H. F. Schaefer, R. A. King, E. F. Valeev, C. D. Sherrill,
    and T. D. Crawford, WIREs Comput. Mol. Sci. 2, 556-565 (2012)
    (doi: 10.1002/wcms.93)

                         Additional Contributions by
    A. E. DePrince, M. Saitow, U. Bozkaya, A. Yu. Sokolov
    -----------------------------------------------------------------------


    Psi4 started on: Fri Sep  2 11:40:38 2016

    Process ID:  30264
    PSI4DATADIR: /export131/home/mjharvey/miniconda3/share
    Memory level set to 256.000 MB

  ==> Input File <==

--------------------------------------------------------------------------
set {
	reference rhf
	basis 6-31G*
}


set_num_threads( 4 )
memory 2 gb

molecule MOL {
0 1

O	 -0.682937	 1.318834	 -0.186099
C	 -0.860635	 0.152188	 -0.042321
C	 -2.173363	 -0.477127	 0.338347
O	 0.083258	 -0.765189	 -0.202595
H	 -2.477673	 -1.180929	 -0.427595
H	 -2.923125	 0.290956	 0.455536
H	 -2.058825	 -1.029004	 1.264191
C	 1.391937	 -0.334737	 -0.569838
C	 2.013260	 0.536960	 0.505684
H	 1.342674	 0.183835	 -1.515246
H	 1.952083	 -1.249751	 -0.698229
H	 3.034230	 0.785436	 0.232535
H	 1.458592	 1.459448	 0.622852
H	 2.032330	 0.014718	 1.456113

	symmetry c1
}
set optking {
	frozen_dihedral = ("
		10 8 4 2
	")
}

ee = optimize('scf')
oeprop('DIPOLE', 'QUADRUPOLE', 'MULLIKEN_CHARGES')
f=open( 'psi4out.xyz', 'w' )
f.write( "14  " )
f.write( str(ee) + "\n" )
f.write( MOL.save_string_xyz() )
f.close()
--------------------------------------------------------------------------

  Memory set to   2.000 GiB by Python script.
gradient() will perform analytic gradient computation.

*** tstart() called on cx1-5-7-2.cx1.hpc.ic.ac.uk
*** at Fri Sep  2 11:40:38 2016


         ---------------------------------------------------------
                                   SCF
            by Justin Turney, Rob Parrish, and Andy Simmonett
                              RHF Reference
                        4 Threads,   2000 MiB Core
         ---------------------------------------------------------

  ==> Geometry <==

    Molecular point group: c1
    Full point group: C1

    Geometry (in Angstrom), charge = 0, multiplicity = 1:

       Center              X                  Y                   Z               Mass       
    ------------   -----------------  -----------------  -----------------  -----------------
           O         -0.651607130895     1.243288712751    -0.163003347425    15.994914619560
           C         -0.829305130895     0.076642712751    -0.019225347425    12.000000000000
           C         -2.142033130895    -0.552672287249     0.361442652575    12.000000000000
           O          0.114587869105    -0.840734287249    -0.179499347425    15.994914619560
           H         -2.446343130895    -1.256474287249    -0.404499347425     1.007825032070
           H         -2.891795130895     0.215410712751     0.478631652575     1.007825032070
           H         -2.027495130895    -1.104549287249     1.287286652575     1.007825032070
           C          1.423266869105    -0.410282287249    -0.546742347425    12.000000000000
           C          2.044589869105     0.461414712751     0.528779652575    12.000000000000
           H          1.374003869105     0.108289712751    -1.492150347425     1.007825032070
           H          1.983412869105    -1.325296287249    -0.675133347425     1.007825032070
           H          3.065559869105     0.709890712751     0.255630652575     1.007825032070
           H          1.489921869105     1.383902712751     0.645947652575     1.007825032070
           H          2.063659869105    -0.060827287249     1.479208652575     1.007825032070

  Running in c1 symmetry.

  Rotational constants: A =      0.24981  B =      0.08326  C =      0.07105 [cm^-1]
  Rotational constants: A =   7489.05300  B =   2496.11775  C =   2130.06604 [MHz]
  Nuclear repulsion =  250.843882945666763

  Charge       = 0
  Multiplicity = 1
  Electrons    = 48
  Nalpha       = 24
  Nbeta        = 24

  ==> Algorithm <==

  SCF Algorithm Type is DF.
  DIIS enabled.
  MOM disabled.
  Fractional occupation disabled.
  Guess Type is CORE.
  Energy threshold   = 1.00e-08
  Density threshold  = 1.00e-08
  Integral threshold = 0.00e+00

  ==> Primary Basis <==

  Basis Set: 6-31G*
    Number of shells: 52
    Number of basis function: 106
    Number of Cartesian functions: 106
    Spherical Harmonics?: false
    Max angular momentum: 2

  ==> Pre-Iterations <==

   -------------------------------------------------------
    Irrep   Nso     Nmo     Nalpha   Nbeta   Ndocc  Nsocc
   -------------------------------------------------------
     A        106     106       0       0       0       0
   -------------------------------------------------------
    Total     106     106      24      24      24       0
   -------------------------------------------------------

 OEINTS: Overlap, kinetic, potential, dipole, and quadrupole integrals
         stored in file 35.

  ==> Integral Setup <==

  ==> DFJK: Density-Fitted J/K Matrices <==

    J tasked:                  Yes
    K tasked:                  Yes
    wK tasked:                  No
    OpenMP threads:              4
    Integrals threads:           4
    Memory (MB):              1430
    Algorithm:                Core
    Integral Cache:           NONE
    Schwarz Cutoff:          1E-12
    Fitting Condition:       1E-12

   => Auxiliary Basis Set <=

  Basis Set: 
    Number of shells: 216
    Number of basis function: 686
    Number of Cartesian functions: 686
    Spherical Harmonics?: false
    Max angular momentum: 3

  Minimum eigenvalue in the overlap matrix is 3.8024950518E-03.
  Using Symmetric Orthogonalization.
  SCF Guess: Core (One-Electron) Hamiltonian.

  ==> Iterations <==

                           Total Energy        Delta E     RMS |[F,P]|

   @DF-RHF iter   1:  -236.19644301795162   -2.36196e+02   8.46055e-02 
   @DF-RHF iter   2:  -220.04777605089535    1.61487e+01   6.34329e-02 DIIS
   @DF-RHF iter   3:  -273.58928155792989   -5.35415e+01   5.82637e-02 DIIS
   @DF-RHF iter   4:  -298.20418818927010   -2.46149e+01   2.64123e-02 DIIS
   @DF-RHF iter   5:  -304.81638716351586   -6.61220e+00   1.20596e-02 DIIS
   @DF-RHF iter   6:  -305.80039447910099   -9.84007e-01   3.50425e-03 DIIS
   @DF-RHF iter   7:  -305.86228019527812   -6.18857e-02   1.35090e-03 DIIS
   @DF-RHF iter   8:  -305.87037703606086   -8.09684e-03   6.13571e-04 DIIS
   @DF-RHF iter   9:  -305.87216615377008   -1.78912e-03   2.91965e-04 DIIS
   @DF-RHF iter  10:  -305.87270297290945   -5.36819e-04   8.52484e-05 DIIS
   @DF-RHF iter  11:  -305.87275840838538   -5.54355e-05   1.63949e-05 DIIS
   @DF-RHF iter  12:  -305.87276085116457   -2.44278e-06   5.48717e-06 DIIS
   @DF-RHF iter  13:  -305.87276120719116   -3.56027e-07   1.58717e-06 DIIS
   @DF-RHF iter  14:  -305.87276124358857   -3.63974e-08   6.11144e-07 DIIS
   @DF-RHF iter  15:  -305.87276124986192   -6.27335e-09   2.51397e-07 DIIS
   @DF-RHF iter  16:  -305.87276125108997   -1.22805e-09   1.08300e-07 DIIS
   @DF-RHF iter  17:  -305.87276125135008   -2.60115e-10   3.22736e-08 DIIS
   @DF-RHF iter  18:  -305.87276125137464   -2.45564e-11   1.20207e-08 DIIS
   @DF-RHF iter  19:  -305.87276125137714   -2.50111e-12   4.47522e-09 DIIS

  ==> Post-Iterations <==

    Orbital Energies (a.u.)
    -----------------------

    Doubly Occupied:                                                      

       1A    -20.602062     2A    -20.544858     3A    -11.376446  
       4A    -11.286377     5A    -11.233535     6A    -11.211809  
       7A     -1.468453     8A     -1.363688     9A     -1.054291  
      10A     -0.996738    11A     -0.884337    12A     -0.760463  
      13A     -0.700516    14A     -0.682747    15A     -0.658939  
      16A     -0.609969    17A     -0.587767    18A     -0.569482  
      19A     -0.554344    20A     -0.532646    21A     -0.510121  
      22A     -0.496359    23A     -0.451297    24A     -0.434925  

    Virtual:                                                              

      25A      0.195540    26A      0.249061    27A      0.263815  
      28A      0.293310    29A      0.300707    30A      0.308763  
      31A      0.319678    32A      0.336386    33A      0.347778  
      34A      0.367132    35A      0.408473    36A      0.421963  
      37A      0.506953    38A      0.556376    39A      0.714154  
      40A      0.721485    41A      0.742452    42A      0.755737  
      43A      0.776240    44A      0.793205    45A      0.815540  
      46A      0.862326    47A      0.914033    48A      0.950077  
      49A      0.965311    50A      1.005666    51A      1.071599  
      52A      1.099665    53A      1.131295    54A      1.134825  
      55A      1.166674    56A      1.178818    57A      1.192736  
      58A      1.206395    59A      1.223636    60A      1.256063  
      61A      1.267281    62A      1.304406    63A      1.352989  
      64A      1.396221    65A      1.426289    66A      1.488469  
      67A      1.623668    68A      1.654168    69A      1.721459  
      70A      1.729588    71A      1.779208    72A      1.839282  
      73A      1.953420    74A      1.978754    75A      2.042743  
      76A      2.102731    77A      2.104160    78A      2.150425  
      79A      2.209460    80A      2.235148    81A      2.262371  
      82A      2.324525    83A      2.377994    84A      2.392772  
      85A      2.474121    86A      2.525210    87A      2.567042  
      88A      2.592338    89A      2.676095    90A      2.696315  
      91A      2.736537    92A      2.754636    93A      2.823118  
      94A      2.904573    95A      2.997453    96A      3.095279  
      97A      3.151622    98A      3.352122    99A      3.409304  
     100A      3.552495   101A      4.424482   102A      4.521937  
     103A      4.623839   104A      4.648162   105A      4.826788  
     106A      4.912838  

    Final Occupation by Irrep:
              A 
    DOCC [    24 ]

  Energy converged.

  @DF-RHF Final Energy:  -305.87276125137714

   => Energetics <=

    Nuclear Repulsion Energy =            250.8438829456667634
    One-Electron Energy =                -914.2889507745890114
    Two-Electron Energy =                 357.5723065775450777
    DFT Exchange-Correlation Energy =       0.0000000000000000
    Empirical Dispersion Energy =           0.0000000000000000
    PCM Polarization Energy =               0.0000000000000000
    EFP Energy =                            0.0000000000000000
    Total Energy =                       -305.8727612513771419

    Alert: EFP and PCM quantities not currently incorporated into SCF psivars.

Properties will be evaluated at   0.000000,   0.000000,   0.000000 Bohr
  ==> Properties <==


Properties computed using the SCF density matrix

  Nuclear Dipole Moment: (a.u.)
     X:     2.4451      Y:    -1.2446      Z:     1.4748

  Electronic Dipole Moment: (a.u.)
     X:    -2.3085      Y:     0.5242      Z:    -1.4217

  Dipole Moment: (a.u.)
     X:     0.1366      Y:    -0.7204      Z:     0.0530     Total:     0.7351

  Dipole Moment: (Debye)
     X:     0.3472      Y:    -1.8310      Z:     0.1348     Total:     1.8685


  Saving occupied orbitals to File 180.

*** tstop() called on cx1-5-7-2.cx1.hpc.ic.ac.uk at Fri Sep  2 11:40:42 2016
Module time:
	user time   =       9.33 seconds =       0.16 minutes
	system time =       0.12 seconds =       0.00 minutes
	total time  =          4 seconds =       0.07 minutes
Total time:
	user time   =       9.33 seconds =       0.16 minutes
	system time =       0.12 seconds =       0.00 minutes
	total time  =          4 seconds =       0.07 minutes

*** tstart() called on cx1-5-7-2.cx1.hpc.ic.ac.uk
*** at Fri Sep  2 11:40:42 2016


         ------------------------------------------------------------
                                   SCF GRAD                          
                          Rob Parrish, Justin Turney,                
                       Andy Simmonett, and Alex Sokolov              
         ------------------------------------------------------------

  ==> Geometry <==

    Molecular point group: c1
    Full point group: C1

    Geometry (in Angstrom), charge = 0, multiplicity = 1:

       Center              X                  Y                   Z               Mass       
    ------------   -----------------  -----------------  -----------------  -----------------
           O         -0.651607130895     1.243288712751    -0.163003347425    15.994914619560
           C         -0.829305130895     0.076642712751    -0.019225347425    12.000000000000
           C         -2.142033130895    -0.552672287249     0.361442652575    12.000000000000
           O          0.114587869105    -0.840734287249    -0.179499347425    15.994914619560
           H         -2.446343130895    -1.256474287249    -0.404499347425     1.007825032070
           H         -2.891795130895     0.215410712751     0.478631652575     1.007825032070
           H         -2.027495130895    -1.104549287249     1.287286652575     1.007825032070
           C          1.423266869105    -0.410282287249    -0.546742347425    12.000000000000
           C          2.044589869105     0.461414712751     0.528779652575    12.000000000000
           H          1.374003869105     0.108289712751    -1.492150347425     1.007825032070
           H          1.983412869105    -1.325296287249    -0.675133347425     1.007825032070
           H          3.065559869105     0.709890712751     0.255630652575     1.007825032070
           H          1.489921869105     1.383902712751     0.645947652575     1.007825032070
           H          2.063659869105    -0.060827287249     1.479208652575     1.007825032070

  Nuclear repulsion =  250.843882945666763

  ==> Basis Set <==

  Basis Set: 6-31G*
    Number of shells: 52
    Number of basis function: 106
    Number of Cartesian functions: 106
    Spherical Harmonics?: false
    Max angular momentum: 2

  ==> DFJKGrad: Density-Fitted SCF Gradients <==

    Gradient:                    1
    J tasked:                  Yes
    K tasked:                  Yes
    wK tasked:                  No
    OpenMP threads:              4
    Integrals threads:           4
    Memory (MB):              1430
    Schwarz Cutoff:          0E+00
    Fitting Condition:       1E-12

   => Auxiliary Basis Set <=

  Basis Set: 
    Number of shells: 216
    Number of basis function: 686
    Number of Cartesian functions: 686
    Spherical Harmonics?: false
    Max angular momentum: 3


  -Total Gradient:
     Atom            X                  Y                   Z
    ------   -----------------  -----------------  -----------------
       1        0.004352201131    -0.000068817057     0.002813037073
       2        0.000416515205     0.001786863969     0.001337123227
       3       -0.000011485541    -0.000023938785    -0.000326646543
       4        0.001324626998     0.000714750445     0.000124761771
       5       -0.000036902828    -0.000037939085     0.000015734562
       6        0.000012693012    -0.000019107010     0.000003517309
       7        0.000042790131     0.000038645172    -0.000009612989
       8        0.000587937447    -0.002498953949    -0.005163929163
       9       -0.003952125403    -0.003715569249    -0.000653272054
      10        0.000772313024    -0.001028556483     0.001344710241
      11        0.001073374864     0.000008720513     0.000866825902
      12       -0.000789540425     0.001119850137    -0.000117585612
      13       -0.003395164019     0.002850942875    -0.000115144651
      14       -0.000397233594     0.000873108505    -0.000119519073


*** tstop() called on cx1-5-7-2.cx1.hpc.ic.ac.uk at Fri Sep  2 11:40:45 2016
Module time:
	user time   =      12.08 seconds =       0.20 minutes
	system time =       0.18 seconds =       0.00 minutes
	total time  =          3 seconds =       0.05 minutes
Total time:
	user time   =      21.43 seconds =       0.36 minutes
	system time =       0.30 seconds =       0.01 minutes
	total time  =          7 seconds =       0.12 minutes
CURRENT ENERGY: -305.8727612514

			-----------------------------------------
			 OPTKING 2.0: for geometry optimizations 
			  - R.A. King,  Bethel University        
			-----------------------------------------

	Internal coordinates to be generated automatically.
	Detected frag with atoms:  1 2 3 4 5 6 7 8 9 10 11 12 13 14
	---Fragment 1 Bond Connectivity---
	 1 : 2
	 2 : 1 3 4
	 3 : 2 5 6 7
	 4 : 2 8
	 5 : 3
	 6 : 3
	 7 : 3
	 8 : 4 9 10 11
	 9 : 8 12 13 14
	 10 : 8
	 11 : 8
	 12 : 9
	 13 : 9
	 14 : 9

	Assuming in current code that numbering for constraints corresponds to unified fragment.
	Frozen dihedral atom list: 
	    10     8     4     2
	---Fragment 1 Geometry and Gradient---
	 O          -1.2313590236        2.3494751712       -0.3080316854
	 C          -1.5671595780        0.1448337372       -0.0363306414
	 C          -4.0478559850       -1.0443992641        0.6830276261
	 O           0.2165396908       -1.5887575534       -0.3392046077
	 H          -4.6229185445       -2.3743922959       -0.7643929876
	 H          -5.4647008298        0.4070672532        0.9044827419
	 H          -3.8314105332       -2.0872956532        2.4326192279
	 C           2.6895845966       -0.7753211601       -1.0331933019
	 C           3.8637149067        0.8719474408        0.9992487280
	 H           2.5964910181        0.2046379001       -2.8197555057
	 H           3.7481071310       -2.5044470278       -1.2758171298
	 H           5.7930685966        1.3414990314        0.4830719245
	 H           2.8155442920        2.6151971217        1.2206641595
	 H           3.8997519840       -0.1149469143        2.7952992468
	             0.0043522011       -0.0000688171        0.0028130371
	             0.0004165152        0.0017868640        0.0013371232
	            -0.0000114855       -0.0000239388       -0.0003266465
	             0.0013246270        0.0007147504        0.0001247618
	            -0.0000369028       -0.0000379391        0.0000157346
	             0.0000126930       -0.0000191070        0.0000035173
	             0.0000427901        0.0000386452       -0.0000096130
	             0.0005879374       -0.0024989539       -0.0051639292
	            -0.0039521254       -0.0037155692       -0.0006532721
	             0.0007723130       -0.0010285565        0.0013447102
	             0.0010733749        0.0000087205        0.0008668259
	            -0.0007895404        0.0011198501       -0.0001175856
	            -0.0033951640        0.0028509429       -0.0001151447
	            -0.0003972336        0.0008731085       -0.0001195191

	Previous optimization step data not found.  Starting new optimization.

	---Fragment 1 Intrafragment Coordinates---
	 - Coordinate -           - BOHR/RAD -       - ANG/DEG -
	 R(1,2)           =         2.246559	       1.188828
	 R(2,3)           =         2.843520	       1.504726
	 R(2,4)           =         2.505724	       1.325972
	 R(3,5)           =         2.048073	       1.083794
	 R(3,6)           =         2.040404	       1.079735
	 R(3,7)           =         2.048305	       1.083916
	 R(4,8)           =         2.694300	       1.425762
	 R(8,9)           =         2.867559	       1.517447
	 R(8,10)          =         2.039802	       1.079417
	 R(8,11)          =         2.041865	       1.080508
	 R(9,12)          =         2.051663	       1.085694
	 R(9,13)          =         2.046120	       1.082760
	 R(9,14)          =         2.049648	       1.084627
	 B(1,2,3)         =         2.179030	     124.849236
	 B(1,2,4)         =         2.162677	     123.912238
	 B(2,3,5)         =         1.915330	     109.740330
	 B(2,3,6)         =         1.913186	     109.617503
	 B(2,3,7)         =         1.914356	     109.684520
	 B(2,4,8)         =         2.066499	     118.401663
	 B(3,2,4)         =         1.941475	     111.238337
	 B(4,8,9)         =         1.946254	     111.512128
	 B(4,8,10)        =         1.905777	     109.193005
	 B(4,8,11)        =         1.824278	     104.523436
	 B(5,3,6)         =         1.921630	     110.101261
	 B(5,3,7)         =         1.878313	     107.619406
	 B(6,3,7)         =         1.920757	     110.051284
	 B(8,9,12)        =         1.915794	     109.766936
	 B(8,9,13)        =         1.935171	     110.877130
	 B(8,9,14)        =         1.930163	     110.590169
	 B(9,8,10)        =         1.942805	     111.314554
	 B(9,8,11)        =         1.937371	     111.003201
	 B(10,8,11)       =         1.903313	     109.051810
	 B(12,9,13)       =         1.890169	     108.298726
	 B(12,9,14)       =         1.890330	     108.307921
	 B(13,9,14)       =         1.901180	     108.929606
	 D(1,2,3,5)       =         2.116288	     121.254396
	 D(1,2,3,6)       =         0.003852	       0.220714
	 D(1,2,3,7)       =        -2.106892	    -120.716010
	 D(1,2,4,8)       =        -0.000487	      -0.027905
	 D(2,4,8,9)       =         1.107046	      63.429075
	*D(2,4,8,10)      =        -1.047198	     -60.000016
	 D(2,4,8,11)      =        -3.081650	    -176.565514
	 D(3,2,4,8)       =         3.138465	     179.820819
	 D(4,2,3,5)       =        -1.022634	     -58.592625
	 D(4,2,3,6)       =        -3.135070	    -179.626307
	 D(4,2,3,7)       =         1.037371	      59.436969
	 D(4,8,9,12)      =         3.066381	     175.690662
	 D(4,8,9,13)      =        -1.129164	     -64.696346
	 D(4,8,9,14)      =         0.981683	      56.246320
	 D(10,8,9,12)     =        -1.083745	     -62.094036
	 D(10,8,9,13)     =         1.003895	      57.518956
	 D(10,8,9,14)     =         3.114743	     178.461622
	 D(11,8,9,12)     =         1.039914	      59.582709
	 D(11,8,9,13)     =         3.127555	     179.195701
	 D(11,8,9,14)     =        -1.044783	     -59.861633
	 R(1,9)           =         5.463685	       2.891258

	Current energy   :      -305.8727612514

	Generating empirical Hessian (Schlegel '84) for each fragment.
	Taking RFO optimization step.
	Going to follow RFO solution 1.
	Using RFO vector 1.
	Norm of target step-size    0.33518
	Projected energy change by RFO approximation:        -0.0029177534

	Back-transformation to cartesian coordinates...
	Successfully converged to displaced geometry.

	Back-transformation to cartesian coordinates to adjust frozen coordinates...
	Successfully converged to displaced geometry.

	--- Internal Coordinate Step in ANG or DEG, aJ/ANG or AJ/DEG ---
	 ---------------------------------------------------------------------------
	   Coordinate                Previous        Force       Change         New 
	   ----------                --------       ------       ------       ------
	    1 R(1,2)          =      1.188828    -0.010040    -0.000549     1.188279
	    2 R(2,3)          =      1.504726     0.000566     0.000113     1.504839
	    3 R(2,4)          =      1.325972    -0.028017    -0.002644     1.323329
	    4 R(3,5)          =      1.083794    -0.000197    -0.000035     1.083759
	    5 R(3,6)          =      1.079735     0.000181     0.000032     1.079767
	    6 R(3,7)          =      1.083916     0.000193     0.000035     1.083951
	    7 R(4,8)          =      1.425762     0.006695     0.001428     1.427190
	    8 R(8,9)          =      1.517447     0.008766     0.002124     1.519571
	    9 R(8,10)         =      1.079417     0.014065     0.002484     1.081901
	   10 R(8,11)         =      1.080508    -0.003675    -0.000651     1.079857
	   11 R(9,12)         =      1.085694     0.003762     0.000678     1.086372
	   12 R(9,13)         =      1.082760    -0.034238    -0.006114     1.076646
	   13 R(9,14)         =      1.084627     0.004384     0.000788     1.085415
	   14 B(1,2,3)        =    124.849236     0.000112     0.249695   125.098931
	   15 B(1,2,4)        =    123.912238    -0.000236    -0.584386   123.327852
	   16 B(2,3,5)        =    109.740330    -0.000007    -0.035929   109.704400
	   17 B(2,3,6)        =    109.617503    -0.000001    -0.003875   109.613628
	   18 B(2,3,7)        =    109.684520     0.000007     0.039444   109.723964
	   19 B(2,4,8)        =    118.401663    -0.000137    -0.113466   118.288197
	   20 B(3,2,4)        =    111.238337     0.000124     0.286539   111.524876
	   21 B(4,8,9)        =    111.512128     0.000584     2.529469   114.041597
	   22 B(4,8,10)       =    109.193005    -0.000224    -0.218405   108.974600
	   23 B(4,8,11)       =    104.523436    -0.000258    -1.827523   102.695913
	   24 B(5,3,6)        =    110.101261     0.000001    -0.004812   110.096450
	   25 B(5,3,7)        =    107.619406    -0.000000     0.000325   107.619731
	   26 B(6,3,7)        =    110.051284    -0.000001     0.004992   110.056276
	   27 B(8,9,12)       =    109.766936    -0.000080    -0.541242   109.225694
	   28 B(8,9,13)       =    110.877130     0.000199     1.188749   112.065879
	   29 B(8,9,14)       =    110.590169    -0.000081    -0.477418   110.112751
	   30 B(9,8,10)       =    111.314554    -0.000019     1.426325   112.740879
	   31 B(9,8,11)       =    111.003201    -0.000119    -0.831829   110.171372
	   32 B(10,8,11)      =    109.051810     0.000013    -1.473930   107.577880
	   33 B(12,9,13)      =    108.298726    -0.000027     0.075903   108.374629
	   34 B(12,9,14)      =    108.307921    -0.000001    -0.548414   107.759507
	   35 B(13,9,14)      =    108.929606    -0.000013     0.261391   109.190997
	   36 D(1,2,3,5)      =    121.254396    -0.000003    -1.239572   120.014824
	   37 D(1,2,3,6)      =      0.220714    -0.000002    -1.208488    -0.987774
	   38 D(1,2,3,7)      =   -120.716010    -0.000003    -1.237071  -121.953080
	   39 D(1,2,4,8)      =     -0.027905     0.000025     5.808250     5.780344
	   40 D(2,4,8,9)      =     63.429075     0.000049     3.511649    66.940724
	   41 *D(2,4,8,10)    =    -60.000016    -0.000000     0.000000   -60.000016
	   42 D(2,4,8,11)     =   -176.565514     0.000051     2.685736  -173.879778
	   43 D(3,2,4,8)      =    179.820819     0.000020     3.544990   183.365809
	   44 D(4,2,3,5)      =    -58.592625     0.000002     1.073308   -57.519317
	   45 D(4,2,3,6)      =   -179.626307     0.000003     1.104392  -178.521915
	   46 D(4,2,3,7)      =     59.436969     0.000002     1.075809    60.512778
	   47 D(4,8,9,12)     =    175.690662    -0.000026    -4.570843   171.119819
	   48 D(4,8,9,13)     =    -64.696346    -0.000017    -4.077867   -68.774213
	   49 D(4,8,9,14)     =     56.246320    -0.000003    -3.272905    52.973415
	   50 D(10,8,9,12)    =    -62.094036    -0.000001    -1.824601   -63.918638
	   51 D(10,8,9,13)    =     57.518956     0.000008    -1.331625    56.187330
	   52 D(10,8,9,14)    =    178.461622     0.000023    -0.526664   177.934958
	   53 D(11,8,9,12)    =     59.582709    -0.000019    -3.313740    56.268970
	   54 D(11,8,9,13)    =    179.195701    -0.000010    -2.820764   176.374937
	   55 D(11,8,9,14)    =    -59.861633     0.000004    -2.015802   -61.877435
	   56 R(1,9)          =      2.891258     0.051895     0.130630     3.021887
	 ---------------------------------------------------------------------------

  ==> Convergence Check <==

  Measures of convergence in internal coordinates in au.
  Criteria marked as inactive (o), active & met (*), and active & unmet ( ).
  --------------------------------------------------------------------------------------------- ~
   Step     Total Energy     Delta E     MAX Force     RMS Force      MAX Disp      RMS Disp    ~
  --------------------------------------------------------------------------------------------- ~
    Convergence Criteria    1.00e-06 *    3.00e-04 *             o    1.20e-03 *             o  ~
  --------------------------------------------------------------------------------------------- ~
      1    -305.87276125   -3.06e+02      7.68e-03      1.94e-03 o    2.47e-01      4.48e-02 o  ~
  ---------------------------------------------------------------------------------------------

	Writing optimization data to binary file.
	Structure for next step:
	Cartesian Geometry (in Angstrom)
	    O    -0.7179870914   1.2308680189  -0.2918247508
	    C    -0.8619729365   0.0745267532  -0.0591250656
	    C    -2.1529006522  -0.5669870968   0.3727383973
	    O     0.1012045661  -0.8214836125  -0.2028376134
	    H    -2.4456733518  -1.3207510194  -0.3488271491
	    H    -2.9221308799   0.1862568993   0.4552345153
	    H    -2.0139638872  -1.0624624171   1.3267562532
	    C     1.4093456078  -0.3602952572  -0.5389075194
	    C     2.0777061805   0.4564199802   0.5544209986
	    H     1.3655554136   0.1633925084  -1.4846043453
	    H     1.9511475193  -1.2803315959  -0.7003854791
	    H     3.1156399217   0.6319984501   0.2859627925
	    H     1.5982374437   1.4097233497   0.6975578708
	    H     2.0662165102  -0.0928710855   1.4905153498
			--------------------------
			 OPTKING Finished Execution 
			--------------------------

    Structure for next step:
    Molecular point group: c1
    Full point group: C1

    Geometry (in Angstrom), charge = 0, multiplicity = 1:

    O           -0.701372259961     1.226139892778    -0.266534407275
    C           -0.845358094040     0.069798715337    -0.033834739887
    C           -2.136285711108    -0.571715085652     0.398028690045
    O            0.117819334979    -0.826211581882    -0.177547276701
    H           -2.429058388420    -1.325478950670    -0.323536801235
    H           -2.905515880131     0.181528852955     0.480524801755
    H           -1.997348956770    -1.067190368086     1.352046473129
    C            1.425960276813    -0.365023261856    -0.513617157050
    C            2.094320798452     0.451691913166     0.579711277432
    H            1.382170085943     0.158664463772    -1.459313910751
    H            1.967762146956    -1.285059530265    -0.675095104420
    H            3.132254460471     0.627270369665     0.311253091880
    H            1.614852098331     1.404995209915     0.722848138773
    H            2.082831129087    -0.097599110546     1.515805557139

gradient() will perform analytic gradient computation.

*** tstart() called on cx1-5-7-2.cx1.hpc.ic.ac.uk
*** at Fri Sep  2 11:40:46 2016


         ---------------------------------------------------------
                                   SCF
            by Justin Turney, Rob Parrish, and Andy Simmonett
                              RHF Reference
                        4 Threads,   2000 MiB Core
         ---------------------------------------------------------

  ==> Geometry <==

    Molecular point group: c1
    Full point group: C1

    Geometry (in Angstrom), charge = 0, multiplicity = 1:

       Center              X                  Y                   Z               Mass       
    ------------   -----------------  -----------------  -----------------  -----------------
           O         -0.701372259961     1.226139892778    -0.266534407275    15.994914619560
           C         -0.845358094040     0.069798715337    -0.033834739887    12.000000000000
           C         -2.136285711108    -0.571715085652     0.398028690045    12.000000000000
           O          0.117819334979    -0.826211581882    -0.177547276701    15.994914619560
           H         -2.429058388420    -1.325478950670    -0.323536801235     1.007825032070
           H         -2.905515880131     0.181528852955     0.480524801755     1.007825032070
           H         -1.997348956770    -1.067190368086     1.352046473129     1.007825032070
           C          1.425960276813    -0.365023261856    -0.513617157050    12.000000000000
           C          2.094320798452     0.451691913166     0.579711277432    12.000000000000
           H          1.382170085943     0.158664463772    -1.459313910751     1.007825032070
           H          1.967762146956    -1.285059530265    -0.675095104420     1.007825032070
           H          3.132254460471     0.627270369665     0.311253091880     1.007825032070
           H          1.614852098331     1.404995209915     0.722848138773     1.007825032070
           H          2.082831129087    -0.097599110546     1.515805557139     1.007825032070

  Running in c1 symmetry.

  Rotational constants: A =      0.24899  B =      0.08071  C =      0.07031 [cm^-1]
  Rotational constants: A =   7464.40049  B =   2419.47625  C =   2107.96142 [MHz]
  Nuclear repulsion =  249.786325450398181

  Charge       = 0
  Multiplicity = 1
  Electrons    = 48
  Nalpha       = 24
  Nbeta        = 24

  ==> Algorithm <==

  SCF Algorithm Type is DF.
  DIIS enabled.
  MOM disabled.
  Fractional occupation disabled.
  Guess Type is READ.
  Energy threshold   = 1.00e-08
  Density threshold  = 1.00e-08
  Integral threshold = 0.00e+00

  ==> Primary Basis <==

  Basis Set: 6-31G*
    Number of shells: 52
    Number of basis function: 106
    Number of Cartesian functions: 106
    Spherical Harmonics?: false
    Max angular momentum: 2

  ==> Pre-Iterations <==

   -------------------------------------------------------
    Irrep   Nso     Nmo     Nalpha   Nbeta   Ndocc  Nsocc
   -------------------------------------------------------
     A        106     106       0       0       0       0
   -------------------------------------------------------
    Total     106     106      24      24      24       0
   -------------------------------------------------------

 OEINTS: Overlap, kinetic, potential, dipole, and quadrupole integrals
         stored in file 35.

  ==> Integral Setup <==

  ==> DFJK: Density-Fitted J/K Matrices <==

    J tasked:                  Yes
    K tasked:                  Yes
    wK tasked:                  No
    OpenMP threads:              4
    Integrals threads:           4
    Memory (MB):              1430
    Algorithm:                Core
    Integral Cache:           NONE
    Schwarz Cutoff:          1E-12
    Fitting Condition:       1E-12

   => Auxiliary Basis Set <=

  Basis Set: 
    Number of shells: 216
    Number of basis function: 686
    Number of Cartesian functions: 686
    Spherical Harmonics?: false
    Max angular momentum: 3

  Minimum eigenvalue in the overlap matrix is 3.7931767850E-03.
  Using Symmetric Orthogonalization.
  SCF Guess: Reading in previously saved MOs, projecting if necessary.

  Using orbitals from previous SCF, no projection.
  Recomputing DOCC and SOCC from number of alpha and beta electrons from previous calculation.
              A 
    DOCC [    24 ]

  ==> Iterations <==

                           Total Energy        Delta E     RMS |[F,P]|

   @DF-RHF iter   0:  -305.86057876141638   -3.05861e+02   1.87508e-03 
   @DF-RHF iter   1:  -305.87303226257734   -1.24535e-02   2.73583e-04 
   @DF-RHF iter   2:  -305.87380579550870   -7.73533e-04   1.00335e-04 DIIS
   @DF-RHF iter   3:  -305.87392305495678   -1.17259e-04   4.81807e-05 DIIS
   @DF-RHF iter   4:  -305.87394059145254   -1.75365e-05   1.47100e-05 DIIS
   @DF-RHF iter   5:  -305.87394316814368   -2.57669e-06   6.48984e-06 DIIS
   @DF-RHF iter   6:  -305.87394386650089   -6.98357e-07   1.50737e-06 DIIS
   @DF-RHF iter   7:  -305.87394390864154   -4.21406e-08   4.64021e-07 DIIS
   @DF-RHF iter   8:  -305.87394391217344   -3.53191e-09   2.02076e-07 DIIS
   @DF-RHF iter   9:  -305.87394391288831   -7.14863e-10   8.83624e-08 DIIS
   @DF-RHF iter  10:  -305.87394391308885   -2.00544e-10   3.50306e-08 DIIS
   @DF-RHF iter  11:  -305.87394391311909   -3.02407e-11   1.15406e-08 DIIS
   @DF-RHF iter  12:  -305.87394391312273   -3.63798e-12   2.87474e-09 DIIS

  ==> Post-Iterations <==

    Orbital Energies (a.u.)
    -----------------------

    Doubly Occupied:                                                      

       1A    -20.601597     2A    -20.543687     3A    -11.374880  
       4A    -11.286407     5A    -11.233603     6A    -11.216809  
       7A     -1.468553     8A     -1.362004     9A     -1.054081  
      10A     -0.998564    11A     -0.886402    12A     -0.759093  
      13A     -0.698970    14A     -0.681412    15A     -0.659417  
      16A     -0.610360    17A     -0.587907    18A     -0.570460  
      19A     -0.555616    20A     -0.530077    21A     -0.514713  
      22A     -0.494322    23A     -0.451852    24A     -0.436634  

    Virtual:                                                              

      25A      0.197080    26A      0.246951    27A      0.262947  
      28A      0.292558    29A      0.299249    30A      0.308107  
      31A      0.317457    32A      0.334366    33A      0.346411  
      34A      0.363478    35A      0.410032    36A      0.421102  
      37A      0.506494    38A      0.555541    39A      0.707374  
      40A      0.722356    41A      0.739656    42A      0.755165  
      43A      0.776980    44A      0.794144    45A      0.817788  
      46A      0.864865    47A      0.914915    48A      0.951147  
      49A      0.964066    50A      1.004862    51A      1.070882  
      52A      1.099387    53A      1.131352    54A      1.132281  
      55A      1.164386    56A      1.175952    57A      1.190522  
      58A      1.204607    59A      1.222344    60A      1.244566  
      61A      1.259735    62A      1.305516    63A      1.350140  
      64A      1.390869    65A      1.427256    66A      1.460144  
      67A      1.632962    68A      1.659116    69A      1.706874  
      70A      1.728901    71A      1.775738    72A      1.845924  
      73A      1.957072    74A      1.987278    75A      2.036786  
      76A      2.092096    77A      2.105369    78A      2.147395  
      79A      2.205535    80A      2.232819    81A      2.256551  
      82A      2.319132    83A      2.386535    84A      2.396274  
      85A      2.481477    86A      2.526257    87A      2.567526  
      88A      2.578230    89A      2.685826    90A      2.687929  
      91A      2.736070    92A      2.749578    93A      2.834450  
      94A      2.920046    95A      2.983771    96A      3.101321  
      97A      3.154921    98A      3.352778    99A      3.409566  
     100A      3.555713   101A      4.428844   102A      4.518955  
     103A      4.616464   104A      4.644770   105A      4.835654  
     106A      4.909343  

    Final Occupation by Irrep:
              A 
    DOCC [    24 ]

  Energy converged.

  @DF-RHF Final Energy:  -305.87394391312273

   => Energetics <=

    Nuclear Repulsion Energy =            249.7863254503981807
    One-Electron Energy =                -912.1656966046898560
    Two-Electron Energy =                 356.5054272411688316
    DFT Exchange-Correlation Energy =       0.0000000000000000
    Empirical Dispersion Energy =           0.0000000000000000
    PCM Polarization Energy =               0.0000000000000000
    EFP Energy =                            0.0000000000000000
    Total Energy =                       -305.8739439131228437

    Alert: EFP and PCM quantities not currently incorporated into SCF psivars.

Properties will be evaluated at   0.000000,   0.000000,   0.000000 Bohr
  ==> Properties <==


Properties computed using the SCF density matrix

  Nuclear Dipole Moment: (a.u.)
     X:     2.6671      Y:    -1.3132      Z:     1.8021

  Electronic Dipole Moment: (a.u.)
     X:    -2.4732      Y:     0.5986      Z:    -1.6402

  Dipole Moment: (a.u.)
     X:     0.1939      Y:    -0.7146      Z:     0.1619     Total:     0.7579

  Dipole Moment: (Debye)
     X:     0.4928      Y:    -1.8163      Z:     0.4114     Total:     1.9264


  Saving occupied orbitals to File 180.

*** tstop() called on cx1-5-7-2.cx1.hpc.ic.ac.uk at Fri Sep  2 11:40:50 2016
Module time:
	user time   =      10.38 seconds =       0.17 minutes
	system time =       0.13 seconds =       0.00 minutes
	total time  =          4 seconds =       0.07 minutes
Total time:
	user time   =      33.18 seconds =       0.55 minutes
	system time =       0.49 seconds =       0.01 minutes
	total time  =         12 seconds =       0.20 minutes

*** tstart() called on cx1-5-7-2.cx1.hpc.ic.ac.uk
*** at Fri Sep  2 11:40:50 2016


         ------------------------------------------------------------
                                   SCF GRAD                          
                          Rob Parrish, Justin Turney,                
                       Andy Simmonett, and Alex Sokolov              
         ------------------------------------------------------------

  ==> Geometry <==

    Molecular point group: c1
    Full point group: C1

    Geometry (in Angstrom), charge = 0, multiplicity = 1:

       Center              X                  Y                   Z               Mass       
    ------------   -----------------  -----------------  -----------------  -----------------
           O         -0.701372259961     1.226139892778    -0.266534407275    15.994914619560
           C         -0.845358094040     0.069798715337    -0.033834739887    12.000000000000
           C         -2.136285711108    -0.571715085652     0.398028690045    12.000000000000
           O          0.117819334979    -0.826211581882    -0.177547276701    15.994914619560
           H         -2.429058388420    -1.325478950670    -0.323536801235     1.007825032070
           H         -2.905515880131     0.181528852955     0.480524801755     1.007825032070
           H         -1.997348956770    -1.067190368086     1.352046473129     1.007825032070
           C          1.425960276813    -0.365023261856    -0.513617157050    12.000000000000
           C          2.094320798452     0.451691913166     0.579711277432    12.000000000000
           H          1.382170085943     0.158664463772    -1.459313910751     1.007825032070
           H          1.967762146956    -1.285059530265    -0.675095104420     1.007825032070
           H          3.132254460471     0.627270369665     0.311253091880     1.007825032070
           H          1.614852098331     1.404995209915     0.722848138773     1.007825032070
           H          2.082831129087    -0.097599110546     1.515805557139     1.007825032070

  Nuclear repulsion =  249.786325450398181

  ==> Basis Set <==

  Basis Set: 6-31G*
    Number of shells: 52
    Number of basis function: 106
    Number of Cartesian functions: 106
    Spherical Harmonics?: false
    Max angular momentum: 2

  ==> DFJKGrad: Density-Fitted SCF Gradients <==

    Gradient:                    1
    J tasked:                  Yes
    K tasked:                  Yes
    wK tasked:                  No
    OpenMP threads:              4
    Integrals threads:           4
    Memory (MB):              1430
    Schwarz Cutoff:          0E+00
    Fitting Condition:       1E-12

   => Auxiliary Basis Set <=

  Basis Set: 
    Number of shells: 216
    Number of basis function: 686
    Number of Cartesian functions: 686
    Spherical Harmonics?: false
    Max angular momentum: 3


  -Total Gradient:
     Atom            X                  Y                   Z
    ------   -----------------  -----------------  -----------------
       1        0.002093988347    -0.002732394145    -0.001996585274
       2        0.001754779785     0.000870276582     0.008152102907
       3       -0.000519143777    -0.000473615743    -0.001522361423
       4       -0.002320880383    -0.001586475926    -0.007575120772
       5       -0.000224106470    -0.000114573339     0.000143324409
       6        0.000015055645     0.000017537835    -0.000005476331
       7        0.000217875167     0.000102302670    -0.000044357806
       8       -0.001126749824     0.006140531979     0.004810987375
       9       -0.001102308430     0.003043624877     0.000118434293
      10        0.000674381417    -0.003361115325    -0.002474284662
      11       -0.001810674517    -0.000080886529     0.000120017768
      12        0.000466859910     0.000380150774     0.000583325989
      13        0.001635124320    -0.001994577130    -0.000232998469
      14        0.000245798816    -0.000210786580    -0.000077008003


*** tstop() called on cx1-5-7-2.cx1.hpc.ic.ac.uk at Fri Sep  2 11:40:54 2016
Module time:
	user time   =      13.92 seconds =       0.23 minutes
	system time =       0.18 seconds =       0.00 minutes
	total time  =          4 seconds =       0.07 minutes
Total time:
	user time   =      47.11 seconds =       0.79 minutes
	system time =       0.67 seconds =       0.01 minutes
	total time  =         16 seconds =       0.27 minutes
CURRENT ENERGY: -305.8739439131

			-----------------------------------------
			 OPTKING 2.0: for geometry optimizations 
			  - R.A. King,  Bethel University        
			-----------------------------------------

	Previous internal coordinate definitions found.
	---Fragment 1 Geometry and Gradient---
	 O          -1.3254014885        2.3170685980       -0.5036770347
	 C          -1.5974952820        0.1319004564       -0.0639383922
	 C          -4.0369949356       -1.0803849379        0.7521652172
	 O           0.2226462763       -1.5613136176       -0.3355157286
	 H          -4.5902551149       -2.5047922117       -0.6113959482
	 H          -5.4906292882        0.3430398173        0.9080602754
	 H          -3.7744425201       -2.0166975273        2.5549975531
	 C           2.6946743995       -0.6897939970       -0.9705957640
	 C           3.9576927435        0.8535740123        1.0954955505
	 H           2.6119229315        0.2998323835       -2.7577036332
	 H           3.7185315524       -2.4284105767       -1.2757448610
	 H           5.9191031088        1.1853692099        0.5881831017
	 H           3.0516282110        2.6550561648        1.3659850179
	 H           3.9359804150       -0.1844355897        2.8644573737
	             0.0020939883       -0.0027323941       -0.0019965853
	             0.0017547798        0.0008702766        0.0081521029
	            -0.0005191438       -0.0004736157       -0.0015223614
	            -0.0023208804       -0.0015864759       -0.0075751208
	            -0.0002241065       -0.0001145733        0.0001433244
	             0.0000150556        0.0000175378       -0.0000054763
	             0.0002178752        0.0001023027       -0.0000443578
	            -0.0011267498        0.0061405320        0.0048109874
	            -0.0011023084        0.0030436249        0.0001184343
	             0.0006743814       -0.0033611153       -0.0024742847
	            -0.0018106745       -0.0000808865        0.0001200178
	             0.0004668599        0.0003801508        0.0005833260
	             0.0016351243       -0.0019945771       -0.0002329985
	             0.0002457988       -0.0002107866       -0.0000770080

	---Fragment 1 Intrafragment Coordinates---
	 - Coordinate -           - BOHR/RAD -       - ANG/DEG -
	 R(1,2)           =         2.245521	       1.188279
	 R(2,3)           =         2.843733	       1.504839
	 R(2,4)           =         2.500729	       1.323329
	 R(3,5)           =         2.048007	       1.083759
	 R(3,6)           =         2.040464	       1.079767
	 R(3,7)           =         2.048370	       1.083951
	 R(4,8)           =         2.696998	       1.427190
	 R(8,9)           =         2.871573	       1.519571
	 R(8,10)          =         2.044496	       1.081901
	 R(8,11)          =         2.040634	       1.079857
	 R(9,12)          =         2.052945	       1.086372
	 R(9,13)          =         2.034565	       1.076646
	 R(9,14)          =         2.051137	       1.085415
	 B(1,2,3)         =         2.183388	     125.098931
	 B(1,2,4)         =         2.152477	     123.327852
	 B(2,3,5)         =         1.914703	     109.704400
	 B(2,3,6)         =         1.913119	     109.613628
	 B(2,3,7)         =         1.915044	     109.723964
	 B(2,4,8)         =         2.064519	     118.288197
	 B(3,2,4)         =         1.946476	     111.524876
	 B(4,8,9)         =         1.990401	     114.041597
	 B(4,8,10)        =         1.901966	     108.974600
	 B(4,8,11)        =         1.792382	     102.695913
	 B(5,3,6)         =         1.921546	     110.096450
	 B(5,3,7)         =         1.878319	     107.619731
	 B(6,3,7)         =         1.920844	     110.056276
	 B(8,9,12)        =         1.906348	     109.225694
	 B(8,9,13)        =         1.955919	     112.065879
	 B(8,9,14)        =         1.921830	     110.112751
	 B(9,8,10)        =         1.967700	     112.740879
	 B(9,8,11)        =         1.922853	     110.171372
	 B(10,8,11)       =         1.877588	     107.577880
	 B(12,9,13)       =         1.891494	     108.374629
	 B(12,9,14)       =         1.880758	     107.759507
	 B(13,9,14)       =         1.905742	     109.190997
	 D(1,2,3,5)       =         2.094654	     120.014824
	 D(1,2,3,6)       =        -0.017240	      -0.987774
	 D(1,2,3,7)       =        -2.128483	    -121.953080
	 D(1,2,4,8)       =         0.100886	       5.780344
	 D(2,4,8,9)       =         1.168336	      66.940724
	*D(2,4,8,10)      =        -1.047198	     -60.000016
	 D(2,4,8,11)      =        -3.034775	    -173.879778
	 D(3,2,4,8)       =        -3.082848	    -176.634191
	 D(4,2,3,5)       =        -1.003901	     -57.519317
	 D(4,2,3,6)       =        -3.115795	    -178.521915
	 D(4,2,3,7)       =         1.056147	      60.512778
	 D(4,8,9,12)      =         2.986604	     171.119819
	 D(4,8,9,13)      =        -1.200336	     -68.774213
	 D(4,8,9,14)      =         0.924561	      52.973415
	 D(10,8,9,12)     =        -1.115591	     -63.918638
	 D(10,8,9,13)     =         0.980654	      56.187330
	 D(10,8,9,14)     =         3.105551	     177.934958
	 D(11,8,9,12)     =         0.982079	      56.268970
	 D(11,8,9,13)     =         3.078323	     176.374937
	 D(11,8,9,14)     =        -1.079965	     -61.877435
	 R(1,9)           =         5.710539	       3.021887

	Current energy   :      -305.8739439131

	Energy change for the previous step:
		Projected    :        -0.0029177534
		Actual       :        -0.0011826617

	Performing BFGS update.
	Previous computed or guess Hessian on step 1.
	Steps to be used in Hessian update: 1
	Taking RFO optimization step.
	Going to follow RFO solution 1.
	Using RFO vector 1.
	Norm of target step-size    0.25571
	Projected energy change by RFO approximation:         0.0004427660

	Back-transformation to cartesian coordinates...
	Successfully converged to displaced geometry.

	Back-transformation to cartesian coordinates to adjust frozen coordinates...
	Successfully converged to displaced geometry.

	--- Internal Coordinate Step in ANG or DEG, aJ/ANG or AJ/DEG ---
	 ---------------------------------------------------------------------------
	   Coordinate                Previous        Force       Change         New 
	   ----------                --------       ------       ------       ------
	    1 R(1,2)          =      1.188279     0.014736     0.000754     1.189033
	    2 R(2,3)          =      1.504839    -0.001873    -0.000297     1.504542
	    3 R(2,4)          =      1.323329     0.020890     0.002414     1.325743
	    4 R(3,5)          =      1.083759    -0.000369    -0.000066     1.083693
	    5 R(3,6)          =      1.079767    -0.000009     0.000006     1.079774
	    6 R(3,7)          =      1.083951     0.000477     0.000082     1.084033
	    7 R(4,8)          =      1.427190    -0.003984     0.001139     1.428328
	    8 R(8,9)          =      1.519571    -0.016785    -0.001549     1.518022
	    9 R(8,10)         =      1.081901    -0.004190    -0.000039     1.081862
	   10 R(8,11)         =      1.079857     0.007065     0.000927     1.080784
	   11 R(9,12)         =      1.086372    -0.002993    -0.000303     1.086069
	   12 R(9,13)         =      1.076646     0.020805     0.001736     1.078382
	   13 R(9,14)         =      1.085415    -0.000310     0.000143     1.085557
	   14 B(1,2,3)        =    125.098931    -0.000116    -0.569669   124.529262
	   15 B(1,2,4)        =    123.327852     0.000209     0.666566   123.994419
	   16 B(2,3,5)        =    109.704400    -0.000039    -0.184492   109.519908
	   17 B(2,3,6)        =    109.613628     0.000003     0.012548   109.626176
	   18 B(2,3,7)        =    109.723964     0.000034     0.164413   109.888377
	   19 B(2,4,8)        =    118.288197     0.000094     1.106255   119.394453
	   20 B(3,2,4)        =    111.524876    -0.000087    -0.491890   111.032986
	   21 B(4,8,9)        =    114.041597    -0.000256     0.316752   114.358348
	   22 B(4,8,10)       =    108.974600     0.000082    -0.095001   108.879599
	   23 B(4,8,11)       =    102.695913     0.000180     0.350186   103.046100
	   24 B(5,3,6)        =    110.096450     0.000008    -0.005446   110.091003
	   25 B(5,3,7)        =    107.619731     0.000002     0.009568   107.629299
	   26 B(6,3,7)        =    110.056276    -0.000009     0.002974   110.059249
	   27 B(8,9,12)       =    109.225694    -0.000071    -0.399366   108.826328
	   28 B(8,9,13)       =    112.065879    -0.000043     0.078719   112.144598
	   29 B(8,9,14)       =    110.112751     0.000029     0.014612   110.127363
	   30 B(9,8,10)       =    112.740879     0.000032     0.317613   113.058492
	   31 B(9,8,11)       =    110.171372     0.000000    -0.535414   109.635958
	   32 B(10,8,11)      =    107.577880    -0.000016    -0.406200   107.171680
	   33 B(12,9,13)      =    108.374629     0.000055     0.209771   108.584400
	   34 B(12,9,14)      =    107.759507     0.000034     0.071887   107.831394
	   35 B(13,9,14)      =    109.190997     0.000001     0.026746   109.217742
	   36 D(1,2,3,5)      =    120.014824     0.000016     4.734153   124.748977
	   37 D(1,2,3,6)      =     -0.987774     0.000019     4.849075     3.861301
	   38 D(1,2,3,7)      =   -121.953080     0.000016     4.733430  -117.219650
	   39 D(1,2,4,8)      =      5.780344    -0.000025    -3.606559     2.173785
	   40 D(2,4,8,9)      =     66.940724    -0.000020     0.592177    67.532901
	   41 *D(2,4,8,10)    =    -60.000016     0.000000     0.000000   -60.000016
	   42 D(2,4,8,11)     =   -173.879778    -0.000023     0.330873  -173.548905
	   43 D(3,2,4,8)      =   -176.634191     0.000006     6.157341  -170.476850
	   44 D(4,2,3,5)      =    -57.519317    -0.000018    -5.128213   -62.647531
	   45 D(4,2,3,6)      =   -178.521915    -0.000015    -5.013291  -183.535206
	   46 D(4,2,3,7)      =     60.512778    -0.000018    -5.128936    55.383843
	   47 D(4,8,9,12)     =    171.119819     0.000013    -0.648161   170.471658
	   48 D(4,8,9,13)     =    -68.774213     0.000011    -0.603060   -69.377273
	   49 D(4,8,9,14)     =     52.973415     0.000009    -0.504846    52.468568
	   50 D(10,8,9,12)    =    -63.918638    -0.000004    -0.245928   -64.164566
	   51 D(10,8,9,13)    =     56.187330    -0.000005    -0.200827    55.986503
	   52 D(10,8,9,14)    =    177.934958    -0.000007    -0.102613   177.832345
	   53 D(11,8,9,12)    =     56.268970    -0.000003    -0.924383    55.344586
	   54 D(11,8,9,13)    =    176.374937    -0.000005    -0.879282   175.495655
	   55 D(11,8,9,14)    =    -61.877435    -0.000007    -0.781069   -62.658503
	   56 R(1,9)          =      3.021887     0.009676     0.028751     3.050638
	 ---------------------------------------------------------------------------

  ==> Convergence Check <==

  Measures of convergence in internal coordinates in au.
  Criteria marked as inactive (o), active & met (*), and active & unmet ( ).
  ---------------------------------------------------------------------------------------------
   Step     Total Energy     Delta E     MAX Force     RMS Force      MAX Disp      RMS Disp   
  ---------------------------------------------------------------------------------------------
    Convergence Criteria    1.00e-06 *    3.00e-04 *             o    1.20e-03 *             o
  ---------------------------------------------------------------------------------------------
      2    -305.87394391   -1.18e-03      3.36e-03      1.11e-03 o    1.07e-01      3.41e-02 o  ~
  ---------------------------------------------------------------------------------------------

	Writing optimization data to binary file.
	Structure for next step:
	Cartesian Geometry (in Angstrom)
	    O    -0.7321924310   1.2411478876  -0.2895658988
	    C    -0.8704805453   0.0720509179  -0.1225705323
	    C    -2.1226983359  -0.5713886712   0.4080743770
	    O     0.1104436976  -0.8132533526  -0.2303536151
	    H    -2.4649552715  -1.3270573640  -0.2892168678
	    H    -2.8862161619   0.1796832022   0.5453429396
	    H    -1.9129624366  -1.0648986521   1.3501925608
	    C     1.4339808005  -0.3612821666  -0.5203429367
	    C     2.0778071337   0.4459333748   0.5924383055
	    H     1.4267578276   0.1568264799  -1.4700460969
	    H     1.9804971895  -1.2826272883  -0.6636480520
	    H     3.1264799281   0.5974087213   0.3539301614
	    H     1.6110960034   1.4099914029   0.7176565432
	    H     2.0254738564  -0.1007230715   1.5288478909
			--------------------------
			 OPTKING Finished Execution 
			--------------------------

    Structure for next step:
    Molecular point group: c1
    Full point group: C1

    Geometry (in Angstrom), charge = 0, multiplicity = 1:

    O           -0.723190949526     1.236317708222    -0.267583556623
    C           -0.861479053229     0.067220827733    -0.100588202804
    C           -2.113696748181    -0.576218712228     0.430056665973
    O            0.119445114807    -0.818083375092    -0.208371277366
    H           -2.455953657701    -1.331887347236    -0.267234525580
    H           -2.877214515873     0.174853103841     0.567325218021
    H           -1.903960864890    -1.069728655358     1.372174777785
    C            1.442982116567    -0.366112223638    -0.498360576874
    C            2.086808400665     0.441103256097     0.614420580326
    H            1.435759144225     0.151996383282    -1.448063664562
    H            1.989498463828    -1.287457274964    -0.641665681254
    H            3.135481114924     0.592578591057     0.375912454436
    H            1.620097305950     1.405161210608     0.739638808481
    H            2.034475127328    -0.105553148423     1.550830094232

gradient() will perform analytic gradient computation.

*** tstart() called on cx1-5-7-2.cx1.hpc.ic.ac.uk
*** at Fri Sep  2 11:40:54 2016


         ---------------------------------------------------------
                                   SCF
            by Justin Turney, Rob Parrish, and Andy Simmonett
                              RHF Reference
                        4 Threads,   2000 MiB Core
         ---------------------------------------------------------

  ==> Geometry <==

    Molecular point group: c1
    Full point group: C1

    Geometry (in Angstrom), charge = 0, multiplicity = 1:

       Center              X                  Y                   Z               Mass       
    ------------   -----------------  -----------------  -----------------  -----------------
           O         -0.723190949526     1.236317708222    -0.267583556623    15.994914619560
           C         -0.861479053229     0.067220827733    -0.100588202804    12.000000000000
           C         -2.113696748181    -0.576218712228     0.430056665973    12.000000000000
           O          0.119445114807    -0.818083375092    -0.208371277366    15.994914619560
           H         -2.455953657701    -1.331887347236    -0.267234525580     1.007825032070
           H         -2.877214515873     0.174853103841     0.567325218021     1.007825032070
           H         -1.903960864890    -1.069728655358     1.372174777785     1.007825032070
           C          1.442982116567    -0.366112223638    -0.498360576874    12.000000000000
           C          2.086808400665     0.441103256097     0.614420580326    12.000000000000
           H          1.435759144225     0.151996383282    -1.448063664562     1.007825032070
           H          1.989498463828    -1.287457274964    -0.641665681254     1.007825032070
           H          3.135481114924     0.592578591057     0.375912454436     1.007825032070
           H          1.620097305950     1.405161210608     0.739638808481     1.007825032070
           H          2.034475127328    -0.105553148423     1.550830094232     1.007825032070

  Running in c1 symmetry.

  Rotational constants: A =      0.24374  B =      0.08049  C =      0.07041 [cm^-1]
  Rotational constants: A =   7307.18210  B =   2412.94315  C =   2110.93073 [MHz]
  Nuclear repulsion =  249.343089035524230

  Charge       = 0
  Multiplicity = 1
  Electrons    = 48
  Nalpha       = 24
  Nbeta        = 24

  ==> Algorithm <==

  SCF Algorithm Type is DF.
  DIIS enabled.
  MOM disabled.
  Fractional occupation disabled.
  Guess Type is READ.
  Energy threshold   = 1.00e-08
  Density threshold  = 1.00e-08
  Integral threshold = 0.00e+00

  ==> Primary Basis <==

  Basis Set: 6-31G*
    Number of shells: 52
    Number of basis function: 106
    Number of Cartesian functions: 106
    Spherical Harmonics?: false
    Max angular momentum: 2

  ==> Pre-Iterations <==

   -------------------------------------------------------
    Irrep   Nso     Nmo     Nalpha   Nbeta   Ndocc  Nsocc
   -------------------------------------------------------
     A        106     106       0       0       0       0
   -------------------------------------------------------
    Total     106     106      24      24      24       0
   -------------------------------------------------------

 OEINTS: Overlap, kinetic, potential, dipole, and quadrupole integrals
         stored in file 35.

  ==> Integral Setup <==

  ==> DFJK: Density-Fitted J/K Matrices <==

    J tasked:                  Yes
    K tasked:                  Yes
    wK tasked:                  No
    OpenMP threads:              4
    Integrals threads:           4
    Memory (MB):              1430
    Algorithm:                Core
    Integral Cache:           NONE
    Schwarz Cutoff:          1E-12
    Fitting Condition:       1E-12

   => Auxiliary Basis Set <=

  Basis Set: 
    Number of shells: 216
    Number of basis function: 686
    Number of Cartesian functions: 686
    Spherical Harmonics?: false
    Max angular momentum: 3

  Minimum eigenvalue in the overlap matrix is 3.9252758900E-03.
  Using Symmetric Orthogonalization.
  SCF Guess: Reading in previously saved MOs, projecting if necessary.

  Using orbitals from previous SCF, no projection.
  Recomputing DOCC and SOCC from number of alpha and beta electrons from previous calculation.
              A 
    DOCC [    24 ]

  ==> Iterations <==

                           Total Energy        Delta E     RMS |[F,P]|

   @DF-RHF iter   0:  -305.85692084551863   -3.05857e+02   1.37890e-03 
   @DF-RHF iter   1:  -305.87210370082312   -1.51829e-02   2.21723e-04 
   @DF-RHF iter   2:  -305.87261291344112   -5.09213e-04   7.76425e-05 DIIS
   @DF-RHF iter   3:  -305.87268458061430   -7.16672e-05   2.81421e-05 DIIS
   @DF-RHF iter   4:  -305.87269016963739   -5.58902e-06   7.48674e-06 DIIS
   @DF-RHF iter   5:  -305.87269065218186   -4.82544e-07   3.53183e-06 DIIS
   @DF-RHF iter   6:  -305.87269080685314   -1.54671e-07   9.89501e-07 DIIS
   @DF-RHF iter   7:  -305.87269082322030   -1.63672e-08   3.88069e-07 DIIS
   @DF-RHF iter   8:  -305.87269082503610   -1.81581e-09   1.03792e-07 DIIS
   @DF-RHF iter   9:  -305.87269082519595   -1.59844e-10   3.91371e-08 DIIS
   @DF-RHF iter  10:  -305.87269082522164   -2.56932e-11   1.72099e-08 DIIS
   @DF-RHF iter  11:  -305.87269082522937   -7.73070e-12   6.34866e-09 DIIS

  ==> Post-Iterations <==

    Orbital Energies (a.u.)
    -----------------------

    Doubly Occupied:                                                      

       1A    -20.601381     2A    -20.544404     3A    -11.375409  
       4A    -11.287462     5A    -11.232835     6A    -11.217554  
       7A     -1.466202     8A     -1.362205     9A     -1.054439  
      10A     -0.998695    11A     -0.886244    12A     -0.759202  
      13A     -0.697648    14A     -0.680977    15A     -0.659055  
      16A     -0.611215    17A     -0.588661    18A     -0.570195  
      19A     -0.554506    20A     -0.529252    21A     -0.516565  
      22A     -0.493174    23A     -0.451892    24A     -0.436169  

    Virtual:                                                              

      25A      0.194190    26A      0.247539    27A      0.262859  
      28A      0.290652    29A      0.299065    30A      0.308163  
      31A      0.317806    32A      0.334848    33A      0.344775  
      34A      0.364631    35A      0.406748    36A      0.423107  
      37A      0.504279    38A      0.556842    39A      0.706914  
      40A      0.722432    41A      0.739323    42A      0.757756  
      43A      0.776743    44A      0.789271    45A      0.812751  
      46A      0.863940    47A      0.913990    48A      0.945629  
      49A      0.962837    50A      1.009397    51A      1.064996  
      52A      1.098433    53A      1.129123    54A      1.132563  
      55A      1.163642    56A      1.175530    57A      1.191845  
      58A      1.204020    59A      1.221663    60A      1.242704  
      61A      1.263716    62A      1.304449    63A      1.351236  
      64A      1.389602    65A      1.426063    66A      1.443170  
      67A      1.647719    68A      1.657329    69A      1.686278  
      70A      1.733169    71A      1.790165    72A      1.839360  
      73A      1.952078    74A      1.983883    75A      2.039866  
      76A      2.089914    77A      2.107629    78A      2.141736  
      79A      2.201119    80A      2.227410    81A      2.244810  
      82A      2.329887    83A      2.382117    84A      2.390528  
      85A      2.477489    86A      2.524739    87A      2.563439  
      88A      2.582172    89A      2.677235    90A      2.686593  
      91A      2.729009    92A      2.749032    93A      2.834339  
      94A      2.920428    95A      2.979476    96A      3.098031  
      97A      3.160621    98A      3.347682    99A      3.406560  
     100A      3.553348   101A      4.422639   102A      4.514875  
     103A      4.610750   104A      4.642881   105A      4.826550  
     106A      4.908147  

    Final Occupation by Irrep:
              A 
    DOCC [    24 ]

  Energy converged.

  @DF-RHF Final Energy:  -305.87269082522937

   => Energetics <=

    Nuclear Repulsion Energy =            249.3430890355242298
    One-Electron Energy =                -911.2808831796407958
    Two-Electron Energy =                 356.0651033188870542
    DFT Exchange-Correlation Energy =       0.0000000000000000
    Empirical Dispersion Energy =           0.0000000000000000
    PCM Polarization Energy =               0.0000000000000000
    EFP Energy =                            0.0000000000000000
    Total Energy =                       -305.8726908252294834

    Alert: EFP and PCM quantities not currently incorporated into SCF psivars.

Properties will be evaluated at   0.000000,   0.000000,   0.000000 Bohr
  ==> Properties <==


Properties computed using the SCF density matrix

  Nuclear Dipole Moment: (a.u.)
     X:     2.7891      Y:    -1.3761      Z:     2.1060

  Electronic Dipole Moment: (a.u.)
     X:    -2.5637      Y:     0.6480      Z:    -1.9580

  Dipole Moment: (a.u.)
     X:     0.2254      Y:    -0.7281      Z:     0.1480     Total:     0.7764

  Dipole Moment: (Debye)
     X:     0.5729      Y:    -1.8507      Z:     0.3761     Total:     1.9735


  Saving occupied orbitals to File 180.

*** tstop() called on cx1-5-7-2.cx1.hpc.ic.ac.uk at Fri Sep  2 11:40:57 2016
Module time:
	user time   =       9.42 seconds =       0.16 minutes
	system time =       0.14 seconds =       0.00 minutes
	total time  =          3 seconds =       0.05 minutes
Total time:
	user time   =      57.03 seconds =       0.95 minutes
	system time =       0.83 seconds =       0.01 minutes
	total time  =         19 seconds =       0.32 minutes

*** tstart() called on cx1-5-7-2.cx1.hpc.ic.ac.uk
*** at Fri Sep  2 11:40:57 2016


         ------------------------------------------------------------
                                   SCF GRAD                          
                          Rob Parrish, Justin Turney,                
                       Andy Simmonett, and Alex Sokolov              
         ------------------------------------------------------------

  ==> Geometry <==

    Molecular point group: c1
    Full point group: C1

    Geometry (in Angstrom), charge = 0, multiplicity = 1:

       Center              X                  Y                   Z               Mass       
    ------------   -----------------  -----------------  -----------------  -----------------
           O         -0.723190949526     1.236317708222    -0.267583556623    15.994914619560
           C         -0.861479053229     0.067220827733    -0.100588202804    12.000000000000
           C         -2.113696748181    -0.576218712228     0.430056665973    12.000000000000
           O          0.119445114807    -0.818083375092    -0.208371277366    15.994914619560
           H         -2.455953657701    -1.331887347236    -0.267234525580     1.007825032070
           H         -2.877214515873     0.174853103841     0.567325218021     1.007825032070
           H         -1.903960864890    -1.069728655358     1.372174777785     1.007825032070
           C          1.442982116567    -0.366112223638    -0.498360576874    12.000000000000
           C          2.086808400665     0.441103256097     0.614420580326    12.000000000000
           H          1.435759144225     0.151996383282    -1.448063664562     1.007825032070
           H          1.989498463828    -1.287457274964    -0.641665681254     1.007825032070
           H          3.135481114924     0.592578591057     0.375912454436     1.007825032070
           H          1.620097305950     1.405161210608     0.739638808481     1.007825032070
           H          2.034475127328    -0.105553148423     1.550830094232     1.007825032070

  Nuclear repulsion =  249.343089035524230

  ==> Basis Set <==

  Basis Set: 6-31G*
    Number of shells: 52
    Number of basis function: 106
    Number of Cartesian functions: 106
    Spherical Harmonics?: false
    Max angular momentum: 2

  ==> DFJKGrad: Density-Fitted SCF Gradients <==

    Gradient:                    1
    J tasked:                  Yes
    K tasked:                  Yes
    wK tasked:                  No
    OpenMP threads:              4
    Integrals threads:           4
    Memory (MB):              1430
    Schwarz Cutoff:          0E+00
    Fitting Condition:       1E-12

   => Auxiliary Basis Set <=

  Basis Set: 
    Number of shells: 216
    Number of basis function: 686
    Number of Cartesian functions: 686
    Spherical Harmonics?: false
    Max angular momentum: 3


  -Total Gradient:
     Atom            X                  Y                   Z
    ------   -----------------  -----------------  -----------------
       1        0.001646680968     0.001263980533     0.008652715133
       2       -0.006984792957    -0.004136962875    -0.021059200293
       3        0.003288951679     0.001691589510     0.007770187085
       4       -0.000570599670    -0.001204750010     0.000187796940
       5        0.001606961816     0.000926487720    -0.000698508002
       6        0.000139608871     0.000086188601     0.000501746040
       7       -0.001429178048    -0.000855502673     0.000705180425
       8       -0.000030197185     0.006529787276     0.006638330230
       9        0.000519596992     0.001347259657    -0.000146148826
      10        0.000494506695    -0.004272318090    -0.002609319681
      11       -0.000167402258     0.000215215585    -0.000032936802
      12        0.000258673456    -0.000135204010     0.000221073738
      13        0.001006091195    -0.001079481434    -0.000223324514
      14        0.000221098448    -0.000376289790     0.000092408527


*** tstop() called on cx1-5-7-2.cx1.hpc.ic.ac.uk at Fri Sep  2 11:41:01 2016
Module time:
	user time   =      14.06 seconds =       0.23 minutes
	system time =       0.20 seconds =       0.00 minutes
	total time  =          4 seconds =       0.07 minutes
Total time:
	user time   =      71.10 seconds =       1.19 minutes
	system time =       1.03 seconds =       0.02 minutes
	total time  =         23 seconds =       0.38 minutes
CURRENT ENERGY: -305.8726908252

			-----------------------------------------
			 OPTKING 2.0: for geometry optimizations 
			  - R.A. King,  Bethel University        
			-----------------------------------------

	Previous internal coordinate definitions found.
	---Fragment 1 Geometry and Gradient---
	 O          -1.3666328364        2.3363018818       -0.5056596397
	 C          -1.6279594798        0.1270289548       -0.1900841555
	 C          -3.9943079820       -1.0888955588        0.8126893203
	 O           0.2257185549       -1.5459535328       -0.3937646482
	 H          -4.6410798081       -2.5169023261       -0.5050000666
	 H          -5.4371474606        0.3304244797        1.0720892903
	 H          -3.5979646024       -2.0214941951        2.5930345365
	 C           2.7268410150       -0.6918518366       -0.9417650057
	 C           3.9434963691        0.8335643503        1.1610866272
	 H           2.7131915754        0.2872315376       -2.7364437490
	 H           3.7596072384       -2.4329416575       -1.2125724064
	 H           5.9252006020        1.1198112493        0.7103715888
	 H           3.0615402169        2.6553698606        1.3977147853
	 H           3.8446008148       -0.1994665430        2.9306441567
	             0.0016466810        0.0012639805        0.0086527151
	            -0.0069847930       -0.0041369629       -0.0210592003
	             0.0032889517        0.0016915895        0.0077701871
	            -0.0005705997       -0.0012047500        0.0001877969
	             0.0016069618        0.0009264877       -0.0006985080
	             0.0001396089        0.0000861886        0.0005017460
	            -0.0014291780       -0.0008555027        0.0007051804
	            -0.0000301972        0.0065297873        0.0066383302
	             0.0005195970        0.0013472597       -0.0001461488
	             0.0004945067       -0.0042723181       -0.0026093197
	            -0.0001674023        0.0002152156       -0.0000329368
	             0.0002586735       -0.0001352040        0.0002210737
	             0.0010060912       -0.0010794814       -0.0002233245
	             0.0002210984       -0.0003762898        0.0000924085

	---Fragment 1 Intrafragment Coordinates---
	 - Coordinate -           - BOHR/RAD -       - ANG/DEG -
	 R(1,2)           =         2.246946	       1.189033
	 R(2,3)           =         2.843173	       1.504542
	 R(2,4)           =         2.505290	       1.325743
	 R(3,5)           =         2.047882	       1.083693
	 R(3,6)           =         2.040476	       1.079774
	 R(3,7)           =         2.048526	       1.084033
	 R(4,8)           =         2.699149	       1.428328
	 R(8,9)           =         2.868646	       1.518022
	 R(8,10)          =         2.044422	       1.081862
	 R(8,11)          =         2.042385	       1.080784
	 R(9,12)          =         2.052373	       1.086069
	 R(9,13)          =         2.037846	       1.078382
	 R(9,14)          =         2.051406	       1.085557
	 B(1,2,3)         =         2.173446	     124.529262
	 B(1,2,4)         =         2.164111	     123.994419
	 B(2,3,5)         =         1.911483	     109.519908
	 B(2,3,6)         =         1.913338	     109.626176
	 B(2,3,7)         =         1.917914	     109.888377
	 B(2,4,8)         =         2.083826	     119.394453
	 B(3,2,4)         =         1.937891	     111.032986
	 B(4,8,9)         =         1.995930	     114.358348
	 B(4,8,10)        =         1.900307	     108.879599
	 B(4,8,11)        =         1.798494	     103.046100
	 B(5,3,6)         =         1.921450	     110.091003
	 B(5,3,7)         =         1.878486	     107.629299
	 B(6,3,7)         =         1.920896	     110.059249
	 B(8,9,12)        =         1.899378	     108.826328
	 B(8,9,13)        =         1.957292	     112.144598
	 B(8,9,14)        =         1.922085	     110.127363
	 B(9,8,10)        =         1.973243	     113.058492
	 B(9,8,11)        =         1.913508	     109.635958
	 B(10,8,11)       =         1.870499	     107.171680
	 B(12,9,13)       =         1.895155	     108.584400
	 B(12,9,14)       =         1.882013	     107.831394
	 B(13,9,14)       =         1.906209	     109.217742
	 D(1,2,3,5)       =         2.177280	     124.748977
	 D(1,2,3,6)       =         0.067392	       3.861301
	 D(1,2,3,7)       =        -2.045869	    -117.219650
	 D(1,2,4,8)       =         0.037940	       2.173785
	 D(2,4,8,9)       =         1.178671	      67.532901
	*D(2,4,8,10)      =        -1.047198	     -60.000016
	 D(2,4,8,11)      =        -3.029000	    -173.548905
	 D(3,2,4,8)       =        -2.975382	    -170.476850
	 D(4,2,3,5)       =        -1.093406	     -62.647531
	 D(4,2,3,6)       =         3.079892	     176.464794
	 D(4,2,3,7)       =         0.966630	      55.383843
	 D(4,8,9,12)      =         2.975292	     170.471658
	 D(4,8,9,13)      =        -1.210862	     -69.377273
	 D(4,8,9,14)      =         0.915749	      52.468568
	 D(10,8,9,12)     =        -1.119883	     -64.164566
	 D(10,8,9,13)     =         0.977149	      55.986503
	 D(10,8,9,14)     =         3.103760	     177.832345
	 D(11,8,9,12)     =         0.965945	      55.344586
	 D(11,8,9,13)     =         3.062977	     175.495655
	 D(11,8,9,14)     =        -1.093597	     -62.658503
	 R(1,9)           =         5.764871	       3.050638

	Current energy   :      -305.8726908252

	Energy change for the previous step:
		Projected    :         0.0004427660
		Actual       :         0.0012530879

	Performing BFGS update.
	Previous computed or guess Hessian on step 1.
	Steps to be used in Hessian update: 2 1
	Taking RFO optimization step.
	Going to follow RFO solution 1.
	Using RFO vector 1.
	Norm of target step-size    0.20188
	Projected energy change by RFO approximation:        -0.0031345920

	Back-transformation to cartesian coordinates...
	Successfully converged to displaced geometry.

	Back-transformation to cartesian coordinates to adjust frozen coordinates...
	Successfully converged to displaced geometry.

	--- Internal Coordinate Step in ANG or DEG, aJ/ANG or AJ/DEG ---
	 ---------------------------------------------------------------------------
	   Coordinate                Previous        Force       Change         New 
	   ----------                --------       ------       ------       ------
	    1 R(1,2)          =      1.189033    -0.000078     0.000014     1.189047
	    2 R(2,3)          =      1.504542     0.007187     0.000220     1.504762
	    3 R(2,4)          =      1.325743     0.005414     0.000011     1.325753
	    4 R(3,5)          =      1.083693     0.005801     0.000180     1.083873
	    5 R(3,6)          =      1.079774    -0.000206    -0.000011     1.079763
	    6 R(3,7)          =      1.084033    -0.005980    -0.000185     1.083848
	    7 R(4,8)          =      1.428328    -0.010316    -0.001011     1.427317
	    8 R(8,9)          =      1.518022    -0.001380    -0.000789     1.517234
	    9 R(8,10)         =      1.081862    -0.001987    -0.000425     1.081436
	   10 R(8,11)         =      1.080784     0.002173     0.000182     1.080966
	   11 R(9,12)         =      1.086069    -0.001502    -0.000153     1.085916
	   12 R(9,13)         =      1.078382     0.011752     0.001294     1.079676
[...]
           C          2.093800755262     0.441340325819     0.582205445319    12.000000000000
           H          1.402471584194     0.147787442644    -1.461050840097     1.007825032070
           H          1.978806524051    -1.295653264886    -0.668948145692     1.007825032070
           H          3.130762550009     0.621662983878     0.315439776303     1.007825032070
           H          1.604397637497     1.394004538477     0.722371463722     1.007825032070
           H          2.078346806949    -0.106735228290     1.518711161996     1.007825032070

  Nuclear repulsion =  249.545720377475590

  ==> Basis Set <==

  Basis Set: 6-31G*
    Number of shells: 52
    Number of basis function: 106
    Number of Cartesian functions: 106
    Spherical Harmonics?: false
    Max angular momentum: 2

  ==> DFJKGrad: Density-Fitted SCF Gradients <==

    Gradient:                    1
    J tasked:                  Yes
    K tasked:                  Yes
    wK tasked:                  No
    OpenMP threads:              4
    Integrals threads:           4
    Memory (MB):              1430
    Schwarz Cutoff:          0E+00
    Fitting Condition:       1E-12

   => Auxiliary Basis Set <=

  Basis Set: 
    Number of shells: 216
    Number of basis function: 686
    Number of Cartesian functions: 686
    Spherical Harmonics?: false
    Max angular momentum: 3


  -Total Gradient:
     Atom            X                  Y                   Z
    ------   -----------------  -----------------  -----------------
       1        0.000038710149    -0.000040634335    -0.000013635320
       2        0.000764980058     0.000265726437     0.003496592635
       3       -0.000000422590     0.000015480432     0.000063073963
       4       -0.001036350878    -0.001250399604    -0.005541207343
       5       -0.000005423725     0.000006518870    -0.000018839427
       6       -0.000008943835    -0.000002431155    -0.000003789391
       7       -0.000008616138    -0.000016501003    -0.000018548015
       8       -0.000482815237     0.004516799122     0.004006863061
       9        0.000016498133    -0.000000920488    -0.000030946071
      10        0.000716486592    -0.003501949839    -0.001956359412
      11        0.000015616545     0.000016933745     0.000008690843
      12        0.000003922878     0.000002504601     0.000007793251
      13       -0.000009620838    -0.000009955202    -0.000001757466
      14       -0.000004021111    -0.000001171583     0.000002068692


*** tstop() called on cx1-5-7-2.cx1.hpc.ic.ac.uk at Fri Sep  2 11:41:23 2016
Module time:
	user time   =      11.93 seconds =       0.20 minutes
	system time =       0.12 seconds =       0.00 minutes
	total time  =          4 seconds =       0.07 minutes
Total time:
	user time   =     137.15 seconds =       2.29 minutes
	system time =       1.88 seconds =       0.03 minutes
	total time  =         45 seconds =       0.75 minutes
CURRENT ENERGY: -305.8741120423

			-----------------------------------------
			 OPTKING 2.0: for geometry optimizations 
			  - R.A. King,  Bethel University        
			-----------------------------------------

	Previous internal coordinate definitions found.
	---Fragment 1 Geometry and Gradient---
	 O          -1.3513211072        2.3374047159       -0.4877171118
	 C          -1.6015887029        0.1422008031       -0.0816184578
	 C          -4.0248708474       -1.0865840529        0.7589590905
	 O           0.2265573413       -1.5487806726       -0.3490504444
	 H          -4.5795255422       -2.5191259705       -0.5956720883
	 H          -5.4880173743        0.3260832290        0.9233466525
	 H          -3.7395704446       -2.0158680300        2.5619020908
	 C           2.7105454666       -0.7080949161       -0.9725896096
	 C           3.9567100043        0.8340123472        1.1002088447
	 H           2.6502872033        0.2792777925       -2.7609859540
	 H           3.7394024004       -2.4484298338       -1.2641287925
	 H           5.9162838066        1.1747727865        0.5960947886
	 H           3.0318721431        2.6342868057        1.3650842326
	 H           3.9275062743       -0.2017003502        2.8699481711
	             0.0000387101       -0.0000406343       -0.0000136353
	             0.0007649801        0.0002657264        0.0034965926
	            -0.0000004226        0.0000154804        0.0000630740
	            -0.0010363509       -0.0012503996       -0.0055412073
	            -0.0000054237        0.0000065189       -0.0000188394
	            -0.0000089438       -0.0000024312       -0.0000037894
	            -0.0000086161       -0.0000165010       -0.0000185480
	            -0.0004828152        0.0045167991        0.0040068631
	             0.0000164981       -0.0000009205       -0.0000309461
	             0.0007164866       -0.0035019498       -0.0019563594
	             0.0000156165        0.0000169337        0.0000086908
	             0.0000039229        0.0000025046        0.0000077933
	            -0.0000096208       -0.0000099552       -0.0000017575
	            -0.0000040211       -0.0000011716        0.0000020687

	---Fragment 1 Intrafragment Coordinates---
	 - Coordinate -           - BOHR/RAD -       - ANG/DEG -
	 R(1,2)           =         2.246435	       1.188762
	 R(2,3)           =         2.844078	       1.505021
	 R(2,4)           =         2.504607	       1.325381
	 R(3,5)           =         2.048132	       1.083825
	 R(3,6)           =         2.040453	       1.079761
	 R(3,7)           =         2.048309	       1.083918
	 R(4,8)           =         2.695506	       1.426400
	 R(8,9)           =         2.868364	       1.517873
	 R(8,10)          =         2.043746	       1.081504
	 R(8,11)          =         2.042623	       1.080909
	 R(9,12)          =         2.051872	       1.085804
	 R(9,13)          =         2.041194	       1.080153
	 R(9,14)          =         2.050739	       1.085204
	 B(1,2,3)         =         2.177971	     124.788535
	 B(1,2,4)         =         2.164135	     123.995776
	 B(2,3,5)         =         1.915010	     109.721968
	 B(2,3,6)         =         1.913107	     109.612974
	 B(2,3,7)         =         1.915041	     109.723768
	 B(2,4,8)         =         2.079183	     119.128409
	 B(3,2,4)         =         1.940972	     111.209483
	 B(4,8,9)         =         1.983264	     113.632666
	 B(4,8,10)        =         1.902791	     109.021922
	 B(4,8,11)        =         1.804371	     103.382871
	 B(5,3,6)         =         1.921265	     110.080355
	 B(5,3,7)         =         1.878180	     107.611803
	 B(6,3,7)         =         1.920972	     110.063593
	 B(8,9,12)        =         1.903555	     109.065671
	 B(8,9,13)        =         1.950990	     111.783480
	 B(8,9,14)        =         1.924006	     110.237410
	 B(9,8,10)        =         1.966465	     112.670135
	 B(9,8,11)        =         1.920238	     110.021531
	 B(10,8,11)       =         1.877144	     107.552416
	 B(12,9,13)       =         1.894537	     108.548998
	 B(12,9,14)       =         1.885458	     108.028764
	 B(13,9,14)       =         1.903921	     109.086649
	 D(1,2,3,5)       =         2.116968	     121.293344
	 D(1,2,3,6)       =         0.005235	       0.299959
	 D(1,2,3,7)       =        -2.106156	    -120.673850
	 D(1,2,4,8)       =         0.088032	       5.043843
	 D(2,4,8,9)       =         1.161938	      66.574119
	*D(2,4,8,10)      =        -1.047198	     -60.000016
	 D(2,4,8,11)      =        -3.040366	    -174.200137
	 D(3,2,4,8)       =        -3.068732	    -175.825388
	 D(4,2,3,5)       =        -1.009309	     -57.829152
	 D(4,2,3,6)       =        -3.121042	    -178.822537
	 D(4,2,3,7)       =         1.050752	      60.203654
	 D(4,8,9,12)      =         3.004541	     172.147546
	 D(4,8,9,13)      =        -1.183579	     -67.814104
	 D(4,8,9,14)      =         0.937169	      53.695830
	 D(10,8,9,12)     =        -1.103378	     -63.218901
	 D(10,8,9,13)     =         0.991686	      56.819449
	 D(10,8,9,14)     =         3.112435	     178.329383
	 D(11,8,9,12)     =         0.991085	      56.785004
	 D(11,8,9,13)     =         3.086150	     176.823354
	 D(11,8,9,14)     =        -1.076287	     -61.666712
	 R(1,9)           =         5.740809	       3.037906

	Current energy   :      -305.8741120423

	Energy change for the previous step:
		Projected    :        -0.0000045643
		Actual       :        -0.0000004522
	Energy ratio indicates iffy step: Trust radius decreased to 2.500e-01.


	Performing BFGS update.
	Previous computed or guess Hessian on step 1.
	Steps to be used in Hessian update: 5 4
	Taking RFO optimization step.
	Going to follow RFO solution 1.
	Rejecting RFO root 1 because normalization gives large value.
	Using RFO vector 2.
	Norm of target step-size    0.00845
	Projected energy change by RFO approximation:        -0.0000003378

	Back-transformation to cartesian coordinates...
	Successfully converged to displaced geometry.

	Back-transformation to cartesian coordinates to adjust frozen coordinates...
	Successfully converged to displaced geometry.

	--- Internal Coordinate Step in ANG or DEG, aJ/ANG or AJ/DEG ---
	 ---------------------------------------------------------------------------
	   Coordinate                Previous        Force       Change         New 
	   ----------                --------       ------       ------       ------
	    1 R(1,2)          =      1.188762     0.000247    -0.000006     1.188756
	    2 R(2,3)          =      1.505021    -0.000207    -0.000021     1.505001
	    3 R(2,4)          =      1.325381     0.000243     0.000022     1.325403
	    4 R(3,5)          =      1.083825    -0.000077    -0.000020     1.083805
	    5 R(3,6)          =      1.079761    -0.000036     0.000002     1.079763
	    6 R(3,7)          =      1.083918     0.000083     0.000013     1.083931
	    7 R(4,8)          =      1.426400    -0.000774    -0.000138     1.426263
	    8 R(8,9)          =      1.517873     0.000099     0.000024     1.517897
	    9 R(8,10)         =      1.081504     0.000009     0.000008     1.081512
	   10 R(8,11)         =      1.080909     0.000064     0.000010     1.080919
	   11 R(9,12)         =      1.085804    -0.000019    -0.000033     1.085771
	   12 R(9,13)         =      1.080153     0.000038     0.000003     1.080156
	   13 R(9,14)         =      1.085204    -0.000020    -0.000009     1.085195
	   14 B(1,2,3)        =    124.788535    -0.000001    -0.001318   124.787217
	   15 B(1,2,4)        =    123.995776     0.000005     0.009520   124.005296
	   16 B(2,3,5)        =    109.721968     0.000002     0.011768   109.733736
	   17 B(2,3,6)        =    109.612974    -0.000001     0.000047   109.613020
	   18 B(2,3,7)        =    109.723768    -0.000002    -0.016913   109.706854
	   19 B(2,4,8)        =    119.128409    -0.000002     0.006755   119.135164
	   20 B(3,2,4)        =    111.209483    -0.000003    -0.008113   111.201370
	   21 B(4,8,9)        =    113.632666    -0.000000    -0.003853   113.628813
	   22 B(4,8,10)       =    109.021922    -0.000001     0.002835   109.024757
	   23 B(4,8,11)       =    103.382871    -0.000001    -0.002116   103.380755
	   24 B(5,3,6)        =    110.080355     0.000001     0.011222   110.091578
	   25 B(5,3,7)        =    107.611803     0.000000     0.003098   107.614901
	   26 B(6,3,7)        =    110.063593     0.000000    -0.009222   110.054371
	   27 B(8,9,12)       =    109.065671    -0.000001    -0.000264   109.065407
	   28 B(8,9,13)       =    111.783480     0.000001    -0.004009   111.779471
	   29 B(8,9,14)       =    110.237410     0.000000     0.004021   110.241430
	   30 B(9,8,10)       =    112.670135     0.000001     0.001018   112.671153
	   31 B(9,8,11)       =    110.021531     0.000002     0.005737   110.027268
	   32 B(10,8,11)      =    107.552416    -0.000000    -0.003925   107.548491
	   33 B(12,9,13)      =    108.548998    -0.000000    -0.011183   108.537815
	   34 B(12,9,14)      =    108.028764     0.000000     0.006712   108.035475
	   35 B(13,9,14)      =    109.086649    -0.000000     0.004847   109.091497
	   36 D(1,2,3,5)      =    121.293344     0.000000     0.204423   121.497767
	   37 D(1,2,3,6)      =      0.299959    -0.000000     0.183097     0.483056
	   38 D(1,2,3,7)      =   -120.673850     0.000000     0.205124  -120.468726
	   39 D(1,2,4,8)      =      5.043843     0.000000     0.030219     5.074062
	   40 D(2,4,8,9)      =     66.574119    -0.000000     0.000715    66.574834
	   41 *D(2,4,8,10)    =    -60.000016    -0.000000    -0.000000   -60.000016
	   42 D(2,4,8,11)     =   -174.200137     0.000000     0.004309  -174.195828
	   43 D(3,2,4,8)      =   -175.825388     0.000000     0.036408  -175.788980
	   44 D(4,2,3,5)      =    -57.829152     0.000000     0.198063   -57.631089
	   45 D(4,2,3,6)      =   -178.822537    -0.000000     0.176737  -178.645799
	   46 D(4,2,3,7)      =     60.203654     0.000000     0.198764    60.402418
	   47 D(4,8,9,12)     =    172.147546     0.000000     0.007919   172.155465
	   48 D(4,8,9,13)     =    -67.814104    -0.000000    -0.008735   -67.822840
	   49 D(4,8,9,14)     =     53.695830     0.000000    -0.002491    53.693339
	   50 D(10,8,9,12)    =    -63.218901    -0.000000     0.009487   -63.209415
	   51 D(10,8,9,13)    =     56.819449    -0.000000    -0.007168    56.812281
	   52 D(10,8,9,14)    =    178.329383    -0.000000    -0.000923   178.328460
	   53 D(11,8,9,12)    =     56.785004     0.000000     0.009151    56.794154
	   54 D(11,8,9,13)    =    176.823354     0.000000    -0.007504   176.815850
	   55 D(11,8,9,14)    =    -61.666712     0.000000    -0.001259   -61.667971
	   56 R(1,9)          =      3.037906     0.000119     0.000479     3.038385
	 ---------------------------------------------------------------------------

  ==> Convergence Check <==

  Measures of convergence in internal coordinates in au.
  Criteria marked as inactive (o), active & met (*), and active & unmet ( ).
  ---------------------------------------------------------------------------------------------
   Step     Total Energy     Delta E     MAX Force     RMS Force      MAX Disp      RMS Disp   
  ---------------------------------------------------------------------------------------------
    Convergence Criteria    1.00e-06 *    3.00e-04 *             o    1.20e-03 *             o
  ---------------------------------------------------------------------------------------------
      6    -305.87411204   -4.52e-07 *    9.39e-05 *    2.02e-05 o    3.58e-03      1.13e-03 o  ~
  ---------------------------------------------------------------------------------------------


  **** Optimization is complete! (in 6 steps) ****

  ==> Optimization Summary <==

  Measures of convergence in internal coordinates in au.
  --------------------------------------------------------------------------------------------------------------- ~
   Step         Total Energy             Delta E       MAX Force       RMS Force        MAX Disp        RMS Disp  ~
  --------------------------------------------------------------------------------------------------------------- ~
      1    -305.872761251377   -305.872761251377      0.00767509      0.00193934      0.24685433      0.04478665  ~
      2    -305.873943913123     -0.001182661746      0.00336204      0.00111087      0.10746588      0.03411772  ~
      3    -305.872690825229      0.001253087893      0.00511433      0.00195095      0.09085186      0.02694964  ~
      4    -305.874100930626     -0.001410105397      0.00071359      0.00021577      0.01664640      0.00595917  ~
      5    -305.874111590093     -0.000010659467      0.00011570      0.00003773      0.00312085      0.00129805  ~
      6    -305.874112042293     -0.000000452200      0.00009389      0.00002025      0.00358009      0.00112858  ~
  --------------------------------------------------------------------------------------------------------------- ~

	Writing optimization data to binary file.
	Final energy is   -305.8741120422928
	Final (previous) structure:
	Cartesian Geometry (in Angstrom)
	    O    -0.7150883860   1.2369013973  -0.2580887995
	    C    -0.8475243038   0.0752494298  -0.0431906309
	    C    -2.1298700826  -0.5749955599   0.4016238836
	    O     0.1198889906  -0.8195794956  -0.1847095539
	    H    -2.4233807281  -1.3330641510  -0.3152161170
	    H    -2.9041339366   0.1725558261   0.4886140415
	    H    -1.9788956003  -1.0667514984   1.3557003006
	    C     1.4343589933  -0.3747077197  -0.5146722940
	    C     2.0938009152   0.4413403595   0.5822054898
	    H     1.4024716913   0.1477874539  -1.4610509517
	    H     1.9788066752  -1.2956533638  -0.6689481968
	    H     3.1307627891   0.6216630314   0.3154398004
	    H     1.6043977600   1.3940046449   0.7223715189
	    H     2.0783469657  -0.1067352364   1.5187112780
	Saving final (previous) structure.
			--------------------------
			 OPTKING Finished Execution 
			--------------------------

    Final optimized geometry and variables:
    Molecular point group: c1
    Full point group: C1

    Geometry (in Angstrom), charge = 0, multiplicity = 1:

    O           -0.715088331427     1.236901302890    -0.258088779815
    C           -0.847524239108     0.075249424037    -0.043190627651
    C           -2.129869919981    -0.574995515988     0.401623852948
    O            0.119888981431    -0.819579433054    -0.184709539840
    H           -2.423380543067    -1.333064049178    -0.315216092916
    H           -2.904133714838     0.172555812893     0.488614004153
    H           -1.978895449195    -1.066751416985     1.355700197100
    C            1.434358883752    -0.374707691100    -0.514672254710
    C            2.093800755262     0.441340325819     0.582205445319
    H            1.402471584194     0.147787442644    -1.461050840097
    H            1.978806524051    -1.295653264886    -0.668948145692
    H            3.130762550009     0.621662983878     0.315439776303
    H            1.604397637497     1.394004538477     0.722371463722
    H            2.078346806949    -0.106735228290     1.518711161996

	Cleaning optimization helper files.


Properties will be evaluated at   0.000000,   0.000000,   0.000000 Bohr

Properties computed using the  density matrix

  Nuclear Dipole Moment: (a.u.)
     X:     2.7049      Y:    -1.3725      Z:     1.8312

  Electronic Dipole Moment: (a.u.)
     X:    -2.4908      Y:     0.6447      Z:    -1.6805

  Dipole Moment: (a.u.)
     X:     0.2141      Y:    -0.7278      Z:     0.1507     Total:     0.7734

  Dipole Moment: (Debye)
     X:     0.5441      Y:    -1.8498      Z:     0.3830     Total:     1.9658

  Quadrupole Moment: (Debye Ang)
    XX:   -31.0637     YY:   -41.3094     ZZ:   -35.4990
    XY:     2.2030     XZ:    -1.5352     YZ:     0.7455

  Traceless Quadrupole Moment: (Debye Ang)
    XX:     4.8936     YY:    -5.3521     ZZ:     0.4584
    XY:     2.2030     XZ:    -1.5352     YZ:     0.7455

  Mulliken Charges: (a.u.)
   Center  Symbol    Alpha    Beta     Spin     Total
       1     O     4.28437  4.28437  0.00000 -0.56874
       2     C     2.61895  2.61895  0.00000  0.76210
       3     C     3.28150  3.28150  0.00000 -0.56301
       4     O     4.30871  4.30871  0.00000 -0.61741
       5     H     0.39999  0.39999  0.00000  0.20001
       6     H     0.39719  0.39719  0.00000  0.20563
       7     H     0.40095  0.40095  0.00000  0.19811
       8     C     3.00110  3.00110  0.00000 -0.00220
       9     C     3.26164  3.26164  0.00000 -0.52328
      10     H     0.40851  0.40851  0.00000  0.18298
      11     H     0.40992  0.40992  0.00000  0.18017
      12     H     0.41737  0.41737  0.00000  0.16527
      13     H     0.39430  0.39430  0.00000  0.21139
      14     H     0.41551  0.41551  0.00000  0.16898

   Total alpha = 24.00000, Total beta = 24.00000, Total charge =  0.00000


*** PSI4 exiting successfully. Buy a developer a beer!
