    -----------------------------------------------------------------------
          Psi4: An Open-Source Ab Initio Electronic Structure Package
                              Psi4 (no tag) Driver

                          Git: Rev {detached?}  

    J. M. Turney, A. C. Simmonett, R. M. Parrish, E. G. Hohenstein,
    F. A. Evangelista, J. T. Fermann, B. J. Mintz, L. A. Burns, J. J. Wilke,
    M. L. Abrams, N. J. Russ, M. L. Leininger, C. L. Janssen, E. T. Seidl,
    W. D. Allen, H. F. Schaefer, R. A. King, E. F. Valeev, C. D. Sherrill,
    and T. D. Crawford, WIREs Comput. Mol. Sci. 2, 556-565 (2012)
    (doi: 10.1002/wcms.93)

                         Additional Contributions by
    A. E. DePrince, M. Saitow, U. Bozkaya, A. Yu. Sokolov
    -----------------------------------------------------------------------


    Psi4 started on: Fri Sep  2 11:27:58 2016

    Process ID:  29162
    PSI4DATADIR: /export131/home/mjharvey/miniconda3/share
    Memory level set to 256.000 MB

  ==> Input File <==

--------------------------------------------------------------------------
set {
	reference rhf
	basis 6-31G*
}


set_num_threads( 4 )
memory 2 gb

molecule MOL {
0 1

H	 -3.042581	 -0.665861	 0.004336
O	 -2.245037	 -1.176175	 0.000806
C	 -1.162163	 -0.365336	 0.001020
C	 -1.224187	 0.957122	 0.401755
C	 0.040888	 -0.913773	 -0.426434
H	 -2.156510	 1.384337	 0.730745
C	 -0.069160	 1.725790	 0.370593
H	 0.052374	 -1.943842	 -0.732933
C	 1.192400	 -0.146789	 -0.455902
H	 -0.114278	 2.755218	 0.679273
C	 1.128987	 1.187203	 -0.052894
C	 2.506100	 -0.748553	 -0.897687
H	 2.015251	 1.796654	 -0.073757
H	 3.045710	 -0.072172	 -1.551996
H	 2.355572	 -1.681221	 -1.428096
H	 3.143207	 -0.952841	 -0.041704

	symmetry c1
}
set optking {
	frozen_dihedral = ("
		5 3 2 1
	")
}

ee = optimize('scf')
oeprop('DIPOLE', 'QUADRUPOLE', 'MULLIKEN_CHARGES')
f=open( 'psi4out.xyz', 'w' )
f.write( "16  " )
f.write( str(ee) + "\n" )
f.write( MOL.save_string_xyz() )
f.close()
--------------------------------------------------------------------------

  Memory set to   2.000 GiB by Python script.
gradient() will perform analytic gradient computation.

*** tstart() called on cx1-1-2-4.cx1.hpc.ic.ac.uk
*** at Fri Sep  2 11:27:58 2016


         ---------------------------------------------------------
                                   SCF
            by Justin Turney, Rob Parrish, and Andy Simmonett
                              RHF Reference
                        4 Threads,   2000 MiB Core
         ---------------------------------------------------------

  ==> Geometry <==

    Molecular point group: c1
    Full point group: C1

    Geometry (in Angstrom), charge = 0, multiplicity = 1:

       Center              X                  Y                   Z               Mass       
    ------------   -----------------  -----------------  -----------------  -----------------
           H         -3.027639074998    -0.685852899204     0.144397695630     1.007825032070
           O         -2.230095074998    -1.196166899204     0.140867695630    15.994914619560
           C         -1.147221074998    -0.385327899204     0.141081695630    12.000000000000
           C         -1.209245074998     0.937130100796     0.541816695630    12.000000000000
           C          0.055829925002    -0.933764899204    -0.286372304370    12.000000000000
           H         -2.141568074998     1.364345100796     0.870806695630     1.007825032070
           C         -0.054218074998     1.705798100796     0.510654695630    12.000000000000
           H          0.067315925002    -1.963833899204    -0.592871304370     1.007825032070
           C          1.207341925002    -0.166780899204    -0.315840304370    12.000000000000
           H         -0.099336074998     2.735226100796     0.819334695630     1.007825032070
           C          1.143928925002     1.167211100796     0.087167695630    12.000000000000
           C          2.521041925002    -0.768544899204    -0.757625304370    12.000000000000
           H          2.030192925002     1.776662100796     0.066304695630     1.007825032070
           H          3.060651925002    -0.092163899204    -1.411934304370     1.007825032070
           H          2.370513925002    -1.701212899204    -1.288034304370     1.007825032070
           H          3.158148925002    -0.972832899204     0.098357695630     1.007825032070

  Running in c1 symmetry.

  Rotational constants: A =      0.12401  B =      0.06056  C =      0.04101 [cm^-1]
  Rotational constants: A =   3717.59995  B =   1815.47120  C =   1229.48376 [MHz]
  Nuclear repulsion =  345.560702089107906

  Charge       = 0
  Multiplicity = 1
  Electrons    = 58
  Nalpha       = 29
  Nbeta        = 29

  ==> Algorithm <==

  SCF Algorithm Type is DF.
  DIIS enabled.
  MOM disabled.
  Fractional occupation disabled.
  Guess Type is CORE.
  Energy threshold   = 1.00e-08
  Density threshold  = 1.00e-08
  Integral threshold = 0.00e+00

  ==> Primary Basis <==

  Basis Set: 6-31G*
    Number of shells: 64
    Number of basis function: 136
    Number of Cartesian functions: 136
    Spherical Harmonics?: false
    Max angular momentum: 2

  ==> Pre-Iterations <==

   -------------------------------------------------------
    Irrep   Nso     Nmo     Nalpha   Nbeta   Ndocc  Nsocc
   -------------------------------------------------------
     A        136     136       0       0       0       0
   -------------------------------------------------------
    Total     136     136      29      29      29       0
   -------------------------------------------------------

 OEINTS: Overlap, kinetic, potential, dipole, and quadrupole integrals
         stored in file 35.

  ==> Integral Setup <==

  ==> DFJK: Density-Fitted J/K Matrices <==

    J tasked:                  Yes
    K tasked:                  Yes
    wK tasked:                  No
    OpenMP threads:              4
    Integrals threads:           4
    Memory (MB):              1430
    Algorithm:                Core
    Integral Cache:           NONE
    Schwarz Cutoff:          1E-12
    Fitting Condition:       1E-12

   => Auxiliary Basis Set <=

  Basis Set: 
    Number of shells: 264
    Number of basis function: 848
    Number of Cartesian functions: 848
    Spherical Harmonics?: false
    Max angular momentum: 3

  Minimum eigenvalue in the overlap matrix is 4.1558408471E-04.
  Using Symmetric Orthogonalization.
  SCF Guess: Core (One-Electron) Hamiltonian.

  ==> Iterations <==

                           Total Energy        Delta E     RMS |[F,P]|

   @DF-RHF iter   1:  -269.11280830669722   -2.69113e+02   6.61432e-02 
   @DF-RHF iter   2:  -221.09326490491759    4.80195e+01   5.47451e-02 DIIS
   @DF-RHF iter   3:  -269.26562080081050   -4.81724e+01   6.27378e-02 DIIS
   @DF-RHF iter   4:  -328.25564819968355   -5.89900e+01   2.86880e-02 DIIS
   @DF-RHF iter   5:  -336.09478211157358   -7.83913e+00   2.41540e-02 DIIS
   @DF-RHF iter   6:  -344.07930790718393   -7.98453e+00   6.82944e-03 DIIS
   @DF-RHF iter   7:  -344.54632662054661   -4.67019e-01   2.13025e-03 DIIS
   @DF-RHF iter   8:  -344.58875820928989   -4.24316e-02   5.85625e-04 DIIS
   @DF-RHF iter   9:  -344.59379044695112   -5.03224e-03   1.86292e-04 DIIS
   @DF-RHF iter  10:  -344.59430640327554   -5.15956e-04   9.95246e-05 DIIS
   @DF-RHF iter  11:  -344.59450918985686   -2.02787e-04   3.23959e-05 DIIS
   @DF-RHF iter  12:  -344.59454816486829   -3.89750e-05   1.41129e-05 DIIS
   @DF-RHF iter  13:  -344.59455702387328   -8.85900e-06   7.22686e-06 DIIS
   @DF-RHF iter  14:  -344.59455904385385   -2.01998e-06   2.65811e-06 DIIS
   @DF-RHF iter  15:  -344.59455931040276   -2.66549e-07   4.50729e-07 DIIS
   @DF-RHF iter  16:  -344.59455931600274   -5.59999e-09   1.58978e-07 DIIS
   @DF-RHF iter  17:  -344.59455931658232   -5.79575e-10   3.92412e-08 DIIS
   @DF-RHF iter  18:  -344.59455931662382   -4.14957e-11   1.46433e-08 DIIS
   @DF-RHF iter  19:  -344.59455931663132   -7.50333e-12   8.36564e-09 DIIS

  ==> Post-Iterations <==

    Orbital Energies (a.u.)
    -----------------------

    Doubly Occupied:                                                      

       1A    -20.587541     2A    -11.294975     3A    -11.241299  
       4A    -11.234572     5A    -11.222524     6A    -11.220021  
       7A    -11.216278     8A    -11.216046     9A     -1.406623  
      10A     -1.149230    11A     -1.042722    12A     -1.004433  
      13A     -0.935922    14A     -0.823061    15A     -0.822445  
      16A     -0.713241    17A     -0.680076    18A     -0.652929  
      19A     -0.609943    20A     -0.590527    21A     -0.572362  
      22A     -0.568489    23A     -0.561158    24A     -0.529646  
      25A     -0.504287    26A     -0.481343    27A     -0.466864  
      28A     -0.328672    29A     -0.306639  

    Virtual:                                                              

      30A      0.148019    31A      0.162334    32A      0.226446  
      33A      0.245801    34A      0.267685    35A      0.295377  
      36A      0.312461    37A      0.328692    38A      0.342662  
      39A      0.347284    40A      0.398325    41A      0.413691  
      42A      0.457398    43A      0.481128    44A      0.511733  
      45A      0.548627    46A      0.592757    47A      0.626019  
      48A      0.722036    49A      0.738783    50A      0.755104  
      51A      0.771537    52A      0.773209    53A      0.817002  
      54A      0.834631    55A      0.839385    56A      0.848988  
      57A      0.875752    58A      0.884023    59A      0.889518  
      60A      0.916040    61A      0.951756    62A      0.971634  
      63A      1.010182    64A      1.028569    65A      1.034471  
      66A      1.111588    67A      1.121977    68A      1.132604  
      69A      1.157735    70A      1.168160    71A      1.176487  
      72A      1.195616    73A      1.211112    74A      1.228497  
      75A      1.247276    76A      1.255127    77A      1.263957  
      78A      1.334078    79A      1.374899    80A      1.409487  
      81A      1.431922    82A      1.472961    83A      1.503353  
      84A      1.545361    85A      1.616404    86A      1.621166  
      87A      1.652543    88A      1.677605    89A      1.739181  
      90A      1.762740    91A      1.772322    92A      1.781287  
      93A      1.965008    94A      2.056429    95A      2.092707  
      96A      2.112443    97A      2.145197    98A      2.192101  
      99A      2.202657   100A      2.212572   101A      2.238805  
     102A      2.268197   103A      2.295493   104A      2.327241  
     105A      2.416314   106A      2.452384   107A      2.470358  
     108A      2.506850   109A      2.536760   110A      2.553977  
     111A      2.629162   112A      2.650423   113A      2.704578  
     114A      2.706537   115A      2.730489   116A      2.789893  
     117A      2.870664   118A      2.909464   119A      2.962677  
     120A      3.042476   121A      3.045390   122A      3.124717  
     123A      3.139790   124A      3.209546   125A      3.276760  
     126A      3.330191   127A      3.527624   128A      3.843637  
     129A      4.362151   130A      4.535782   131A      4.553145  
     132A      4.623394   133A      4.677765   134A      4.795196  
     135A      4.879410   136A      5.194987  

    Final Occupation by Irrep:
              A 
    DOCC [    29 ]

  Energy converged.

  @DF-RHF Final Energy:  -344.59455931663132

   => Energetics <=

    Nuclear Repulsion Energy =            345.5607020891079060
    One-Electron Energy =               -1152.3427907769594185
    Two-Electron Energy =                 462.1875293712204211
    DFT Exchange-Correlation Energy =       0.0000000000000000
    Empirical Dispersion Energy =           0.0000000000000000
    PCM Polarization Energy =               0.0000000000000000
    EFP Energy =                            0.0000000000000000
    Total Energy =                       -344.5945593166310346

    Alert: EFP and PCM quantities not currently incorporated into SCF psivars.

Properties will be evaluated at   0.000000,   0.000000,   0.000000 Bohr
  ==> Properties <==


Properties computed using the SCF density matrix

  Nuclear Dipole Moment: (a.u.)
     X:     5.0688      Y:     0.4258      Z:    -1.2121

  Electronic Dipole Moment: (a.u.)
     X:    -5.1977      Y:     0.0622      Z:     1.1650

  Dipole Moment: (a.u.)
     X:    -0.1289      Y:     0.4880      Z:    -0.0470     Total:     0.5069

  Dipole Moment: (Debye)
     X:    -0.3276      Y:     1.2404      Z:    -0.1195     Total:     1.2885


  Saving occupied orbitals to File 180.

*** tstop() called on cx1-1-2-4.cx1.hpc.ic.ac.uk at Fri Sep  2 11:28:04 2016
Module time:
	user time   =      16.58 seconds =       0.28 minutes
	system time =       0.18 seconds =       0.00 minutes
	total time  =          6 seconds =       0.10 minutes
Total time:
	user time   =      16.58 seconds =       0.28 minutes
	system time =       0.18 seconds =       0.00 minutes
	total time  =          6 seconds =       0.10 minutes

*** tstart() called on cx1-1-2-4.cx1.hpc.ic.ac.uk
*** at Fri Sep  2 11:28:04 2016


         ------------------------------------------------------------
                                   SCF GRAD                          
                          Rob Parrish, Justin Turney,                
                       Andy Simmonett, and Alex Sokolov              
         ------------------------------------------------------------

  ==> Geometry <==

    Molecular point group: c1
    Full point group: C1

    Geometry (in Angstrom), charge = 0, multiplicity = 1:

       Center              X                  Y                   Z               Mass       
    ------------   -----------------  -----------------  -----------------  -----------------
           H         -3.027639074998    -0.685852899204     0.144397695630     1.007825032070
           O         -2.230095074998    -1.196166899204     0.140867695630    15.994914619560
           C         -1.147221074998    -0.385327899204     0.141081695630    12.000000000000
           C         -1.209245074998     0.937130100796     0.541816695630    12.000000000000
           C          0.055829925002    -0.933764899204    -0.286372304370    12.000000000000
           H         -2.141568074998     1.364345100796     0.870806695630     1.007825032070
           C         -0.054218074998     1.705798100796     0.510654695630    12.000000000000
           H          0.067315925002    -1.963833899204    -0.592871304370     1.007825032070
           C          1.207341925002    -0.166780899204    -0.315840304370    12.000000000000
           H         -0.099336074998     2.735226100796     0.819334695630     1.007825032070
           C          1.143928925002     1.167211100796     0.087167695630    12.000000000000
           C          2.521041925002    -0.768544899204    -0.757625304370    12.000000000000
           H          2.030192925002     1.776662100796     0.066304695630     1.007825032070
           H          3.060651925002    -0.092163899204    -1.411934304370     1.007825032070
           H          2.370513925002    -1.701212899204    -1.288034304370     1.007825032070
           H          3.158148925002    -0.972832899204     0.098357695630     1.007825032070

  Nuclear repulsion =  345.560702089107906

  ==> Basis Set <==

  Basis Set: 6-31G*
    Number of shells: 64
    Number of basis function: 136
    Number of Cartesian functions: 136
    Spherical Harmonics?: false
    Max angular momentum: 2

  ==> DFJKGrad: Density-Fitted SCF Gradients <==

    Gradient:                    1
    J tasked:                  Yes
    K tasked:                  Yes
    wK tasked:                  No
    OpenMP threads:              4
    Integrals threads:           4
    Memory (MB):              1430
    Schwarz Cutoff:          0E+00
    Fitting Condition:       1E-12

   => Auxiliary Basis Set <=

  Basis Set: 
    Number of shells: 264
    Number of basis function: 848
    Number of Cartesian functions: 848
    Spherical Harmonics?: false
    Max angular momentum: 3


  -Total Gradient:
     Atom            X                  Y                   Z
    ------   -----------------  -----------------  -----------------
       1        0.000040823498     0.000039592791    -0.002047542243
       2        0.001775211889     0.000916972769     0.001444720965
       3       -0.001694764320    -0.001024757962     0.001781747546
       4        0.000341606550    -0.000153264068     0.000356546272
       5        0.000040114680    -0.000180768743    -0.001185668894
       6       -0.000106898190     0.000308955419    -0.000266108430
       7        0.000186475559    -0.000214524733     0.000317321180
       8        0.000107183836    -0.000104387807     0.000276641576
       9       -0.000709366307     0.000118428235    -0.000929938055
      10       -0.000007153595    -0.000018042163    -0.000007792010
      11        0.000101523634     0.000399146328     0.000064229436
      12        0.000005702962    -0.000148725724     0.000112819879
      13       -0.000023705444    -0.000008768726     0.000027229141
      14       -0.000064930804     0.000008745276     0.000040981545
      15       -0.000001829460     0.000053581608     0.000032318345
      16        0.000010005516     0.000007817499    -0.000017506254


*** tstop() called on cx1-1-2-4.cx1.hpc.ic.ac.uk at Fri Sep  2 11:28:09 2016
Module time:
	user time   =      19.53 seconds =       0.33 minutes
	system time =       0.17 seconds =       0.00 minutes
	total time  =          5 seconds =       0.08 minutes
Total time:
	user time   =      36.13 seconds =       0.60 minutes
	system time =       0.36 seconds =       0.01 minutes
	total time  =         11 seconds =       0.18 minutes
CURRENT ENERGY: -344.5945593166

			-----------------------------------------
			 OPTKING 2.0: for geometry optimizations 
			  - R.A. King,  Bethel University        
			-----------------------------------------

	Internal coordinates to be generated automatically.
	Detected frag with atoms:  1 2 3 4 5 6 7 8 9 10 11 12 13 14 15 16
	---Fragment 1 Bond Connectivity---
	 1 : 2
	 2 : 1 3
	 3 : 2 4 5
	 4 : 3 6 7
	 5 : 3 8 9
	 6 : 4
	 7 : 4 10 11
	 8 : 5
	 9 : 5 11 12
	 10 : 7
	 11 : 7 9 13
	 12 : 9 14 15 16
	 13 : 11
	 14 : 12
	 15 : 12
	 16 : 12

	Assuming in current code that numbering for constraints corresponds to unified fragment.
	Frozen dihedral atom list: 
	     5     3     2     1
	---Fragment 1 Geometry and Gradient---
	 H          -5.7214086810       -1.2960741469        0.2728720990
	 O          -4.2142689420       -2.2604278487        0.2662013657
	 C          -2.1679336456       -0.7281642009        0.2666057671
	 C          -2.2851420193        1.7709192414        1.0238851690
	 C           0.1055032683       -1.7645599320       -0.5411652273
	 H          -4.0469771567        2.5782385912        1.6455861694
	 C          -0.1024573132        3.2234912485        0.9649975232
	 H           0.1272086626       -3.7111082400       -1.1203643973
	 C           2.2815455870       -0.3151702237       -0.5968516770
	 H          -0.1877179769        5.1688282420        1.5483181859
	 C           2.1617123837        2.2057093198        0.1647230724
	 C           4.7640788078       -1.4523393803       -1.4317043366
	 H           3.8365086252        3.3574048012        0.1252977161
	 H           5.7837939263       -0.1741645288       -2.6681691529
	 H           4.4796221124       -3.2148264732       -2.4340320850
	 H           5.9680365551       -1.8383877526        0.1858691078
	             0.0000408235        0.0000395928       -0.0020475422
	             0.0017752119        0.0009169728        0.0014447210
	            -0.0016947643       -0.0010247580        0.0017817475
	             0.0003416065       -0.0001532641        0.0003565463
	             0.0000401147       -0.0001807687       -0.0011856689
	            -0.0001068982        0.0003089554       -0.0002661084
	             0.0001864756       -0.0002145247        0.0003173212
	             0.0001071838       -0.0001043878        0.0002766416
	            -0.0007093663        0.0001184282       -0.0009299381
	            -0.0000071536       -0.0000180422       -0.0000077920
	             0.0001015236        0.0003991463        0.0000642294
	             0.0000057030       -0.0001487257        0.0001128199
	            -0.0000237054       -0.0000087687        0.0000272291
	            -0.0000649308        0.0000087453        0.0000409815
	            -0.0000018295        0.0000535816        0.0000323183
	             0.0000100055        0.0000078175       -0.0000175063

	Previous optimization step data not found.  Starting new optimization.

	---Fragment 1 Intrafragment Coordinates---
	 - Coordinate -           - BOHR/RAD -       - ANG/DEG -
	 R(1,2)           =         1.789272	       0.946842
	 R(2,3)           =         2.556427	       1.352803
	 R(3,4)           =         2.613930	       1.383232
	 R(3,5)           =         2.625857	       1.389544
	 R(4,6)           =         2.035274	       1.077021
	 R(4,7)           =         2.622508	       1.387771
	 R(5,8)           =         2.031008	       1.074763
	 R(5,9)           =         2.615147	       1.383876
	 R(7,10)          =         2.032700	       1.075658
	 R(7,11)          =         2.608215	       1.380208
	 R(9,11)          =         2.636132	       1.394981
	 R(9,12)          =         2.855364	       1.510994
	 R(11,13)         =         2.032953	       1.075793
	 R(12,14)         =         2.049974	       1.084800
	 R(12,15)         =         2.047422	       1.083449
	 R(12,16)         =         2.053069	       1.086437
	 B(1,2,3)         =         1.929655	     110.561099
	 B(2,3,4)         =         2.137905	     122.492934
	 B(2,3,5)         =         2.044763	     117.156280
	 B(3,4,6)         =         2.101972	     120.434098
	 B(3,4,7)         =         2.077990	     119.060042
	 B(3,5,8)         =         2.066050	     118.375963
	 B(3,5,9)         =         2.103911	     120.545223
	 B(4,3,5)         =         2.100515	     120.350617
	 B(4,7,10)        =         2.081427	     119.256983
	 B(4,7,11)        =         2.109769	     120.880859
	 B(5,9,11)        =         2.078327	     119.079382
	 B(5,9,12)        =         2.104754	     120.593531
	 B(6,4,7)         =         2.103221	     120.505668
	 B(7,11,9)        =         2.095857	     120.083737
	 B(7,11,13)       =         2.094441	     120.002618
	 B(8,5,9)         =         2.113223	     121.078776
	 B(9,11,13)       =         2.092887	     119.913594
	 B(9,12,14)       =         1.939615	     111.131772
	 B(9,12,15)       =         1.944618	     111.418418
	 B(9,12,16)       =         1.933041	     110.755081
	 B(10,7,11)       =         2.091986	     119.861972
	 B(11,9,12)       =         2.099988	     120.320469
	 B(14,12,15)      =         1.886583	     108.093234
	 B(14,12,16)      =         1.876285	     107.503197
	 B(15,12,16)      =         1.881070	     107.777348
	 D(1,2,3,4)       =         0.346469	      19.851227
	*D(1,2,3,5)       =        -2.792527	    -159.999989
	 D(2,3,4,6)       =        -0.000269	      -0.015392
	 D(2,3,4,7)       =        -3.139093	    -179.856797
	 D(2,3,5,8)       =        -0.000020	      -0.001159
	 D(2,3,5,9)       =         3.140344	     179.928444
	 D(3,4,7,10)      =         3.139033	     179.853336
	 D(3,4,7,11)      =         0.000182	       0.010451
	 D(3,5,9,11)      =        -0.002359	      -0.135135
	 D(3,5,9,12)      =         3.122953	     178.932014
	 D(4,3,5,8)       =        -3.139075	    -179.855736
	 D(4,3,5,9)       =         0.001289	       0.073868
	 D(4,7,11,9)      =        -0.001281	      -0.073392
	 D(4,7,11,13)     =         3.138868	     179.843912
	 D(5,3,4,6)       =         3.138647	     179.831201
	 D(5,3,4,7)       =        -0.000178	      -0.010204
	 D(5,9,11,7)      =         0.002351	       0.134687
	 D(5,9,11,13)     =        -3.137800	    -179.782691
	 D(5,9,12,14)     =         2.394064	     137.169764
	 D(5,9,12,15)     =         0.288935	      16.554728
	 D(5,9,12,16)     =        -1.804752	    -103.404673
	 D(6,4,7,10)      =         0.000210	       0.012048
	 D(6,4,7,11)      =        -3.138640	    -179.830838
	 D(7,11,9,12)     =        -3.123006	    -178.935073
	 D(8,5,9,11)      =         3.137972	     179.792546
	 D(8,5,9,12)      =        -0.019902	      -1.140305
	 D(9,11,7,10)     =        -3.140115	    -179.915334
	 D(10,7,11,13)    =         0.000034	       0.001971
	 D(11,9,12,14)    =        -0.764012	     -43.774685
	 D(11,9,12,15)    =        -2.869142	    -164.389721
	 D(11,9,12,16)    =         1.320357	      75.650877
	 D(12,9,11,13)    =         0.020029	       1.147549

	Current energy   :      -344.5945593166

	Generating empirical Hessian (Schlegel '84) for each fragment.
	Taking RFO optimization step.
	Going to follow RFO solution 1.
	Using RFO vector 1.
	Norm of target step-size    0.04496
	Projected energy change by RFO approximation:        -0.0001078431

	Back-transformation to cartesian coordinates...
	Successfully converged to displaced geometry.

	Back-transformation to cartesian coordinates to adjust frozen coordinates...
	Successfully converged to displaced geometry.

	--- Internal Coordinate Step in ANG or DEG, aJ/ANG or AJ/DEG ---
	 ---------------------------------------------------------------------------
	   Coordinate                Previous        Force       Change         New 
	   ----------                --------       ------       ------       ------
	    1 R(1,2)          =      0.946842     0.000170     0.000019     0.946861
	    2 R(2,3)          =      1.352803     0.016699     0.001970     1.354774
	    3 R(3,4)          =      1.383232    -0.001580    -0.000214     1.383018
	    4 R(3,5)          =      1.389544    -0.001163    -0.000168     1.389376
	    5 R(4,6)          =      1.077021    -0.001102    -0.000195     1.076826
	    6 R(4,7)          =      1.387771    -0.000020     0.000002     1.387774
	    7 R(5,8)          =      1.074763    -0.000184    -0.000032     1.074731
	    8 R(5,9)          =      1.383876     0.002505     0.000328     1.384204
	    9 R(7,10)         =      1.075658     0.000158     0.000028     1.075686
	   10 R(7,11)         =      1.380208     0.001448     0.000199     1.380407
	   11 R(9,11)         =      1.394981    -0.001878    -0.000254     1.394727
	   12 R(9,12)         =      1.510994     0.000514     0.000106     1.511099
	   13 R(11,13)        =      1.075793     0.000206     0.000036     1.075829
	   14 R(12,14)        =      1.084800     0.000425     0.000077     1.084877
	   15 R(12,15)        =      1.083449     0.000508     0.000092     1.083541
	   16 R(12,16)        =      1.086437     0.000077     0.000014     1.086451
	   17 B(1,2,3)        =    110.561099     0.000007     0.033399   110.594498
	   18 B(2,3,4)        =    122.492934    -0.000062    -0.183440   122.309495
	   19 B(2,3,5)        =    117.156280     0.000064     0.196884   117.353164
	   20 B(3,4,6)        =    120.434098    -0.000015    -0.066919   120.367179
	   21 B(3,4,7)        =    119.060042     0.000002     0.001794   119.061836
	   22 B(3,5,8)        =    118.375963    -0.000010    -0.036853   118.339109
	   23 B(3,5,9)        =    120.545223     0.000014     0.041822   120.587045
	   24 B(4,3,5)        =    120.350617    -0.000002    -0.013278   120.337339
	   25 B(4,7,10)       =    119.256983     0.000002     0.008317   119.265300
	   26 B(4,7,11)       =    120.880859    -0.000003    -0.012139   120.868720
	   27 B(5,9,11)       =    119.079382    -0.000020    -0.060430   119.018953
	   28 B(5,9,12)       =    120.593531     0.000014     0.046761   120.640291
	   29 B(6,4,7)        =    120.505668     0.000013     0.064838   120.570506
	   30 B(7,11,9)       =    120.083737     0.000010     0.034116   120.117853
	   31 B(7,11,13)      =    120.002618    -0.000004    -0.011702   119.990916
	   32 B(8,5,9)        =    121.078776    -0.000004    -0.005289   121.073487
	   33 B(9,11,13)      =    119.913594    -0.000006    -0.022650   119.890944
	   34 B(9,12,14)      =    111.131772     0.000007     0.036590   111.168362
	   35 B(9,12,15)      =    111.418418     0.000000    -0.001890   111.416528
	   36 B(9,12,16)      =    110.755081    -0.000003    -0.016543   110.738538
	   37 B(10,7,11)      =    119.861972     0.000001     0.003144   119.865116
	   38 B(11,9,12)      =    120.320469     0.000006     0.020054   120.340522
	   39 B(14,12,15)     =    108.093234    -0.000003    -0.008903   108.084331
	   40 B(14,12,16)     =    107.503197    -0.000001    -0.001107   107.502090
	   41 B(15,12,16)     =    107.777348    -0.000000    -0.009281   107.768067
	   42 D(1,2,3,4)      =     19.851227     0.000001     0.132553    19.983781
	   43 *D(1,2,3,5)     =   -159.999989    -0.000000     0.000000  -159.999989
	   44 D(2,3,4,6)      =     -0.015392     0.000001     0.182290     0.166899
	   45 D(2,3,4,7)      =   -179.856797    -0.000002    -0.226695  -180.083492
	   46 D(2,3,5,8)      =     -0.001159     0.000004     0.632203     0.631044
	   47 D(2,3,5,9)      =    179.928444     0.000005     0.917965   180.846409
	   48 D(3,4,7,10)     =    179.853336     0.000000     0.012717   179.866054
	   49 D(3,4,7,11)     =      0.010451    -0.000003    -0.483175    -0.472724
	   50 D(3,5,9,11)     =     -0.135135    -0.000005    -0.900927    -1.036062
	   51 D(3,5,9,12)     =    178.932014    -0.000002    -0.143352   178.788662
	   52 D(4,3,5,8)      =   -179.855736     0.000003     0.502674  -179.353062
	   53 D(4,3,5,9)      =      0.073868     0.000005     0.788435     0.862303
	   54 D(4,7,11,9)     =     -0.073392     0.000003     0.363970     0.290578
	   55 D(4,7,11,13)    =    179.843912     0.000002     0.251425   180.095338
	   56 D(5,3,4,6)      =    179.831201     0.000002     0.318995   180.150195
	   57 D(5,3,4,7)      =     -0.010204    -0.000001    -0.089991    -0.100195
	   58 D(5,9,11,7)     =      0.134687     0.000001     0.328884     0.463571
	   59 D(5,9,11,13)    =   -179.782691     0.000002     0.441307  -179.341384
	   60 D(5,9,12,14)    =    137.169764    -0.000001    -0.348308   136.821456
	   61 D(5,9,12,15)    =     16.554728    -0.000002    -0.360750    16.193979
	   62 D(5,9,12,16)    =   -103.404673    -0.000001    -0.336681  -103.741354
	   63 D(6,4,7,10)     =      0.012048    -0.000002    -0.396908    -0.384860
	   64 D(6,4,7,11)     =   -179.830838    -0.000005    -0.892800  -180.723638
	   65 D(7,11,9,12)    =   -178.935073    -0.000002    -0.426619  -179.361692
	   66 D(8,5,9,11)     =    179.792546    -0.000003    -0.607297   179.185249
	   67 D(8,5,9,12)     =     -1.140305    -0.000000     0.150278    -0.990027
	   68 D(9,11,7,10)    =   -179.915334    -0.000001    -0.134884  -180.050218
	   69 D(10,7,11,13)   =      0.001971    -0.000001    -0.247429    -0.245458
	   70 D(11,9,12,14)   =    -43.774685     0.000002     0.418546   -43.356139
	   71 D(11,9,12,15)   =   -164.389721     0.000001     0.406105  -163.983617
	   72 D(11,9,12,16)   =     75.650877     0.000002     0.430173    76.081050
	   73 D(12,9,11,13)   =      1.147549    -0.000001    -0.314197     0.833352
	 ---------------------------------------------------------------------------

  ==> Convergence Check <==

  Measures of convergence in internal coordinates in au.
  Criteria marked as inactive (o), active & met (*), and active & unmet ( ).
  --------------------------------------------------------------------------------------------- ~
   Step     Total Energy     Delta E     MAX Force     RMS Force      MAX Disp      RMS Disp    ~
  --------------------------------------------------------------------------------------------- ~
    Convergence Criteria    1.00e-06 *    3.00e-04 *             o    1.20e-03 *             o  ~
  --------------------------------------------------------------------------------------------- ~
      1    -344.59455932   -3.45e+02      2.03e-03      3.02e-04 o    1.60e-02      5.26e-03 o  ~
  ---------------------------------------------------------------------------------------------

	Writing optimization data to binary file.
	Structure for next step:
	Cartesian Geometry (in Angstrom)
	    H    -3.0297362858  -0.6859826834   0.1538193448
	    O    -2.2322961043  -1.1964682594   0.1476124740
	    C    -1.1472478767  -0.3852917428   0.1389831456
	    C    -1.2097848466   0.9371963764   0.5387984978
	    C     0.0550201391  -0.9318792058  -0.2924788954
	    H    -2.1408191276   1.3606512679   0.8755701533
	    C    -0.0556909927   1.7071322030   0.5044233220
	    H     0.0647665449  -1.9598629025  -0.6058495751
	    C     1.2092725222  -0.1681079918  -0.3118332104
	    H    -0.1010612554   2.7367263718   0.8126089697
	    C     1.1442130845   1.1665278098   0.0878882810
	    C     2.5230102986  -0.7690090216  -0.7550398943
	    H     2.0306054287   1.7758970893   0.0682523353
	    H     3.0640012631  -0.0908941046  -1.4065356437
	    H     2.3722610110  -1.6997676924  -1.2889162022
	    H     3.1591304330  -0.9769768383   0.1008089336
			--------------------------
			 OPTKING Finished Execution 
			--------------------------

    Structure for next step:
    Molecular point group: c1
    Full point group: C1

    Geometry (in Angstrom), charge = 0, multiplicity = 1:

    H           -3.029566472176    -0.686027068942     0.153915522475
    O           -2.232126351646    -1.196512605951     0.147708652195
    C           -1.147078206840    -0.385336151334     0.139079324412
    C           -1.209615172018     0.937151866855     0.538894646101
    C            0.055189717095    -0.931923572593    -0.292382683666
    H           -2.140649381911     1.360606726040     0.875666275836
    C           -0.055521406221     1.707087634678     0.504519472923
    H            0.064936122207    -1.959907190809    -0.605753339425
    C            1.209442012076    -0.168152416950    -0.311736997135
    H           -0.100891665483     2.736681724845     0.812705097056
    C            1.144382579360     1.166483282784     0.087984463745
    C            2.523179688146    -0.769053400858    -0.754943647192
    H            2.030774855891     1.775852515742     0.068348519509
    H            3.064170611317    -0.090938535599    -1.406439346837
    H            2.372430412035    -1.699812000558    -1.288819914337
    H            3.159299773968    -0.977021201664     0.100905115340

gradient() will perform analytic gradient computation.

*** tstart() called on cx1-1-2-4.cx1.hpc.ic.ac.uk
*** at Fri Sep  2 11:28:10 2016


         ---------------------------------------------------------
                                   SCF
            by Justin Turney, Rob Parrish, and Andy Simmonett
                              RHF Reference
                        4 Threads,   2000 MiB Core
         ---------------------------------------------------------

  ==> Geometry <==

    Molecular point group: c1
    Full point group: C1

    Geometry (in Angstrom), charge = 0, multiplicity = 1:

       Center              X                  Y                   Z               Mass       
    ------------   -----------------  -----------------  -----------------  -----------------
           H         -3.029566472176    -0.686027068942     0.153915522475     1.007825032070
           O         -2.232126351646    -1.196512605951     0.147708652195    15.994914619560
           C         -1.147078206840    -0.385336151334     0.139079324412    12.000000000000
           C         -1.209615172018     0.937151866855     0.538894646101    12.000000000000
           C          0.055189717095    -0.931923572593    -0.292382683666    12.000000000000
           H         -2.140649381911     1.360606726040     0.875666275836     1.007825032070
           C         -0.055521406221     1.707087634678     0.504519472923    12.000000000000
           H          0.064936122207    -1.959907190809    -0.605753339425     1.007825032070
           C          1.209442012076    -0.168152416950    -0.311736997135    12.000000000000
           H         -0.100891665483     2.736681724845     0.812705097056     1.007825032070
           C          1.144382579360     1.166483282784     0.087984463745    12.000000000000
           C          2.523179688146    -0.769053400858    -0.754943647192    12.000000000000
           H          2.030774855891     1.775852515742     0.068348519509     1.007825032070
           H          3.064170611317    -0.090938535599    -1.406439346837     1.007825032070
           H          2.372430412035    -1.699812000558    -1.288819914337     1.007825032070
           H          3.159299773968    -0.977021201664     0.100905115340     1.007825032070

  Running in c1 symmetry.

  Rotational constants: A =      0.12412  B =      0.06047  C =      0.04098 [cm^-1]
  Rotational constants: A =   3721.10017  B =   1812.78926  C =   1228.62366 [MHz]
  Nuclear repulsion =  345.486796321052680

  Charge       = 0
  Multiplicity = 1
  Electrons    = 58
  Nalpha       = 29
  Nbeta        = 29

  ==> Algorithm <==

  SCF Algorithm Type is DF.
  DIIS enabled.
  MOM disabled.
  Fractional occupation disabled.
  Guess Type is READ.
  Energy threshold   = 1.00e-08
  Density threshold  = 1.00e-08
  Integral threshold = 0.00e+00

  ==> Primary Basis <==

  Basis Set: 6-31G*
    Number of shells: 64
    Number of basis function: 136
    Number of Cartesian functions: 136
    Spherical Harmonics?: false
    Max angular momentum: 2

  ==> Pre-Iterations <==

   -------------------------------------------------------
    Irrep   Nso     Nmo     Nalpha   Nbeta   Ndocc  Nsocc
   -------------------------------------------------------
     A        136     136       0       0       0       0
   -------------------------------------------------------
    Total     136     136      29      29      29       0
   -------------------------------------------------------

 OEINTS: Overlap, kinetic, potential, dipole, and quadrupole integrals
         stored in file 35.

  ==> Integral Setup <==

  ==> DFJK: Density-Fitted J/K Matrices <==

    J tasked:                  Yes
    K tasked:                  Yes
    wK tasked:                  No
    OpenMP threads:              4
    Integrals threads:           4
    Memory (MB):              1430
    Algorithm:                Core
    Integral Cache:           NONE
    Schwarz Cutoff:          1E-12
    Fitting Condition:       1E-12

   => Auxiliary Basis Set <=

  Basis Set: 
    Number of shells: 264
    Number of basis function: 848
    Number of Cartesian functions: 848
    Spherical Harmonics?: false
    Max angular momentum: 3

  Minimum eigenvalue in the overlap matrix is 4.1519263776E-04.
  Using Symmetric Orthogonalization.
  SCF Guess: Reading in previously saved MOs, projecting if necessary.

  Using orbitals from previous SCF, no projection.
  Recomputing DOCC and SOCC from number of alpha and beta electrons from previous calculation.
              A 
    DOCC [    29 ]

  ==> Iterations <==

                           Total Energy        Delta E     RMS |[F,P]|

   @DF-RHF iter   0:  -344.59358907500064   -3.44594e+02   1.44721e-04 
   @DF-RHF iter   1:  -344.59456665541404   -9.77580e-04   1.95469e-05 
   @DF-RHF iter   2:  -344.59457420279273   -7.54738e-06   7.29823e-06 DIIS
   @DF-RHF iter   3:  -344.59457542554799   -1.22276e-06   3.33601e-06 DIIS
   @DF-RHF iter   4:  -344.59457557569783   -1.50150e-07   7.56075e-07 DIIS
   @DF-RHF iter   5:  -344.59457559150246   -1.58046e-08   2.93205e-07 DIIS
   @DF-RHF iter   6:  -344.59457559419400   -2.69154e-09   1.25879e-07 DIIS
   @DF-RHF iter   7:  -344.59457559465204   -4.58044e-10   4.88576e-08 DIIS
   @DF-RHF iter   8:  -344.59457559477346   -1.21418e-10   2.18566e-08 DIIS
   @DF-RHF iter   9:  -344.59457559479767   -2.42153e-11   9.72170e-09 DIIS

  ==> Post-Iterations <==

    Orbital Energies (a.u.)
    -----------------------

    Doubly Occupied:                                                      

       1A    -20.587333     2A    -11.295001     3A    -11.241467  
       4A    -11.234651     5A    -11.222578     6A    -11.220187  
       7A    -11.216443     8A    -11.216307     9A     -1.405597  
      10A     -1.149349    11A     -1.042796    12A     -1.004502  
      13A     -0.936029    14A     -0.822930    15A     -0.822290  
      16A     -0.713126    17A     -0.680154    18A     -0.652792  
      19A     -0.609906    20A     -0.590216    21A     -0.572341  
      22A     -0.568567    23A     -0.560937    24A     -0.529608  
      25A     -0.504302    26A     -0.481585    27A     -0.466890  
      28A     -0.328728    29A     -0.306897  

    Virtual:                                                              

      30A      0.147843    31A      0.162219    32A      0.226521  
      33A      0.245823    34A      0.267609    35A      0.295239  
      36A      0.312390    37A      0.328781    38A      0.342554  
      39A      0.347222    40A      0.397947    41A      0.413472  
      42A      0.457085    43A      0.481253    44A      0.511873  
      45A      0.548399    46A      0.592458    47A      0.626462  
      48A      0.721912    49A      0.738449    50A      0.755159  
      51A      0.771095    52A      0.773776    53A      0.817074  
      54A      0.834898    55A      0.839078    56A      0.848892  
      57A      0.875693    58A      0.884033    59A      0.889314  
      60A      0.915865    61A      0.951314    62A      0.971685  
      63A      1.010559    64A      1.028015    65A      1.034811  
      66A      1.111650    67A      1.122081    68A      1.132438  
      69A      1.157933    70A      1.167828    71A      1.176562  
      72A      1.195412    73A      1.211948    74A      1.228538  
      75A      1.247156    76A      1.255231    77A      1.263675  
      78A      1.334044    79A      1.375219    80A      1.408959  
      81A      1.431210    82A      1.473102    83A      1.502622  
      84A      1.545431    85A      1.614967    86A      1.621463  
      87A      1.651476    88A      1.678470    89A      1.739993  
      90A      1.762825    91A      1.771396    92A      1.782095  
      93A      1.965454    94A      2.056227    95A      2.092576  
      96A      2.112208    97A      2.144360    98A      2.192605  
      99A      2.202770   100A      2.211624   101A      2.238403  
     102A      2.267454   103A      2.294902   104A      2.326983  
     105A      2.415647   106A      2.452450   107A      2.470049  
     108A      2.506602   109A      2.537447   110A      2.553694  
     111A      2.628828   112A      2.650722   113A      2.703530  
     114A      2.705910   115A      2.729617   116A      2.790666  
     117A      2.869875   118A      2.908232   119A      2.962724  
     120A      3.042111   121A      3.044418   122A      3.125179  
     123A      3.139860   124A      3.209158   125A      3.275393  
     126A      3.330137   127A      3.526816   128A      3.843249  
     129A      4.361890   130A      4.535609   131A      4.552862  
     132A      4.622616   133A      4.677432   134A      4.795219  
     135A      4.878760   136A      5.194696  

    Final Occupation by Irrep:
              A 
    DOCC [    29 ]

  Energy converged.

  @DF-RHF Final Energy:  -344.59457559479767

   => Energetics <=

    Nuclear Repulsion Energy =            345.4867963210526796
    One-Electron Energy =               -1152.1957243485371691
    Two-Electron Energy =                 462.1143524326869851
    DFT Exchange-Correlation Energy =       0.0000000000000000
    Empirical Dispersion Energy =           0.0000000000000000
    PCM Polarization Energy =               0.0000000000000000
    EFP Energy =                            0.0000000000000000
    Total Energy =                       -344.5945755947975044

    Alert: EFP and PCM quantities not currently incorporated into SCF psivars.

Properties will be evaluated at   0.000000,   0.000000,   0.000000 Bohr
  ==> Properties <==


Properties computed using the SCF density matrix

  Nuclear Dipole Moment: (a.u.)
     X:     5.0708      Y:     0.4250      Z:    -1.2081

  Electronic Dipole Moment: (a.u.)
     X:    -5.1944      Y:     0.0654      Z:     1.1621

  Dipole Moment: (a.u.)
     X:    -0.1235      Y:     0.4904      Z:    -0.0461     Total:     0.5078

  Dipole Moment: (Debye)
     X:    -0.3140      Y:     1.2464      Z:    -0.1171     Total:     1.2907


  Saving occupied orbitals to File 180.

*** tstop() called on cx1-1-2-4.cx1.hpc.ic.ac.uk at Fri Sep  2 11:28:15 2016
Module time:
	user time   =      14.68 seconds =       0.24 minutes
	system time =       0.15 seconds =       0.00 minutes
	total time  =          5 seconds =       0.08 minutes
Total time:
	user time   =      52.05 seconds =       0.87 minutes
	system time =       0.56 seconds =       0.01 minutes
	total time  =         17 seconds =       0.28 minutes

*** tstart() called on cx1-1-2-4.cx1.hpc.ic.ac.uk
*** at Fri Sep  2 11:28:15 2016


         ------------------------------------------------------------
                                   SCF GRAD                          
                          Rob Parrish, Justin Turney,                
                       Andy Simmonett, and Alex Sokolov              
         ------------------------------------------------------------

  ==> Geometry <==

    Molecular point group: c1
    Full point group: C1

    Geometry (in Angstrom), charge = 0, multiplicity = 1:

       Center              X                  Y                   Z               Mass       
    ------------   -----------------  -----------------  -----------------  -----------------
           H         -3.029566472176    -0.686027068942     0.153915522475     1.007825032070
           O         -2.232126351646    -1.196512605951     0.147708652195    15.994914619560
           C         -1.147078206840    -0.385336151334     0.139079324412    12.000000000000
           C         -1.209615172018     0.937151866855     0.538894646101    12.000000000000
           C          0.055189717095    -0.931923572593    -0.292382683666    12.000000000000
           H         -2.140649381911     1.360606726040     0.875666275836     1.007825032070
           C         -0.055521406221     1.707087634678     0.504519472923    12.000000000000
           H          0.064936122207    -1.959907190809    -0.605753339425     1.007825032070
           C          1.209442012076    -0.168152416950    -0.311736997135    12.000000000000
           H         -0.100891665483     2.736681724845     0.812705097056     1.007825032070
           C          1.144382579360     1.166483282784     0.087984463745    12.000000000000
           C          2.523179688146    -0.769053400858    -0.754943647192    12.000000000000
           H          2.030774855891     1.775852515742     0.068348519509     1.007825032070
           H          3.064170611317    -0.090938535599    -1.406439346837     1.007825032070
           H          2.372430412035    -1.699812000558    -1.288819914337     1.007825032070
           H          3.159299773968    -0.977021201664     0.100905115340     1.007825032070

  Nuclear repulsion =  345.486796321052680

  ==> Basis Set <==

  Basis Set: 6-31G*
    Number of shells: 64
    Number of basis function: 136
    Number of Cartesian functions: 136
    Spherical Harmonics?: false
    Max angular momentum: 2

  ==> DFJKGrad: Density-Fitted SCF Gradients <==

    Gradient:                    1
    J tasked:                  Yes
    K tasked:                  Yes
    wK tasked:                  No
    OpenMP threads:              4
    Integrals threads:           4
    Memory (MB):              1430
    Schwarz Cutoff:          0E+00
    Fitting Condition:       1E-12

   => Auxiliary Basis Set <=

  Basis Set: 
    Number of shells: 264
    Number of basis function: 848
    Number of Cartesian functions: 848
    Spherical Harmonics?: false
    Max angular momentum: 3


  -Total Gradient:
     Atom            X                  Y                   Z
    ------   -----------------  -----------------  -----------------
       1       -0.000144215113    -0.000108911631    -0.001947944257
       2        0.000053383167     0.000511677254     0.001943180316
       3       -0.000152795203    -0.000668431948     0.001492349150
       4       -0.000046988568    -0.000270460884     0.000102941729
       5        0.000151718409     0.000635461386    -0.001790967261
       6        0.000013952585     0.000000925727     0.000039250161
       7        0.000117792384     0.000070962218    -0.000524574027
       8       -0.000030991096     0.000043421505    -0.000001910869
       9        0.000015524280    -0.000431870688     0.000778669036
      10        0.000000285109    -0.000031318609     0.000132012860
      11       -0.000004470639     0.000195596722     0.000041035418
      12        0.000010725383     0.000027826054    -0.000169909174
      13       -0.000003389508    -0.000014889976    -0.000042445147
      14        0.000042039545     0.000000929804    -0.000030084507
      15        0.000011635759     0.000008683287    -0.000025915294
      16       -0.000034206488     0.000030399784     0.000004311866


*** tstop() called on cx1-1-2-4.cx1.hpc.ic.ac.uk at Fri Sep  2 11:28:21 2016
Module time:
	user time   =      21.13 seconds =       0.35 minutes
	system time =       0.19 seconds =       0.00 minutes
	total time  =          6 seconds =       0.10 minutes
Total time:
	user time   =      73.20 seconds =       1.22 minutes
	system time =       0.75 seconds =       0.01 minutes
	total time  =         23 seconds =       0.38 minutes
CURRENT ENERGY: -344.5945755948

			-----------------------------------------
			 OPTKING 2.0: for geometry optimizations 
			  - R.A. King,  Bethel University        
			-----------------------------------------

	Previous internal coordinate definitions found.
	---Fragment 1 Geometry and Gradient---
	 H          -5.7250509338       -1.2964032800        0.2908581851
	 O          -4.2181074986       -2.2610811398        0.2791289001
	 C          -2.1676636639       -0.7281797951        0.2628218339
	 C          -2.2858414013        1.7709603733        1.0183632956
	 C           0.1042934507       -1.7610803290       -0.5525231981
	 H          -4.0452410783        2.5711740868        1.6547694451
	 C          -0.1049202523        3.2259281144        0.9534036325
	 H           0.1227114871       -3.7036878365       -1.1447079156
	 C           2.2855141764       -0.3177620166       -0.5890975501
	 H          -0.1906576169        5.1715789728        1.5357900602
	 C           2.1625696662        2.2043339431        0.1662665404
	 C           4.7681185947       -1.4533003092       -1.4266367390
	 H           3.8376083152        3.3558749071        0.1291599835
	 H           5.7904432798       -0.1718489272       -2.6577851880
	 H           4.4832437481       -3.2121791584       -2.4355166727
	 H           5.9702113445       -1.8463024972        0.1906830334
	            -0.0001442151       -0.0001089116       -0.0019479443
	             0.0000533832        0.0005116773        0.0019431803
	            -0.0001527952       -0.0006684319        0.0014923491
	            -0.0000469886       -0.0002704609        0.0001029417
	             0.0001517184        0.0006354614       -0.0017909673
	             0.0000139526        0.0000009257        0.0000392502
	             0.0001177924        0.0000709622       -0.0005245740
	            -0.0000309911        0.0000434215       -0.0000019109
	             0.0000155243       -0.0004318707        0.0007786690
	             0.0000002851       -0.0000313186        0.0001320129
	            -0.0000044706        0.0001955967        0.0000410354
	             0.0000107254        0.0000278261       -0.0001699092
	            -0.0000033895       -0.0000148900       -0.0000424451
	             0.0000420395        0.0000009298       -0.0000300845
	             0.0000116358        0.0000086833       -0.0000259153
	            -0.0000342065        0.0000303998        0.0000043119

	---Fragment 1 Intrafragment Coordinates---
	 - Coordinate -           - BOHR/RAD -       - ANG/DEG -
	 R(1,2)           =         1.789307	       0.946861
	 R(2,3)           =         2.560151	       1.354774
	 R(3,4)           =         2.613525	       1.383018
	 R(3,5)           =         2.625540	       1.389376
	 R(4,6)           =         2.034906	       1.076826
	 R(4,7)           =         2.622512	       1.387774
	 R(5,8)           =         2.030947	       1.074731
	 R(5,9)           =         2.615766	       1.384204
	 R(7,10)          =         2.032752	       1.075686
	 R(7,11)          =         2.608592	       1.380407
	 R(9,11)          =         2.635651	       1.394727
	 R(9,12)          =         2.855564	       1.511099
	 R(11,13)         =         2.033022	       1.075829
	 R(12,14)         =         2.050120	       1.084877
	 R(12,15)         =         2.047595	       1.083541
	 R(12,16)         =         2.053095	       1.086451
	 B(1,2,3)         =         1.930238	     110.594498
	 B(2,3,4)         =         2.134703	     122.309495
	 B(2,3,5)         =         2.048199	     117.353164
	 B(3,4,6)         =         2.100804	     120.367179
	 B(3,4,7)         =         2.078021	     119.061836
	 B(3,5,8)         =         2.065407	     118.339109
	 B(3,5,9)         =         2.104641	     120.587045
	 B(4,3,5)         =         2.100283	     120.337339
	 B(4,7,10)        =         2.081572	     119.265300
	 B(4,7,11)        =         2.109557	     120.868720
	 B(5,9,11)        =         2.077273	     119.018953
	 B(5,9,12)        =         2.105570	     120.640291
	 B(6,4,7)         =         2.104352	     120.570506
	 B(7,11,9)        =         2.096452	     120.117853
	 B(7,11,13)       =         2.094237	     119.990916
	 B(8,5,9)         =         2.113131	     121.073487
	 B(9,11,13)       =         2.092492	     119.890944
	 B(9,12,14)       =         1.940254	     111.168362
	 B(9,12,15)       =         1.944585	     111.416528
	 B(9,12,16)       =         1.932752	     110.738538
	 B(10,7,11)       =         2.092041	     119.865116
	 B(11,9,12)       =         2.100338	     120.340522
	 B(14,12,15)      =         1.886427	     108.084331
	 B(14,12,16)      =         1.876265	     107.502090
	 B(15,12,16)      =         1.880908	     107.768067
	 D(1,2,3,4)       =         0.348783	      19.983781
	*D(1,2,3,5)       =        -2.792527	    -159.999989
	 D(2,3,4,6)       =         0.002913	       0.166899
	 D(2,3,4,7)       =         3.140135	     179.916508
	 D(2,3,5,8)       =         0.011014	       0.631044
	 D(2,3,5,9)       =        -3.126820	    -179.153591
	 D(3,4,7,10)      =         3.139255	     179.866054
	 D(3,4,7,11)      =        -0.008251	      -0.472724
	 D(3,5,9,11)      =        -0.018083	      -1.036062
	 D(3,5,9,12)      =         3.120451	     178.788662
	 D(4,3,5,8)       =        -3.130301	    -179.353062
	 D(4,3,5,9)       =         0.015050	       0.862303
	 D(4,7,11,9)      =         0.005072	       0.290578
	 D(4,7,11,13)     =        -3.139929	    -179.904662
	 D(5,3,4,6)       =        -3.138971	    -179.849805
	 D(5,3,4,7)       =        -0.001749	      -0.100195
	 D(5,9,11,7)      =         0.008091	       0.463571
	 D(5,9,11,13)     =        -3.130098	    -179.341384
	 D(5,9,12,14)     =         2.387985	     136.821456
	 D(5,9,12,15)     =         0.282638	      16.193979
	 D(5,9,12,16)     =        -1.810628	    -103.741354
	 D(6,4,7,10)      =        -0.006717	      -0.384860
	 D(6,4,7,11)      =         3.128963	     179.276362
	 D(7,11,9,12)     =        -3.130452	    -179.361692
	 D(8,5,9,11)      =         3.127373	     179.185249
	 D(8,5,9,12)      =        -0.017279	      -0.990027
	 D(9,11,7,10)     =         3.140716	     179.949782
	 D(10,7,11,13)    =        -0.004284	      -0.245458
	 D(11,9,12,14)    =        -0.756707	     -43.356139
	 D(11,9,12,15)    =        -2.862054	    -163.983617
	 D(11,9,12,16)    =         1.327865	      76.081050
	 D(12,9,11,13)    =         0.014545	       0.833352

	Current energy   :      -344.5945755948

	Energy change for the previous step:
		Projected    :        -0.0001078431
		Actual       :        -0.0000162782
	Energy ratio indicates iffy step: Trust radius decreased to 1.250e-01.


	Performing BFGS update.
	Previous computed or guess Hessian on step 1.
	Steps to be used in Hessian update: 1
	Taking RFO optimization step.
	Going to follow RFO solution 1.
	Using RFO vector 1.
	Norm of target step-size    0.01755
	Projected energy change by RFO approximation:        -0.0000200086

	Back-transformation to cartesian coordinates...
	Successfully converged to displaced geometry.

	Back-transformation to cartesian coordinates to adjust frozen coordinates...
	Successfully converged to displaced geometry.

	--- Internal Coordinate Step in ANG or DEG, aJ/ANG or AJ/DEG ---
	 ---------------------------------------------------------------------------
	   Coordinate                Previous        Force       Change         New 
	   ----------                --------       ------       ------       ------
	    1 R(1,2)          =      0.946861    -0.000412    -0.000032     0.946828
	    2 R(2,3)          =      1.354774     0.001388     0.000287     1.355061
	    3 R(3,4)          =      1.383018     0.001436     0.000120     1.383138
	    4 R(3,5)          =      1.389376    -0.003393    -0.000359     1.389017
	    5 R(4,6)          =      1.076826    -0.000005    -0.000017     1.076809
	    6 R(4,7)          =      1.387774    -0.001361    -0.000136     1.387638
	    7 R(5,8)          =      1.074731     0.000340     0.000042     1.074773
	    8 R(5,9)          =      1.384204     0.000946     0.000121     1.384325
	    9 R(7,10)         =      1.075686    -0.000065    -0.000006     1.075680
	   10 R(7,11)         =      1.380407     0.000686     0.000086     1.380494
	   11 R(9,11)         =      1.394727    -0.000426    -0.000062     1.394665
	   12 R(9,12)         =      1.511099    -0.000529    -0.000072     1.511027
	   13 R(11,13)        =      1.075829     0.000086     0.000014     1.075843
	   14 R(12,14)        =      1.084877    -0.000326    -0.000038     1.084839
	   15 R(12,15)        =      1.083541    -0.000030     0.000004     1.083545
	   16 R(12,16)        =      1.086451     0.000185     0.000026     1.086478
	   17 B(1,2,3)        =    110.594498    -0.000022    -0.073858   110.520641
	   18 B(2,3,4)        =    122.309495     0.000001    -0.013024   122.296471
	   19 B(2,3,5)        =    117.353164    -0.000015    -0.017129   117.336036
	   20 B(3,4,6)        =    120.367179     0.000000    -0.006411   120.360768
	   21 B(3,4,7)        =    119.061836    -0.000003    -0.005915   119.055921
	   22 B(3,5,8)        =    118.339109     0.000007     0.015535   118.354644
	   23 B(3,5,9)        =    120.587045    -0.000009    -0.018832   120.568213
	   24 B(4,3,5)        =    120.337339     0.000014     0.030085   120.367424
	   25 B(4,7,10)       =    119.265300     0.000006     0.016959   119.282259
	   26 B(4,7,11)       =    120.868720    -0.000008    -0.017913   120.850807
	   27 B(5,9,11)       =    119.018953     0.000002    -0.000587   119.018366
	   28 B(5,9,12)       =    120.640291    -0.000005    -0.009876   120.630415
	   29 B(6,4,7)        =    120.570506     0.000002     0.011862   120.582369
	   30 B(7,11,9)       =    120.117853     0.000004     0.017549   120.135402
	   31 B(7,11,13)      =    119.990916    -0.000004    -0.014820   119.976096
	   32 B(8,5,9)        =    121.073487     0.000003     0.003647   121.077134
	   33 B(9,11,13)      =    119.890944    -0.000000    -0.002656   119.888288
	   34 B(9,12,14)      =    111.168362    -0.000004    -0.009440   111.158922
	   35 B(9,12,15)      =    111.416528    -0.000002    -0.007749   111.408779
	   36 B(9,12,16)      =    110.738538     0.000005     0.016474   110.755012
	   37 B(10,7,11)      =    119.865116     0.000002     0.001787   119.866903
	   38 B(11,9,12)      =    120.340522     0.000004     0.007985   120.348507
	   39 B(14,12,15)     =    108.084331     0.000003     0.006731   108.091062
	   40 B(14,12,16)     =    107.502090     0.000000     0.002627   107.504717
	   41 B(15,12,16)     =    107.768067    -0.000002    -0.008476   107.759591
	   42 D(1,2,3,4)      =     19.983781    -0.000001    -0.079315    19.904466
	   43 *D(1,2,3,5)     =   -159.999989     0.000000    -0.000000  -159.999989
	   44 D(2,3,4,6)      =      0.166899     0.000000     0.066394     0.233292
	   45 D(2,3,4,7)      =    179.916508    -0.000000    -0.034335   179.882173
	   46 D(2,3,5,8)      =      0.631044    -0.000001    -0.078118     0.552926
	   47 D(2,3,5,9)      =   -179.153591    -0.000003    -0.261937  -179.415528
	   48 D(3,4,7,10)     =    179.866054    -0.000000    -0.011492   179.854562
	   49 D(3,4,7,11)     =     -0.472724     0.000002     0.262049    -0.210676
	   50 D(3,5,9,11)     =     -1.036062     0.000003     0.336119    -0.699943
	   51 D(3,5,9,12)     =    178.788662     0.000000    -0.085539   178.703123
	   52 D(4,3,5,8)      =   -179.353062    -0.000000    -0.000406  -179.353467
	   53 D(4,3,5,9)      =      0.862303    -0.000002    -0.184224     0.678079
	   54 D(4,7,11,9)     =      0.290578    -0.000001    -0.108908     0.181670
	   55 D(4,7,11,13)    =   -179.904662    -0.000001    -0.082307  -179.986969
	   56 D(5,3,4,6)      =   -179.849805    -0.000000    -0.015275  -179.865080
	   57 D(5,3,4,7)      =     -0.100195    -0.000001    -0.116004    -0.216199
	   58 D(5,9,11,7)     =      0.463571    -0.000001    -0.190367     0.273205
	   59 D(5,9,11,13)    =   -179.341384    -0.000002    -0.216920  -179.558305
	   60 D(5,9,12,14)    =    136.821456     0.000001     0.184584   137.006040
	   61 D(5,9,12,15)    =     16.193979     0.000001     0.187771    16.381750
	   62 D(5,9,12,16)    =   -103.741354     0.000001     0.192559  -103.548795
	   63 D(6,4,7,10)     =     -0.384860    -0.000001    -0.112497    -0.497357
	   64 D(6,4,7,11)     =    179.276362     0.000002     0.161043   179.437405
	   65 D(7,11,9,12)    =   -179.361692     0.000001     0.230103  -179.131589
	   66 D(8,5,9,11)     =    179.185249     0.000001     0.147222   179.332471
	   67 D(8,5,9,12)     =     -0.990027    -0.000002    -0.274436    -1.264462
	   68 D(9,11,7,10)    =    179.949782     0.000001     0.166271   180.116054
	   69 D(10,7,11,13)   =     -0.245458     0.000002     0.192872    -0.052586
	   70 D(11,9,12,14)   =    -43.356139    -0.000001    -0.242706   -43.598846
	   71 D(11,9,12,15)   =   -163.983617    -0.000001    -0.239520  -164.223136
	   72 D(11,9,12,16)   =     76.081050    -0.000001    -0.234732    75.846319
	   73 D(12,9,11,13)   =      0.833352     0.000001     0.203550     1.036902
	 ---------------------------------------------------------------------------

  ==> Convergence Check <==

  Measures of convergence in internal coordinates in au.
  Criteria marked as inactive (o), active & met (*), and active & unmet ( ).
  ---------------------------------------------------------------------------------------------
   Step     Total Energy     Delta E     MAX Force     RMS Force      MAX Disp      RMS Disp   
  ---------------------------------------------------------------------------------------------
    Convergence Criteria    1.00e-06 *    3.00e-04 *             o    1.20e-03 *             o
  ---------------------------------------------------------------------------------------------
      2    -344.59457559   -1.63e-05      4.12e-04      9.80e-05 o    5.87e-03      2.05e-03 o  ~
  ---------------------------------------------------------------------------------------------

	Writing optimization data to binary file.
	Structure for next step:
	Cartesian Geometry (in Angstrom)
	    H    -3.0286785666  -0.6848503298   0.1529540567
	    O    -2.2320710517  -1.1965772591   0.1469395452
	    C    -1.1465479365  -0.3855438326   0.1395709875
	    C    -1.2096139174   0.9372208328   0.5388044435
	    C     0.0553458632  -0.9324212380  -0.2914111739
	    H    -2.1409489021   1.3604699838   0.8749483719
	    C    -0.0552986607   1.7066715454   0.5065579167
	    H     0.0652351409  -1.9606060820  -0.6042596299
	    C     1.2087952321  -0.1673248514  -0.3145736796
	    H    -0.1006890066   2.7364772939   0.8140115389
	    C     1.1440584577   1.1665370887   0.0875596059
	    C     2.5229257661  -0.7688846011  -0.7554709436
	    H     2.0304853231   1.7758946630   0.0683393375
	    H     3.0643295222  -0.0917833880  -1.4076153500
	    H     2.3725911503  -1.7005535098  -1.2878818577
	    H     3.1584391378  -0.9755466478   0.1011778980
			--------------------------
			 OPTKING Finished Execution 
			--------------------------

    Structure for next step:
    Molecular point group: c1
    Full point group: C1

    Geometry (in Angstrom), charge = 0, multiplicity = 1:

    H           -3.028654026134    -0.684841077163     0.153099111011
    O           -2.232046571997    -1.196567967347     0.147084599905
    C           -1.146523539786    -0.385534602766     0.139716042797
    C           -1.209589515807     0.937229961614     0.538949468294
    C            0.055370168227    -0.932411966426    -0.291266085734
    H           -2.140924429431     1.360479080287     0.875093370984
    C           -0.055274347258     1.706680615436     0.506702943980
    H            0.065259445075    -1.960596731957    -0.604114517824
    C            1.208819449036    -0.167315638300    -0.314428589657
    H           -0.100664689752     2.736486285297     0.814156542664
    C            1.144082679491     1.166546199972     0.087704665194
    C            2.522949882625    -0.768875342053    -0.755325819971
    H            2.030509477283     1.775903727772     0.068484398204
    H            3.064353597354    -0.091774180611    -1.407470176604
    H            2.372615278373    -1.700544179574    -1.287736693362
    H            3.158463205767    -0.975537372983     0.101322956232

gradient() will perform analytic gradient computation.

*** tstart() called on cx1-1-2-4.cx1.hpc.ic.ac.uk
*** at Fri Sep  2 11:28:21 2016


         ---------------------------------------------------------
                                   SCF
            by Justin Turney, Rob Parrish, and Andy Simmonett
                              RHF Reference
                        4 Threads,   2000 MiB Core
         ---------------------------------------------------------

  ==> Geometry <==

    Molecular point group: c1
    Full point group: C1

    Geometry (in Angstrom), charge = 0, multiplicity = 1:

       Center              X                  Y                   Z               Mass       
    ------------   -----------------  -----------------  -----------------  -----------------
           H         -3.028654026134    -0.684841077163     0.153099111011     1.007825032070
           O         -2.232046571997    -1.196567967347     0.147084599905    15.994914619560
           C         -1.146523539786    -0.385534602766     0.139716042797    12.000000000000
           C         -1.209589515807     0.937229961614     0.538949468294    12.000000000000
           C          0.055370168227    -0.932411966426    -0.291266085734    12.000000000000
           H         -2.140924429431     1.360479080287     0.875093370984     1.007825032070
           C         -0.055274347258     1.706680615436     0.506702943980    12.000000000000
           H          0.065259445075    -1.960596731957    -0.604114517824     1.007825032070
           C          1.208819449036    -0.167315638300    -0.314428589657    12.000000000000
           H         -0.100664689752     2.736486285297     0.814156542664     1.007825032070
           C          1.144082679491     1.166546199972     0.087704665194    12.000000000000
           C          2.522949882625    -0.768875342053    -0.755325819971    12.000000000000
           H          2.030509477283     1.775903727772     0.068484398204     1.007825032070
           H          3.064353597354    -0.091774180611    -1.407470176604     1.007825032070
           H          2.372615278373    -1.700544179574    -1.287736693362     1.007825032070
           H          3.158463205767    -0.975537372983     0.101322956232     1.007825032070

  Running in c1 symmetry.

  Rotational constants: A =      0.12410  B =      0.06048  C =      0.04099 [cm^-1]
  Rotational constants: A =   3720.50585  B =   1813.13453  C =   1228.71915 [MHz]
  Nuclear repulsion =  345.492707045001055

  Charge       = 0
  Multiplicity = 1
  Electrons    = 58
  Nalpha       = 29
  Nbeta        = 29

  ==> Algorithm <==

  SCF Algorithm Type is DF.
  DIIS enabled.
  MOM disabled.
  Fractional occupation disabled.
  Guess Type is READ.
  Energy threshold   = 1.00e-08
  Density threshold  = 1.00e-08
  Integral threshold = 0.00e+00

  ==> Primary Basis <==

  Basis Set: 6-31G*
    Number of shells: 64
    Number of basis function: 136
    Number of Cartesian functions: 136
    Spherical Harmonics?: false
    Max angular momentum: 2

  ==> Pre-Iterations <==

   -------------------------------------------------------
    Irrep   Nso     Nmo     Nalpha   Nbeta   Ndocc  Nsocc
   -------------------------------------------------------
     A        136     136       0       0       0       0
   -------------------------------------------------------
    Total     136     136      29      29      29       0
   -------------------------------------------------------

 OEINTS: Overlap, kinetic, potential, dipole, and quadrupole integrals
         stored in file 35.

  ==> Integral Setup <==

  ==> DFJK: Density-Fitted J/K Matrices <==

    J tasked:                  Yes
    K tasked:                  Yes
    wK tasked:                  No
    OpenMP threads:              4
    Integrals threads:           4
    Memory (MB):              1430
    Algorithm:                Core
    Integral Cache:           NONE
    Schwarz Cutoff:          1E-12
    Fitting Condition:       1E-12

   => Auxiliary Basis Set <=

  Basis Set: 
    Number of shells: 264
    Number of basis function: 848
    Number of Cartesian functions: 848
    Spherical Harmonics?: false
    Max angular momentum: 3

  Minimum eigenvalue in the overlap matrix is 4.1512185806E-04.
  Using Symmetric Orthogonalization.
  SCF Guess: Reading in previously saved MOs, projecting if necessary.

  Using orbitals from previous SCF, no projection.
  Recomputing DOCC and SOCC from number of alpha and beta electrons from previous calculation.
              A 
    DOCC [    29 ]

  ==> Iterations <==

                           Total Energy        Delta E     RMS |[F,P]|

   @DF-RHF iter   0:  -344.59453548862911   -3.44595e+02   4.53811e-05 
   @DF-RHF iter   1:  -344.59457874677736   -4.32581e-05   6.22695e-06 
   @DF-RHF iter   2:  -344.59457950465384   -7.57876e-07   2.18302e-06 DIIS
   @DF-RHF iter   3:  -344.59457961409197   -1.09438e-07   8.48453e-07 DIIS
   @DF-RHF iter   4:  -344.59457962431128   -1.02193e-08   2.26774e-07 DIIS
   @DF-RHF iter   5:  -344.59457962580876   -1.49748e-09   9.35998e-08 DIIS
   @DF-RHF iter   6:  -344.59457962614891   -3.40151e-10   3.63974e-08 DIIS
   @DF-RHF iter   7:  -344.59457962620553   -5.66160e-11   1.61323e-08 DIIS
   @DF-RHF iter   8:  -344.59457962622122   -1.56888e-11   6.11504e-09 DIIS

  ==> Post-Iterations <==

    Orbital Energies (a.u.)
    -----------------------

    Doubly Occupied:                                                      

       1A    -20.587294     2A    -11.294978     3A    -11.241489  
       4A    -11.234690     5A    -11.222630     6A    -11.220195  
       7A    -11.216462     8A    -11.216306     9A     -1.405506  
      10A     -1.149393    11A     -1.042835    12A     -1.004543  
      13A     -0.936053    14A     -0.822877    15A     -0.822290  
      16A     -0.713055    17A     -0.680181    18A     -0.652749  
      19A     -0.609967    20A     -0.590169    21A     -0.572351  
      22A     -0.568620    23A     -0.560964    24A     -0.529660  
      25A     -0.504269    26A     -0.481716    27A     -0.466879  
      28A     -0.328771    29A     -0.306923  

    Virtual:                                                              

      30A      0.147796    31A      0.162198    32A      0.226544  
      33A      0.245807    34A      0.267598    35A      0.295207  
      36A      0.312369    37A      0.328771    38A      0.342570  
      39A      0.347196    40A      0.398047    41A      0.413480  
      42A      0.456964    43A      0.481316    44A      0.511828  
      45A      0.548295    46A      0.592354    47A      0.626310  
      48A      0.721885    49A      0.738545    50A      0.755094  
      51A      0.771209    52A      0.773336    53A      0.816943  
      54A      0.834761    55A      0.839112    56A      0.849028  
      57A      0.875278    58A      0.884195    59A      0.889313  
      60A      0.915882    61A      0.951348    62A      0.971743  
      63A      1.010502    64A      1.028135    65A      1.034823  
      66A      1.111593    67A      1.122062    68A      1.132407  
      69A      1.157777    70A      1.167948    71A      1.176665  
      72A      1.195440    73A      1.211634    74A      1.228522  
      75A      1.247130    76A      1.255198    77A      1.263819  
      78A      1.334252    79A      1.375309    80A      1.409130  
      81A      1.431494    82A      1.472803    83A      1.503044  
      84A      1.544909    85A      1.615131    86A      1.622235  
      87A      1.651552    88A      1.678097    89A      1.738583  
      90A      1.763497    91A      1.771545    92A      1.781726  
      93A      1.965101    94A      2.056487    95A      2.092744  
      96A      2.112089    97A      2.144372    98A      2.192455  
      99A      2.202804   100A      2.211811   101A      2.238483  
     102A      2.267508   103A      2.295024   104A      2.326812  
     105A      2.415872   106A      2.452468   107A      2.470220  
     108A      2.506710   109A      2.536780   110A      2.553922  
     111A      2.628831   112A      2.650012   113A      2.703978  
     114A      2.706109   115A      2.730016   116A      2.790189  
     117A      2.869479   118A      2.908288   119A      2.962661  
     120A      3.042667   121A      3.043857   122A      3.125148  
     123A      3.139696   124A      3.209160   125A      3.275303  
     126A      3.330130   127A      3.526752   128A      3.843377  
     129A      4.361738   130A      4.535597   131A      4.552874  
     132A      4.622495   133A      4.677414   134A      4.795137  
     135A      4.878650   136A      5.194654  

    Final Occupation by Irrep:
              A 
    DOCC [    29 ]

  Energy converged.

  @DF-RHF Final Energy:  -344.59457962622122

   => Energetics <=

    Nuclear Repulsion Energy =            345.4927070450010547
    One-Electron Energy =               -1152.2069396820716065
    Two-Electron Energy =                 462.1196530108495040
    DFT Exchange-Correlation Energy =       0.0000000000000000
    Empirical Dispersion Energy =           0.0000000000000000
    PCM Polarization Energy =               0.0000000000000000
    EFP Energy =                            0.0000000000000000
    Total Energy =                       -344.5945796262211047

    Alert: EFP and PCM quantities not currently incorporated into SCF psivars.

Properties will be evaluated at   0.000000,   0.000000,   0.000000 Bohr
  ==> Properties <==


Properties computed using the SCF density matrix

  Nuclear Dipole Moment: (a.u.)
     X:     5.0713      Y:     0.4251      Z:    -1.2060

  Electronic Dipole Moment: (a.u.)
     X:    -5.1932      Y:     0.0663      Z:     1.1603

  Dipole Moment: (a.u.)
     X:    -0.1220      Y:     0.4914      Z:    -0.0457     Total:     0.5084

  Dipole Moment: (Debye)
     X:    -0.3101      Y:     1.2491      Z:    -0.1161     Total:     1.2922


  Saving occupied orbitals to File 180.

*** tstop() called on cx1-1-2-4.cx1.hpc.ic.ac.uk at Fri Sep  2 11:28:26 2016
Module time:
	user time   =      14.11 seconds =       0.24 minutes
	system time =       0.17 seconds =       0.00 minutes
	total time  =          5 seconds =       0.08 minutes
Total time:
	user time   =      87.82 seconds =       1.46 minutes
	system time =       0.94 seconds =       0.02 minutes
	total time  =         28 seconds =       0.47 minutes

*** tstart() called on cx1-1-2-4.cx1.hpc.ic.ac.uk
*** at Fri Sep  2 11:28:26 2016


         ------------------------------------------------------------
                                   SCF GRAD                          
                          Rob Parrish, Justin Turney,                
                       Andy Simmonett, and Alex Sokolov              
         ------------------------------------------------------------

  ==> Geometry <==

    Molecular point group: c1
    Full point group: C1

    Geometry (in Angstrom), charge = 0, multiplicity = 1:

       Center              X                  Y                   Z               Mass       
    ------------   -----------------  -----------------  -----------------  -----------------
           H         -3.028654026134    -0.684841077163     0.153099111011     1.007825032070
           O         -2.232046571997    -1.196567967347     0.147084599905    15.994914619560
           C         -1.146523539786    -0.385534602766     0.139716042797    12.000000000000
           C         -1.209589515807     0.937229961614     0.538949468294    12.000000000000
           C          0.055370168227    -0.932411966426    -0.291266085734    12.000000000000
           H         -2.140924429431     1.360479080287     0.875093370984     1.007825032070
           C         -0.055274347258     1.706680615436     0.506702943980    12.000000000000
           H          0.065259445075    -1.960596731957    -0.604114517824     1.007825032070
           C          1.208819449036    -0.167315638300    -0.314428589657    12.000000000000
           H         -0.100664689752     2.736486285297     0.814156542664     1.007825032070
           C          1.144082679491     1.166546199972     0.087704665194    12.000000000000
           C          2.522949882625    -0.768875342053    -0.755325819971    12.000000000000
           H          2.030509477283     1.775903727772     0.068484398204     1.007825032070
           H          3.064353597354    -0.091774180611    -1.407470176604     1.007825032070
           H          2.372615278373    -1.700544179574    -1.287736693362     1.007825032070
           H          3.158463205767    -0.975537372983     0.101322956232     1.007825032070

  Nuclear repulsion =  345.492707045001055

  ==> Basis Set <==

  Basis Set: 6-31G*
    Number of shells: 64
    Number of basis function: 136
    Number of Cartesian functions: 136
    Spherical Harmonics?: false
    Max angular momentum: 2

  ==> DFJKGrad: Density-Fitted SCF Gradients <==

    Gradient:                    1
    J tasked:                  Yes
    K tasked:                  Yes
    wK tasked:                  No
    OpenMP threads:              4
    Integrals threads:           4
    Memory (MB):              1430
    Schwarz Cutoff:          0E+00
    Fitting Condition:       1E-12

   => Auxiliary Basis Set <=

  Basis Set: 
    Number of shells: 264
    Number of basis function: 848
    Number of Cartesian functions: 848
    Spherical Harmonics?: false
    Max angular momentum: 3


  -Total Gradient:
     Atom            X                  Y                   Z
[...]
	user time   =      21.63 seconds =       0.36 minutes
	system time =       0.19 seconds =       0.00 minutes
	total time  =          5 seconds =       0.08 minutes
Total time:
	user time   =     143.85 seconds =       2.40 minutes
	system time =       1.45 seconds =       0.02 minutes
	total time  =         44 seconds =       0.73 minutes
CURRENT ENERGY: -344.5945799070

			-----------------------------------------
			 OPTKING 2.0: for geometry optimizations 
			  - R.A. King,  Bethel University        
			-----------------------------------------

	Previous internal coordinate definitions found.
	---Fragment 1 Geometry and Gradient---
	 H          -5.7229108803       -1.2933811666        0.2873124447
	 O          -4.2179593463       -2.2610602815        0.2765716270
	 C          -2.1663202523       -0.7285087416        0.2639263321
	 C          -2.2855431060        1.7710040030        1.0195164010
	 C           0.1046776625       -1.7624258327       -0.5494898654
	 H          -4.0458111522        2.5708278918        1.6539723342
	 C          -0.1046356525        3.2253326988        0.9574808710
	 H           0.1235933902       -3.7055133977       -1.1403710531
	 C           2.2844963461       -0.3163984304       -0.5929956540
	 H          -0.1902284210        5.1715234462        1.5379506796
	 C           2.1618092450        2.2045277850        0.1652410463
	 C           4.7673937747       -1.4528013538       -1.4276962206
	 H           3.8367312903        3.3563281218        0.1281272663
	 H           5.7903337619       -0.1728288503       -2.6597604749
	 H           4.4829519681       -3.2129796766       -2.4344551950
	 H           5.9685499989       -1.8440787325        0.1907549620
	             0.0000026969        0.0000107825       -0.0019575398
	            -0.0001246921        0.0001551302        0.0018115856
	             0.0003901188       -0.0005014352        0.0014665311
	            -0.0000239831       -0.0000650054       -0.0000071882
	            -0.0002224627        0.0004101564       -0.0013184968
	             0.0000034041        0.0000023747        0.0000034416
	             0.0000904390        0.0000093653        0.0000032531
	            -0.0000086212       -0.0000065952       -0.0000128247
	            -0.0000280706       -0.0001079209        0.0000285268
	            -0.0000097841        0.0000039687       -0.0000101350
	            -0.0000601320        0.0000765541        0.0000050351
	            -0.0000052829        0.0000130772       -0.0000107189
	             0.0000033571       -0.0000027845        0.0000025222
	             0.0000034358        0.0000007061       -0.0000053371
	            -0.0000008892       -0.0000044656        0.0000006325
	            -0.0000095338        0.0000060917        0.0000007124

	---Fragment 1 Intrafragment Coordinates---
	 - Coordinate -           - BOHR/RAD -       - ANG/DEG -
	 R(1,2)           =         1.789245	       0.946828
	 R(2,3)           =         2.560878	       1.355158
	 R(3,4)           =         2.613942	       1.383239
	 R(3,5)           =         2.624512	       1.388832
	 R(4,6)           =         2.034895	       1.076820
	 R(4,7)           =         2.622075	       1.387542
	 R(5,8)           =         2.031031	       1.074775
	 R(5,9)           =         2.616199	       1.384433
	 R(7,10)          =         2.032715	       1.075666
	 R(7,11)          =         2.608919	       1.380581
	 R(9,11)          =         2.635345	       1.394565
	 R(9,12)          =         2.855331	       1.510976
	 R(11,13)         =         2.033073	       1.075856
	 R(12,14)         =         2.050053	       1.084842
	 R(12,15)         =         2.047608	       1.083548
	 R(12,16)         =         2.053109	       1.086459
	 B(1,2,3)         =         1.928605	     110.500954
	 B(2,3,4)         =         2.134454	     122.295211
	 B(2,3,5)         =         2.047675	     117.323160
	 B(3,4,6)         =         2.100675	     120.359795
	 B(3,4,7)         =         2.077837	     119.051275
	 B(3,5,8)         =         2.065890	     118.366806
	 B(3,5,9)         =         2.104102	     120.556155
	 B(4,3,5)         =         2.101055	     120.381587
	 B(4,7,10)        =         2.082037	     119.291947
	 B(4,7,11)        =         2.109157	     120.845783
	 B(5,9,11)        =         2.077330	     119.022262
	 B(5,9,12)        =         2.105289	     120.624178
	 B(6,4,7)         =         2.104664	     120.588381
	 B(7,11,9)        =         2.096822	     120.139063
	 B(7,11,13)       =         2.093894	     119.971275
	 B(8,5,9)         =         2.113193	     121.077035
	 B(9,11,13)       =         2.092467	     119.889508
	 B(9,12,14)       =         1.940238	     111.167422
	 B(9,12,15)       =         1.944496	     111.411431
	 B(9,12,16)       =         1.932790	     110.740712
	 B(10,7,11)       =         2.091991	     119.862233
	 B(11,9,12)       =         2.100531	     120.351578
	 B(14,12,15)      =         1.886557	     108.091771
	 B(14,12,16)      =         1.876349	     107.506903
	 B(15,12,16)      =         1.880765	     107.759917
	 D(1,2,3,4)       =         0.347768	      19.925612
	*D(1,2,3,5)       =        -2.792527	    -159.999989
	 D(2,3,4,6)       =         0.003704	       0.212242
	 D(2,3,4,7)       =         3.140620	     179.944266
	 D(2,3,5,8)       =         0.009295	       0.532538
	 D(2,3,5,9)       =        -3.131891	    -179.444153
	 D(3,4,7,10)      =         3.138288	     179.810672
	 D(3,4,7,11)      =        -0.004512	      -0.258512
	 D(3,5,9,11)      =        -0.012605	      -0.722187
	 D(3,5,9,12)      =         3.120081	     178.767480
	 D(4,3,5,8)       =        -3.131026	    -179.394561
	 D(4,3,5,9)       =         0.010974	       0.628749
	 D(4,7,11,9)      =         0.002762	       0.158248
	 D(4,7,11,13)     =        -3.141324	    -179.984627
	 D(5,3,4,6)       =        -3.139226	    -179.864379
	 D(5,3,4,7)       =        -0.002310	      -0.132355
	 D(5,9,11,7)      =         0.005786	       0.331532
	 D(5,9,11,13)     =        -3.133315	    -179.525710
	 D(5,9,12,14)     =         2.391125	     137.001387
	 D(5,9,12,15)     =         0.285685	      16.368564
	 D(5,9,12,16)     =        -1.807368	    -103.554563
	 D(6,4,7,10)      =        -0.007992	      -0.457934
	 D(6,4,7,11)      =         3.132393	     179.472881
	 D(7,11,9,12)     =        -3.126924	    -179.159562
	 D(8,5,9,11)      =         3.129406	     179.301761
	 D(8,5,9,12)      =        -0.021094	      -1.208573
	 D(9,11,7,10)     =        -3.140045	    -179.911329
	 D(10,7,11,13)    =        -0.000946	      -0.054204
	 D(11,9,12,14)    =        -0.759493	     -43.515742
	 D(11,9,12,15)    =        -2.864933	    -164.148565
	 D(11,9,12,16)    =         1.325199	      75.928308
	 D(12,9,11,13)    =         0.017160	       0.983195

	Current energy   :      -344.5945799070

	Energy change for the previous step:
		Projected    :        -0.0000001297
		Actual       :        -0.0000002808
	Energy ratio indicates good step: Trust radius increased to 9.375e-02.


	Performing BFGS update.
	Previous computed or guess Hessian on step 1.
	Steps to be used in Hessian update: 3 2
	Taking RFO optimization step.
	Going to follow RFO solution 1.
	Rejecting RFO root 1 because normalization gives large value.
	Using RFO vector 2.
	Norm of target step-size    0.00224
	Projected energy change by RFO approximation:        -0.0000000957

	Back-transformation to cartesian coordinates...
	Successfully converged to displaced geometry.

	Back-transformation to cartesian coordinates to adjust frozen coordinates...
	Successfully converged to displaced geometry.

	--- Internal Coordinate Step in ANG or DEG, aJ/ANG or AJ/DEG ---
	 ---------------------------------------------------------------------------
	   Coordinate                Previous        Force       Change         New 
	   ----------                --------       ------       ------       ------
	    1 R(1,2)          =      0.946828     0.000067     0.000007     0.946835
	    2 R(2,3)          =      1.355158     0.000019     0.000025     1.355183
	    3 R(3,4)          =      1.383239     0.000282     0.000055     1.383294
	    4 R(3,5)          =      1.388832    -0.000193    -0.000060     1.388772
	    5 R(4,6)          =      1.076820     0.000008     0.000003     1.076823
	    6 R(4,7)          =      1.387542    -0.000326    -0.000061     1.387482
	    7 R(5,8)          =      1.074775    -0.000082    -0.000013     1.074762
	    8 R(5,9)          =      1.384433     0.000465     0.000081     1.384514
	    9 R(7,10)         =      1.075666    -0.000011    -0.000004     1.075662
	   10 R(7,11)         =      1.380581     0.000438     0.000072     1.380652
	   11 R(9,11)         =      1.394565    -0.000467    -0.000082     1.394483
	   12 R(9,12)         =      1.510976     0.000103     0.000011     1.510988
	   13 R(11,13)        =      1.075856    -0.000009     0.000001     1.075857
	   14 R(12,14)        =      1.084842    -0.000044    -0.000007     1.084834
	   15 R(12,15)        =      1.083548    -0.000030    -0.000005     1.083543
	   16 R(12,16)        =      1.086459     0.000051     0.000006     1.086464
	   17 B(1,2,3)        =    110.500954     0.000002     0.006485   110.507439
	   18 B(2,3,4)        =    122.295211    -0.000001    -0.003436   122.291775
	   19 B(2,3,5)        =    117.323160     0.000001     0.001111   117.324271
	   20 B(3,4,6)        =    120.359795    -0.000000    -0.001146   120.358649
	   21 B(3,4,7)        =    119.051275    -0.000000    -0.002254   119.049021
	   22 B(3,5,8)        =    118.366806     0.000000     0.004109   118.370914
	   23 B(3,5,9)        =    120.556155     0.000000    -0.001495   120.554660
	   24 B(4,3,5)        =    120.381587    -0.000000     0.002322   120.383909
	   25 B(4,7,10)       =    119.291947     0.000000     0.003239   119.295186
	   26 B(4,7,11)       =    120.845783     0.000001     0.001329   120.847112
	   27 B(5,9,11)       =    119.022262    -0.000000     0.000196   119.022458
	   28 B(5,9,12)       =    120.624178    -0.000001    -0.002761   120.621417
	   29 B(6,4,7)        =    120.588381     0.000001     0.003401   120.591782
	   30 B(7,11,9)       =    120.139063    -0.000000    -0.000052   120.139011
	   31 B(7,11,13)      =    119.971275    -0.000000    -0.001630   119.969645
	   32 B(8,5,9)        =    121.077035    -0.000001    -0.002623   121.074412
	   33 B(9,11,13)      =    119.889508     0.000000     0.001666   119.891174
	   34 B(9,12,14)      =    111.167422    -0.000001    -0.001214   111.166208
	   35 B(9,12,15)      =    111.411431    -0.000000     0.000024   111.411456
	   36 B(9,12,16)      =    110.740712     0.000001     0.003161   110.743873
	   37 B(10,7,11)      =    119.862233    -0.000001    -0.004595   119.857639
	   38 B(11,9,12)      =    120.351578     0.000001     0.002347   120.353926
	   39 B(14,12,15)     =    108.091771     0.000000    -0.000778   108.090993
	   40 B(14,12,16)     =    107.506903    -0.000000    -0.000651   107.506252
	   41 B(15,12,16)     =    107.759917    -0.000000    -0.000635   107.759282
	   42 D(1,2,3,4)      =     19.925612    -0.000000    -0.002049    19.923563
	   43 *D(1,2,3,5)     =   -159.999989     0.000000    -0.000000  -159.999989
	   44 D(2,3,4,6)      =      0.212242    -0.000000    -0.004189     0.208053
	   45 D(2,3,4,7)      =    179.944266    -0.000000    -0.003992   179.940274
	   46 D(2,3,5,8)      =      0.532538    -0.000000    -0.019905     0.512632
	   47 D(2,3,5,9)      =   -179.444153     0.000000    -0.000337  -179.444490
	   48 D(3,4,7,10)     =    179.810672     0.000000     0.020405   179.831077
	   49 D(3,4,7,11)     =     -0.258512     0.000000    -0.001500    -0.260013
	   50 D(3,5,9,11)     =     -0.722187     0.000000     0.010186    -0.712001
	   51 D(3,5,9,12)     =    178.767480    -0.000000    -0.017079   178.750400
	   52 D(4,3,5,8)      =   -179.394561    -0.000000    -0.017893  -179.412454
	   53 D(4,3,5,9)      =      0.628749     0.000000     0.001675     0.630424
	   54 D(4,7,11,9)     =      0.158248     0.000000     0.013484     0.171732
	   55 D(4,7,11,13)    =   -179.984627     0.000000     0.006519  -179.978108
	   56 D(5,3,4,6)      =   -179.864379    -0.000000    -0.006300  -179.870679
	   57 D(5,3,4,7)      =     -0.132355    -0.000000    -0.006103    -0.138458
	   58 D(5,9,11,7)     =      0.331532    -0.000000    -0.017675     0.313857
	   59 D(5,9,11,13)    =   -179.525710    -0.000000    -0.010711  -179.536421
	   60 D(5,9,12,14)    =    137.001387     0.000000     0.054794   137.056181
	   61 D(5,9,12,15)    =     16.368564     0.000000     0.056599    16.425162
	   62 D(5,9,12,16)    =   -103.554563     0.000000     0.055265  -103.499298
	   63 D(6,4,7,10)     =     -0.457934     0.000000     0.020589    -0.437345
	   64 D(6,4,7,11)     =    179.472881    -0.000000    -0.001316   179.471566
	   65 D(7,11,9,12)    =   -179.159562     0.000000     0.009542  -179.150020
	   66 D(8,5,9,11)     =    179.301761     0.000000     0.030287   179.332047
	   67 D(8,5,9,12)     =     -1.208573     0.000000     0.003021    -1.205551
	   68 D(9,11,7,10)    =   -179.911329    -0.000000    -0.008538  -179.919867
	   69 D(10,7,11,13)   =     -0.054204    -0.000000    -0.015503    -0.069706
	   70 D(11,9,12,14)   =    -43.515742    -0.000000     0.027154   -43.488588
	   71 D(11,9,12,15)   =   -164.148565    -0.000000     0.028958  -164.119607
	   72 D(11,9,12,16)   =     75.928308    -0.000000     0.027625    75.955933
	   73 D(12,9,11,13)   =      0.983195     0.000000     0.016506     0.999702
	 ---------------------------------------------------------------------------

  ==> Convergence Check <==

  Measures of convergence in internal coordinates in au.
  Criteria marked as inactive (o), active & met (*), and active & unmet ( ).
  ---------------------------------------------------------------------------------------------
   Step     Total Energy     Delta E     MAX Force     RMS Force      MAX Disp      RMS Disp   
  ---------------------------------------------------------------------------------------------
    Convergence Criteria    1.00e-06 *    3.00e-04 *             o    1.20e-03 *             o
  ---------------------------------------------------------------------------------------------
      4    -344.59457991   -2.81e-07 *    5.66e-05 *    1.47e-05 o    9.88e-04 *    2.62e-04 o  ~
  ---------------------------------------------------------------------------------------------


  **** Optimization is complete! (in 4 steps) ****

  ==> Optimization Summary <==

  Measures of convergence in internal coordinates in au.
  --------------------------------------------------------------------------------------------------------------- ~
   Step         Total Energy             Delta E       MAX Force       RMS Force        MAX Disp        RMS Disp  ~
  --------------------------------------------------------------------------------------------------------------- ~
      1    -344.594559316631   -344.594559316631      0.00202692      0.00030218      0.01602151      0.00526163  ~
      2    -344.594575594798     -0.000016278166      0.00041186      0.00009797      0.00586639      0.00205358  ~
      3    -344.594579626221     -0.000004031424      0.00014509      0.00003480      0.00146335      0.00051873  ~
      4    -344.594579906992     -0.000000280770      0.00005665      0.00001475      0.00098783      0.00026198  ~
  --------------------------------------------------------------------------------------------------------------- ~

	Writing optimization data to binary file.
	Final energy is   -344.5945799069916
	Final (previous) structure:
	Cartesian Geometry (in Angstrom)
	    H    -3.0284342359  -0.6844278877   0.1520392091
	    O    -2.2320481233  -1.1965016596   0.1463554127
	    C    -1.1463673916  -0.3855102517   0.1396638104
	    C    -1.2094574133   0.9371750263   0.5395048844
	    C     0.0553930375  -0.9326356537  -0.2907775353
	    H    -2.1409512155   1.3604236315   0.8752445297
	    C    -0.0553708067   1.7067726847   0.5066770933
	    H     0.0654028102  -1.9608733859  -0.6034584167
	    C     1.2089034918  -0.1674308510  -0.3137998089
	    H    -0.1006645525   2.7366525504   0.8138485097
	    C     1.1439802691   1.1665859486   0.0874418023
	    C     2.5227963226  -0.7687894238  -0.7555043584
	    H     2.0303109094   1.7760924822   0.0678020343
	    H     3.0641128909  -0.0914570955  -1.4074847311
	    H     2.3722761899  -1.7002357464  -1.2882583029
	    H     3.1584208689  -0.9758445106   0.1009431860
	Saving final (previous) structure.
			--------------------------
			 OPTKING Finished Execution 
			--------------------------

    Final optimized geometry and variables:
    Molecular point group: c1
    Full point group: C1

    Geometry (in Angstrom), charge = 0, multiplicity = 1:

    H           -3.028434004655    -0.684427835400     0.152039197501
    O           -2.232047952806    -1.196501568244     0.146355401526
    C           -1.146367304035    -0.385510222288     0.139663799711
    C           -1.209457320957     0.937174954692     0.539504843181
    C            0.055393033234    -0.932635582498    -0.290777513119
    H           -2.140951052005     1.360423527572     0.875244462906
    C           -0.055370802520     1.706772554351     0.506677054600
    H            0.065402805246    -1.960873236204    -0.603458370650
    C            1.208903399476    -0.167430838182    -0.313799784892
    H           -0.100664544824     2.736652341400     0.813848447587
    C            1.143980181785     1.166585859510     0.087441795626
    C            2.522796129966    -0.768789365048    -0.755504300724
    H            2.030310754327     1.776092346584     0.067802029129
    H            3.064112656933    -0.091457088554    -1.407484623634
    H            2.372276008696    -1.700235616515    -1.288258204510
    H            3.158420627747    -0.975844436111     0.100943178291

	Cleaning optimization helper files.


Properties will be evaluated at   0.000000,   0.000000,   0.000000 Bohr

Properties computed using the  density matrix

  Nuclear Dipole Moment: (a.u.)
     X:     5.0708      Y:     0.4258      Z:    -1.2080

  Electronic Dipole Moment: (a.u.)
     X:    -5.1924      Y:     0.0661      Z:     1.1618

  Dipole Moment: (a.u.)
     X:    -0.1216      Y:     0.4919      Z:    -0.0462     Total:     0.5088

  Dipole Moment: (Debye)
     X:    -0.3091      Y:     1.2503      Z:    -0.1174     Total:     1.2933

  Quadrupole Moment: (Debye Ang)
    XX:   -38.5459     YY:   -47.1005     ZZ:   -50.2158
    XY:    -3.1717     XZ:    -1.5997     YZ:     2.2426

  Traceless Quadrupole Moment: (Debye Ang)
    XX:     6.7415     YY:    -1.8131     ZZ:    -4.9284
    XY:    -3.1717     XZ:    -1.5997     YZ:     2.2426

  Mulliken Charges: (a.u.)
   Center  Symbol    Alpha    Beta     Spin     Total
       1     H     0.27214  0.27214  0.00000  0.45573
       2     O     4.38019  4.38019  0.00000 -0.76038
       3     C     2.79178  2.79178  0.00000  0.41644
       4     C     3.14711  3.14711  0.00000 -0.29421
       5     C     3.13990  3.13990  0.00000 -0.27980
       6     H     0.40454  0.40454  0.00000  0.19092
       7     C     3.08770  3.08770  0.00000 -0.17540
       8     H     0.39438  0.39438  0.00000  0.21124
       9     C     2.96957  2.96957  0.00000  0.06086
      10     H     0.39889  0.39889  0.00000  0.20221
      11     C     3.12333  3.12333  0.00000 -0.24667
      12     C     3.25461  3.25461  0.00000 -0.50921
      13     H     0.40334  0.40334  0.00000  0.19332
      14     H     0.41203  0.41203  0.00000  0.17594
      15     H     0.41164  0.41164  0.00000  0.17673
      16     H     0.40886  0.40886  0.00000  0.18229

   Total alpha = 29.00000, Total beta = 29.00000, Total charge =  0.00000


*** PSI4 exiting successfully. Buy a developer a beer!
