    -----------------------------------------------------------------------
          Psi4: An Open-Source Ab Initio Electronic Structure Package
                              Psi4 1.0.54 Driver

                          Git: Rev {master} 8d4cec3 dirty

    J. M. Turney, A. C. Simmonett, R. M. Parrish, E. G. Hohenstein,
    F. A. Evangelista, J. T. Fermann, B. J. Mintz, L. A. Burns, J. J. Wilke,
    M. L. Abrams, N. J. Russ, M. L. Leininger, C. L. Janssen, E. T. Seidl,
    W. D. Allen, H. F. Schaefer, R. A. King, E. F. Valeev, C. D. Sherrill,
    and T. D. Crawford, WIREs Comput. Mol. Sci. 2, 556-565 (2012)
    (doi: 10.1002/wcms.93)

                         Additional Contributions by
    A. E. DePrince, U. Bozkaya, A. Yu. Sokolov, D. G. A. Smith, R. Di Remigio,
    R. M. Richard, J. F. Gonthier, H. R. McAlexander, M. Saitow, and
    B. P. Pritchard
    -----------------------------------------------------------------------


    Psi4 started on: Sat Sep 10 23:56:06 2016

    Process ID:  44824
    PSI4DATADIR: /export131/home/mjharvey/miniconda3/share/psi4
    Memory level set to 256.000 MB

  ==> Input File <==

--------------------------------------------------------------------------
set {
	reference rhf
	basis cc-pvtz
}


set_num_threads( 4 )
memory 2 gb

molecule MOL {
0 1

H	 -3.257640	 0.975694	 -1.692250
C	 -2.359072	 1.518906	 -2.015332
C	 -1.556841	 2.135595	 -0.901774
O	 -2.093708	 1.592312	 -3.164898
C	 -1.216901	 1.136108	 0.207794
H	 -0.665579	 2.580537	 -1.324873
H	 -2.165681	 2.936121	 -0.487315
C	 -0.247837	 0.040196	 -0.230469
H	 -0.790062	 1.682108	 1.042080
H	 -2.133947	 0.685622	 0.579657
C	 1.181757	 0.280428	 0.247371
H	 -0.259600	 -0.030819	 -1.314870
H	 -0.591284	 -0.923375	 0.136958
C	 2.151032	 -0.811012	 -0.202643
H	 1.515939	 1.247397	 -0.115449
H	 1.191514	 0.341223	 1.333422
C	 3.580021	 -0.656538	 0.320835
H	 2.170545	 -0.847575	 -1.289412
H	 1.766632	 -1.772905	 0.124928
C	 4.327657	 0.562694	 -0.213579
H	 4.138806	 -1.549270	 0.057813
H	 3.561991	 -0.620783	 1.406976
H	 4.355973	 0.557257	 -1.298551
H	 3.867136	 1.491650	 0.100501
H	 5.351524	 0.571613	 0.142204

	symmetry c1
}
set optking {
	frozen_dihedral = ("
		3 5 8 12
	")
}

ee,wfn = optimize('scf', return_wfn=True)
oeprop( wfn, 'DIPOLE', 'QUADRUPOLE', 'MULLIKEN_CHARGES')
f=open( 'psi4out.xyz', 'w' )
f.write( "25  " )
f.write( str(ee) + "\n" )
f.write( MOL.save_string_xyz() )
f.close()
--------------------------------------------------------------------------

  Memory set to   2.000 GiB by Python script.
gradient() will perform analytic gradient computation.

*** tstart() called on cx1-27-2-1
*** at Sat Sep 10 23:56:07 2016


         ---------------------------------------------------------
                                   SCF
            by Justin Turney, Rob Parrish, and Andy Simmonett
                              RHF Reference
                        4 Threads,   2000 MiB Core
         ---------------------------------------------------------

  ==> Geometry <==

    Molecular point group: c1
    Full point group: C1

    Geometry (in Angstrom), charge = 0, multiplicity = 1:

       Center              X                  Y                   Z               Mass       
    ------------   -----------------  -----------------  -----------------  -----------------
           H         -3.687132817057     0.325310351736    -1.015585379074     1.007825032070
           C         -2.788564817057     0.868522351736    -1.338667379074    12.000000000000
           C         -1.986333817057     1.485211351736    -0.225109379074    12.000000000000
           O         -2.523200817057     0.941928351736    -2.488233379074    15.994914619560
           C         -1.646393817057     0.485724351736     0.884458620926    12.000000000000
           H         -1.095071817057     1.930153351736    -0.648208379074     1.007825032070
           H         -2.595173817057     2.285737351736     0.189349620926     1.007825032070
           C         -0.677329817057    -0.610187648264     0.446195620926    12.000000000000
           H         -1.219554817057     1.031724351736     1.718744620926     1.007825032070
           H         -2.563439817057     0.035238351736     1.256321620926     1.007825032070
           C          0.752264182943    -0.369955648264     0.924035620926    12.000000000000
           H         -0.689092817057    -0.681202648264    -0.638205379074     1.007825032070
           H         -1.020776817057    -1.573758648264     0.813622620926     1.007825032070
           C          1.721539182943    -1.461395648264     0.474021620926    12.000000000000
           H          1.086446182943     0.597013351736     0.561215620926     1.007825032070
           H          0.762021182943    -0.309160648264     2.010086620926     1.007825032070
           C          3.150528182943    -1.306921648264     0.997499620926    12.000000000000
           H          1.741052182943    -1.497958648264    -0.612747379074     1.007825032070
           H          1.337139182943    -2.423288648264     0.801592620926     1.007825032070
           C          3.898164182943    -0.087689648264     0.463085620926    12.000000000000
           H          3.709313182943    -2.199653648264     0.734477620926     1.007825032070
           H          3.132498182943    -1.271166648264     2.083640620926     1.007825032070
           H          3.926480182943    -0.093126648264    -0.621886379074     1.007825032070
           H          3.437643182943     0.841266351736     0.777165620926     1.007825032070
           H          4.922031182943    -0.078770648264     0.818868620926     1.007825032070

  Running in c1 symmetry.

  Rotational constants: A =      0.10317  B =      0.01781  C =      0.01698 [cm^-1]
  Rotational constants: A =   3093.10757  B =    534.00735  C =    508.96198 [MHz]
  Nuclear repulsion =  444.667101292921700

  Charge       = 0
  Multiplicity = 1
  Electrons    = 72
  Nalpha       = 36
  Nbeta        = 36

  ==> Algorithm <==

  SCF Algorithm Type is DF.
  DIIS enabled.
  MOM disabled.
  Fractional occupation disabled.
  Guess Type is SAD.
  Energy threshold   = 1.00e-08
  Density threshold  = 1.00e-08
  Integral threshold = 0.00e+00

  ==> Primary Basis <==

  Basis Set: CC-PVTZ
    Number of shells: 186
    Number of basis function: 494
    Number of Cartesian functions: 555
    Spherical Harmonics?: true
    Max angular momentum: 3

  ==> Pre-Iterations <==

   -------------------------------------------------------
    Irrep   Nso     Nmo     Nalpha   Nbeta   Ndocc  Nsocc
   -------------------------------------------------------
     A        494     494       0       0       0       0
   -------------------------------------------------------
    Total     494     494      36      36      36       0
   -------------------------------------------------------

  ==> Integral Setup <==

  ==> DFJK: Density-Fitted J/K Matrices <==

    J tasked:                  Yes
    K tasked:                  Yes
    wK tasked:                  No
    OpenMP threads:              4
    Integrals threads:           4
    Memory (MB):              1430
    Algorithm:                Core
    Integral Cache:           NONE
    Schwarz Cutoff:          1E-12
    Fitting Condition:       1E-12

   => Auxiliary Basis Set <=

  Basis Set: 
    Number of shells: 385
    Number of basis function: 1191
    Number of Cartesian functions: 1424
    Spherical Harmonics?: true
    Max angular momentum: 4

  Minimum eigenvalue in the overlap matrix is 2.7534571400E-04.
  Using Symmetric Orthogonalization.
  SCF Guess: Superposition of Atomic Densities via on-the-fly atomic UHF.

  ==> Iterations <==

                           Total Energy        Delta E     RMS |[F,P]|

   @DF-RHF iter   0:  -391.32762798271966   -3.91328e+02   1.20203e-02 
   @DF-RHF iter   1:  -386.96162443447696    4.36600e+00   1.36656e-03 
   @DF-RHF iter   2:  -387.18983758997177   -2.28213e-01   7.74000e-04 DIIS
   @DF-RHF iter   3:  -387.24597630239310   -5.61387e-02   2.70261e-04 DIIS
   @DF-RHF iter   4:  -387.25523345418645   -9.25715e-03   4.82952e-05 DIIS
   @DF-RHF iter   5:  -387.25573296220074   -4.99508e-04   1.86458e-05 DIIS
   @DF-RHF iter   6:  -387.25579605653462   -6.30943e-05   4.27409e-06 DIIS
   @DF-RHF iter   7:  -387.25580198990127   -5.93337e-06   1.60343e-06 DIIS
   @DF-RHF iter   8:  -387.25580270989525   -7.19994e-07   6.93119e-07 DIIS
   @DF-RHF iter   9:  -387.25580285770451   -1.47809e-07   2.07561e-07 DIIS
   @DF-RHF iter  10:  -387.25580287499787   -1.72934e-08   5.48714e-08 DIIS
   @DF-RHF iter  11:  -387.25580287638462   -1.38675e-09   2.38097e-08 DIIS
   @DF-RHF iter  12:  -387.25580287675558   -3.70960e-10   1.25279e-08 DIIS
   @DF-RHF iter  13:  -387.25580287688257   -1.26988e-10   5.45624e-09 DIIS

  ==> Post-Iterations <==

    Orbital Energies (a.u.)
    -----------------------

    Doubly Occupied:                                                      

       1A    -20.552298     2A    -11.321387     3A    -11.233992  
       4A    -11.231457     5A    -11.219924     6A    -11.217259  
       7A    -11.215310     8A    -11.213849     9A    -11.207520  
      10A     -1.407244    11A     -1.105595    12A     -1.069959  
      13A     -1.012989    14A     -0.943493    15A     -0.876572  
      16A     -0.821983    17A     -0.786745    18A     -0.781053  
      19A     -0.668372    20A     -0.656791    21A     -0.644815  
      22A     -0.620096    23A     -0.610686    24A     -0.591582  
      25A     -0.575345    26A     -0.549274    27A     -0.540777  
      28A     -0.523269    29A     -0.514071    30A     -0.501040  
      31A     -0.486239    32A     -0.475170    33A     -0.463410  
      34A     -0.457131    35A     -0.442442    36A     -0.412561  

    Virtual:                                                              

      37A      0.135126    38A      0.140767    39A      0.150199  
      40A      0.155637    41A      0.165841    42A      0.171113  
      43A      0.179178    44A      0.200633    45A      0.205330  
      46A      0.212070    47A      0.223521    48A      0.224023  
      49A      0.240515    50A      0.246330    51A      0.254531  
      52A      0.273499    53A      0.278862    54A      0.301452  
      55A      0.316405    56A      0.337550    57A      0.339593  
      58A      0.356836    59A      0.363022    60A      0.377836  
      61A      0.385297    62A      0.398291    63A      0.406373  
      64A      0.422486    65A      0.435099    66A      0.450227  
      67A      0.465438    68A      0.471594    69A      0.484451  
      70A      0.500211    71A      0.513296    72A      0.523791  
      73A      0.538922    74A      0.559920    75A      0.565248  
      76A      0.568842    77A      0.585324    78A      0.591470  
      79A      0.592519    80A      0.605952    81A      0.615136  
      82A      0.616419    83A      0.624574    84A      0.631126  
      85A      0.638724    86A      0.647593    87A      0.651938  
      88A      0.656064    89A      0.664593    90A      0.670016  
      91A      0.673453    92A      0.677671    93A      0.684604  
      94A      0.690585    95A      0.694487    96A      0.708174  
      97A      0.715311    98A      0.722390    99A      0.735896  
     100A      0.748874   101A      0.759243   102A      0.775673  
     103A      0.788304   104A      0.816360   105A      0.826323  
     106A      0.851638   107A      0.858735   108A      0.876675  
     109A      0.898906   110A      0.904943   111A      0.927600  
     112A      0.939007   113A      0.945316   114A      0.971647  
     115A      0.975507   116A      0.981761   117A      0.991839  
     118A      1.012336   119A      1.033605   120A      1.047643  
     121A      1.059101   122A      1.072709   123A      1.089395  
     124A      1.102248   125A      1.119287   126A      1.124276  
     127A      1.159231   128A      1.170916   129A      1.172406  
     130A      1.196328   131A      1.206915   132A      1.212351  
     133A      1.228205   134A      1.241260   135A      1.243114  
     136A      1.255690   137A      1.267669   138A      1.272800  
     139A      1.294233   140A      1.295338   141A      1.298199  
     142A      1.323516   143A      1.327263   144A      1.334001  
     145A      1.344553   146A      1.351212   147A      1.363603  
     148A      1.375901   149A      1.377627   150A      1.384327  
     151A      1.395457   152A      1.402981   153A      1.405966  
     154A      1.409432   155A      1.421997   156A      1.429568  
     157A      1.436656   158A      1.445132   159A      1.457514  
     160A      1.476709   161A      1.484104   162A      1.490353  
     163A      1.504563   164A      1.511740   165A      1.520779  
     166A      1.529031   167A      1.536646   168A      1.545594  
     169A      1.563920   170A      1.565406   171A      1.569245  
     172A      1.594431   173A      1.608448   174A      1.619493  
     175A      1.644776   176A      1.646676   177A      1.658942  
     178A      1.675316   179A      1.680420   180A      1.687974  
     181A      1.707701   182A      1.724511   183A      1.735469  
     184A      1.739733   185A      1.748883   186A      1.762873  
     187A      1.786317   188A      1.790071   189A      1.817553  
     190A      1.827179   191A      1.842580   192A      1.843545  
     193A      1.852710   194A      1.866093   195A      1.898327  
     196A      1.941435   197A      1.962379   198A      1.992803  
     199A      2.016953   200A      2.040824   201A      2.053742  
     202A      2.092562   203A      2.207168   204A      2.320413  
     205A      2.380394   206A      2.457357   207A      2.468231  
     208A      2.520008   209A      2.563694   210A      2.590814  
     211A      2.613106   212A      2.635436   213A      2.655156  
     214A      2.661687   215A      2.685490   216A      2.692829  
     217A      2.703393   218A      2.716586   219A      2.730105  
     220A      2.743347   221A      2.771063   222A      2.777304  
     223A      2.795782   224A      2.801844   225A      2.818918  
     226A      2.826760   227A      2.843214   228A      2.853099  
     229A      2.870577   230A      2.874884   231A      2.893089  
     232A      2.900741   233A      2.923707   234A      2.928624  
     235A      2.935817   236A      2.960755   237A      2.968820  
     238A      2.985650   239A      2.989903   240A      3.008894  
     241A      3.016732   242A      3.032601   243A      3.046154  
     244A      3.063646   245A      3.066223   246A      3.074334  
     247A      3.092543   248A      3.108740   249A      3.128608  
     250A      3.142124   251A      3.147256   252A      3.159807  
     253A      3.167884   254A      3.184495   255A      3.204406  
     256A      3.218924   257A      3.235137   258A      3.246563  
     259A      3.256548   260A      3.261052   261A      3.266085  
     262A      3.287515   263A      3.291410   264A      3.309942  
     265A      3.318631   266A      3.334799   267A      3.357002  
     268A      3.362157   269A      3.367517   270A      3.373623  
     271A      3.388169   272A      3.404199   273A      3.408635  
     274A      3.420329   275A      3.422996   276A      3.435041  
     277A      3.437201   278A      3.445411   279A      3.463148  
     280A      3.469732   281A      3.475221   282A      3.485372  
     283A      3.486830   284A      3.491914   285A      3.511910  
     286A      3.516612   287A      3.528476   288A      3.531964  
     289A      3.543810   290A      3.557775   291A      3.560900  
     292A      3.570425   293A      3.598119   294A      3.607519  
     295A      3.609931   296A      3.627274   297A      3.641850  
     298A      3.647152   299A      3.662445   300A      3.668199  
     301A      3.680688   302A      3.706997   303A      3.718251  
     304A      3.726199   305A      3.743961   306A      3.766807  
     307A      3.775031   308A      3.786795   309A      3.799725  
     310A      3.817482   311A      3.833709   312A      3.839544  
     313A      3.847781   314A      3.860514   315A      3.862633  
     316A      3.887333   317A      3.898130   318A      3.904639  
     319A      3.909912   320A      3.933175   321A      3.937405  
     322A      3.944623   323A      3.961517   324A      3.971296  
     325A      3.996771   326A      4.000382   327A      4.028933  
     328A      4.037003   329A      4.044396   330A      4.060851  
     331A      4.086083   332A      4.094922   333A      4.111932  
     334A      4.112319   335A      4.126557   336A      4.130192  
     337A      4.134895   338A      4.145619   339A      4.153536  
     340A      4.157769   341A      4.164126   342A      4.178512  
     343A      4.183792   344A      4.204660   345A      4.209544  
     346A      4.225024   347A      4.238233   348A      4.247635  
     349A      4.264348   350A      4.267601   351A      4.279652  
     352A      4.291442   353A      4.296246   354A      4.333228  
     355A      4.339727   356A      4.344689   357A      4.357296  
     358A      4.369638   359A      4.384974   360A      4.386364  
     361A      4.391488   362A      4.407549   363A      4.416604  
     364A      4.442206   365A      4.451204   366A      4.459964  
     367A      4.460991   368A      4.482796   369A      4.486740  
     370A      4.500628   371A      4.502974   372A      4.524202  
     373A      4.530477   374A      4.533705   375A      4.553786  
     376A      4.563432   377A      4.572401   378A      4.588261  
     379A      4.607801   380A      4.614281   381A      4.629922  
     382A      4.639807   383A      4.645763   384A      4.654647  
     385A      4.666243   386A      4.675464   387A      4.693492  
     388A      4.702754   389A      4.714286   390A      4.732968  
     391A      4.747918   392A      4.764378   393A      4.780385  
     394A      4.796952   395A      4.820341   396A      4.826678  
     397A      4.844322   398A      4.863227   399A      4.887747  
     400A      4.935734   401A      4.952587   402A      4.965632  
     403A      4.989414   404A      5.000850   405A      5.010734  
     406A      5.026985   407A      5.041889   408A      5.056623  
     409A      5.085425   410A      5.111463   411A      5.113690  
     412A      5.135693   413A      5.161964   414A      5.170892  
     415A      5.195494   416A      5.217227   417A      5.227657  
     418A      5.248797   419A      5.256340   420A      5.275256  
     421A      5.290954   422A      5.316023   423A      5.324077  
     424A      5.341201   425A      5.358147   426A      5.371316  
     427A      5.381590   428A      5.392087   429A      5.411250  
     430A      5.420306   431A      5.446459   432A      5.457836  
     433A      5.476464   434A      5.499654   435A      5.513521  
     436A      5.537207   437A      5.544666   438A      5.558398  
     439A      5.578863   440A      5.615993   441A      5.628701  
     442A      5.641853   443A      5.657881   444A      5.701372  
     445A      5.738269   446A      5.754471   447A      5.765236  
     448A      5.775797   449A      5.780885   450A      5.783940  
     451A      5.814046   452A      5.822467   453A      5.832245  
     454A      5.856245   455A      5.867278   456A      5.894642  
     457A      5.898407   458A      5.919565   459A      5.941382  
     460A      5.953145   461A      5.976449   462A      6.000766  
     463A      6.007783   464A      6.013122   465A      6.068788  
     466A      6.113260   467A      6.161351   468A      6.168945  
     469A      6.310636   470A      6.338030   471A      6.342240  
     472A      6.369601   473A      6.395756   474A      6.423407  
     475A      6.440500   476A      6.487691   477A      6.531501  
     478A      6.783971   479A      6.797656   480A      6.917844  
     481A      6.972199   482A      7.367983   483A      7.393363  
     484A      7.542213   485A      7.593446   486A     10.892365  
     487A     12.873846   488A     13.230668   489A     13.317919  
     490A     13.676572   491A     13.839449   492A     14.075819  
     493A     14.264075   494A     14.324492  

    Final Occupation by Irrep:
              A 
    DOCC [    36 ]

  Energy converged.

  @DF-RHF Final Energy:  -387.25580287688257

   => Energetics <=

    Nuclear Repulsion Energy =            444.6671012929217000
    One-Electron Energy =               -1405.9424061054455706
    Two-Electron Energy =                 574.0195019356414150
    DFT Exchange-Correlation Energy =       0.0000000000000000
    Empirical Dispersion Energy =           0.0000000000000000
    PCM Polarization Energy =               0.0000000000000000
    EFP Energy =                            0.0000000000000000
    Total Energy =                       -387.2558028768825125


  Saving occupied orbitals to File 180.

*** tstop() called on cx1-27-2-1 at Sat Sep 10 23:56:29 2016
Module time:
	user time   =      78.73 seconds =       1.31 minutes
	system time =       1.44 seconds =       0.02 minutes
	total time  =         22 seconds =       0.37 minutes
Total time:
	user time   =      78.73 seconds =       1.31 minutes
	system time =       1.44 seconds =       0.02 minutes
	total time  =         22 seconds =       0.37 minutes


Properties will be evaluated at   0.000000,   0.000000,   0.000000 Bohr

Properties computed using the SCF density matrix

  Nuclear Dipole Moment: (a.u.)
     X:    10.4729      Y:    -2.8844      Z:     7.7020

  Electronic Dipole Moment: (a.u.)
     X:   -10.4748      Y:     2.8136      Z:    -6.4762

  Dipole Moment: (a.u.)
     X:    -0.0019      Y:    -0.0708      Z:     1.2258     Total:     1.2278

  Dipole Moment: (Debye)
     X:    -0.0048      Y:    -0.1800      Z:     3.1156     Total:     3.1208


*** tstart() called on cx1-27-2-1
*** at Sat Sep 10 23:56:29 2016


         ------------------------------------------------------------
                                   SCF GRAD                          
                          Rob Parrish, Justin Turney,                
                       Andy Simmonett, and Alex Sokolov              
         ------------------------------------------------------------

  ==> Geometry <==

    Molecular point group: c1
    Full point group: C1

    Geometry (in Angstrom), charge = 0, multiplicity = 1:

       Center              X                  Y                   Z               Mass       
    ------------   -----------------  -----------------  -----------------  -----------------
           H         -3.687132817057     0.325310351736    -1.015585379074     1.007825032070
           C         -2.788564817057     0.868522351736    -1.338667379074    12.000000000000
           C         -1.986333817057     1.485211351736    -0.225109379074    12.000000000000
           O         -2.523200817057     0.941928351736    -2.488233379074    15.994914619560
           C         -1.646393817057     0.485724351736     0.884458620926    12.000000000000
           H         -1.095071817057     1.930153351736    -0.648208379074     1.007825032070
           H         -2.595173817057     2.285737351736     0.189349620926     1.007825032070
           C         -0.677329817057    -0.610187648264     0.446195620926    12.000000000000
           H         -1.219554817057     1.031724351736     1.718744620926     1.007825032070
           H         -2.563439817057     0.035238351736     1.256321620926     1.007825032070
           C          0.752264182943    -0.369955648264     0.924035620926    12.000000000000
           H         -0.689092817057    -0.681202648264    -0.638205379074     1.007825032070
           H         -1.020776817057    -1.573758648264     0.813622620926     1.007825032070
           C          1.721539182943    -1.461395648264     0.474021620926    12.000000000000
           H          1.086446182943     0.597013351736     0.561215620926     1.007825032070
           H          0.762021182943    -0.309160648264     2.010086620926     1.007825032070
           C          3.150528182943    -1.306921648264     0.997499620926    12.000000000000
           H          1.741052182943    -1.497958648264    -0.612747379074     1.007825032070
           H          1.337139182943    -2.423288648264     0.801592620926     1.007825032070
           C          3.898164182943    -0.087689648264     0.463085620926    12.000000000000
           H          3.709313182943    -2.199653648264     0.734477620926     1.007825032070
           H          3.132498182943    -1.271166648264     2.083640620926     1.007825032070
           H          3.926480182943    -0.093126648264    -0.621886379074     1.007825032070
           H          3.437643182943     0.841266351736     0.777165620926     1.007825032070
           H          4.922031182943    -0.078770648264     0.818868620926     1.007825032070

  Nuclear repulsion =  444.667101292921643

  ==> Basis Set <==

  Basis Set: CC-PVTZ
    Number of shells: 186
    Number of basis function: 494
    Number of Cartesian functions: 555
    Spherical Harmonics?: true
    Max angular momentum: 3

  ==> DFJKGrad: Density-Fitted SCF Gradients <==

    Gradient:                    1
    J tasked:                  Yes
    K tasked:                  Yes
    wK tasked:                  No
    OpenMP threads:              4
    Integrals threads:           4
    Memory (MB):              1430
    Schwarz Cutoff:          0E+00
    Fitting Condition:       1E-12

   => Auxiliary Basis Set <=

  Basis Set: 
    Number of shells: 385
    Number of basis function: 1191
    Number of Cartesian functions: 1424
    Spherical Harmonics?: true
    Max angular momentum: 4


  -Total Gradient:
     Atom            X                  Y                   Z
    ------   -----------------  -----------------  -----------------
       1       -0.000024442160    -0.000103698801     0.000059784580
       2        0.000621521024     0.000137117221    -0.000605127015
       3       -0.000061506831    -0.001505822702    -0.001066659594
       4       -0.000284523445     0.000013504198     0.000156265478
       5        0.004840493949    -0.002037255453    -0.002802277994
       6       -0.000071829879    -0.000074800272     0.000181747632
       7       -0.000021199231    -0.000337267350     0.000211725262
       8       -0.002312557826     0.004677038164     0.001813034463
       9        0.001875550222    -0.000061432145    -0.000095376018
      10        0.000115981972    -0.002212445363     0.000963993975
      11       -0.001809366765     0.001049574110     0.001904833399
      12       -0.001732781174     0.002104745932    -0.000738462164
      13       -0.001353101498    -0.001131943530    -0.000243387983
      14       -0.000300711739    -0.000572593005     0.000387706771
      15       -0.000191981862    -0.000241030707    -0.000074291691
      16        0.000592545190     0.000174060018     0.000217345518
      17       -0.000024765795     0.000049565021    -0.000027584349
      18        0.000003625806    -0.000014457004    -0.000082198492
      19        0.000147067256     0.000060755332    -0.000116695852
      20        0.000007376538     0.000026565161     0.000114548741
      21       -0.000030876015     0.000014449255    -0.000008234472
      22       -0.000009227201     0.000003775750    -0.000063046744
      23        0.000038946502    -0.000022625693    -0.000073270494
      24       -0.000007801129    -0.000005459500     0.000016043086
      25       -0.000006435914     0.000009681367    -0.000030416041


*** tstop() called on cx1-27-2-1 at Sat Sep 10 23:56:50 2016
Module time:
	user time   =      78.02 seconds =       1.30 minutes
	system time =       0.99 seconds =       0.02 minutes
	total time  =         21 seconds =       0.35 minutes
Total time:
	user time   =     156.89 seconds =       2.61 minutes
	system time =       2.43 seconds =       0.04 minutes
	total time  =         43 seconds =       0.72 minutes

			-----------------------------------------
			 OPTKING 2.0: for geometry optimizations 
			  - R.A. King,  Bethel University        
			-----------------------------------------

	Internal coordinates to be generated automatically.
	Detected frag 1 with atoms:  1 2 3 4 5 6 7 8 9 10 11 12 13 14 15 16 17 18 19 20
	 21 22 23 24 25
	---Fragment 1 Bond Connectivity---
	 1 : 2
	 2 : 1 3 4
	 3 : 2 5 6 7
	 4 : 2
	 5 : 3 8 9 10
	 6 : 3
	 7 : 3
	 8 : 5 11 12 13
	 9 : 5
	 10 : 5
	 11 : 8 14 15 16
	 12 : 8
	 13 : 8
	 14 : 11 17 18 19
	 15 : 11
	 16 : 11
	 17 : 14 20 21 22
	 18 : 14
	 19 : 14
	 20 : 17 23 24 25
	 21 : 17
	 22 : 17
	 23 : 20
	 24 : 20
	 25 : 20

	Assuming in current code that numbering for constraints corresponds to unified fragment.
	Frozen dihedral atom list: 
	     3     5     8    12
	---Fragment 1 Geometry and Gradient---
	 H          -6.9676712398        0.6147474730       -1.9191782310
	 C          -5.2696238080        1.6412693851       -2.5297147295
	 C          -3.7536269227        2.8066427042       -0.4253950764
	 O          -4.7681585225        1.7799866216       -4.7020796412
	 C          -3.1112334211        0.9178860009        1.6713845694
	 H          -2.0693858301        3.6474612293       -1.2249363135
	 H          -4.9041677815        4.3194176065        0.3578189269
	 C          -1.2799678559       -1.1530875449        0.8431875252
	 H          -2.3046246083        1.9496764694        3.2479566259
	 H          -4.8441992124        0.0665908342        2.3741037984
	 C           1.4215732853       -0.6991148565        1.7461742606
	 H          -1.3021967044       -1.2872864462       -1.2060333830
	 H          -1.9289886270       -2.9739728445        1.5375239291
	 C           3.2532375828       -2.7616375470        0.8957710446
	 H           2.0530857439        1.1281917325        1.0605438250
	 H           1.4400113432       -0.5842289563        3.7985132169
	 C           5.9536354397       -2.4697239924        1.8850011012
	 H           3.2901118088       -2.8307316036       -1.1579247351
	 H           2.5268268573       -4.5793518861        1.5147905237
	 C           7.3664627268       -0.1657094199        0.8751049996
	 H           7.0095860569       -4.1567429824        1.3879615543
	 H           5.9195636775       -2.4021568345        3.9375101329
	 H           7.4199722120       -0.1759838609       -1.1751949422
	 H           6.4962041583        1.5897630096        1.4686301834
	 H           9.3012909533       -0.1488549525        1.5474374324
	            -0.0000244422       -0.0001036988        0.0000597846
	             0.0006215210        0.0001371172       -0.0006051270
	            -0.0000615068       -0.0015058227       -0.0010666596
	            -0.0002845234        0.0000135042        0.0001562655
	             0.0048404939       -0.0020372555       -0.0028022780
	            -0.0000718299       -0.0000748003        0.0001817476
	            -0.0000211992       -0.0003372674        0.0002117253
	            -0.0023125578        0.0046770382        0.0018130345
	             0.0018755502       -0.0000614321       -0.0000953760
	             0.0001159820       -0.0022124454        0.0009639940
	            -0.0018093668        0.0010495741        0.0019048334
	            -0.0017327812        0.0021047459       -0.0007384622
	            -0.0013531015       -0.0011319435       -0.0002433880
	            -0.0003007117       -0.0005725930        0.0003877068
	            -0.0001919819       -0.0002410307       -0.0000742917
	             0.0005925452        0.0001740600        0.0002173455
	            -0.0000247658        0.0000495650       -0.0000275843
	             0.0000036258       -0.0000144570       -0.0000821985
	             0.0001470673        0.0000607553       -0.0001166959
	             0.0000073765        0.0000265652        0.0001145487
	            -0.0000308760        0.0000144493       -0.0000082345
	            -0.0000092272        0.0000037758       -0.0000630467
	             0.0000389465       -0.0000226257       -0.0000732705
	            -0.0000078011       -0.0000054595        0.0000160431
	            -0.0000064359        0.0000096814       -0.0000304160

	Previous optimization step data not found.  Starting new optimization.

	---Fragment 1 Intrafragment Coordinates---
	 - Coordinate -           - BOHR/RAD -       - ANG/DEG -
	 R(1,2)           =         2.076022	       1.098583
	 R(2,3)           =         2.843326	       1.504623
	 R(2,4)           =         2.233804	       1.182078
	 R(3,5)           =         2.894228	       1.531560
	 R(3,6)           =         2.045216	       1.082282
	 R(3,7)           =         2.055640	       1.087798
	 R(5,8)           =         2.885892	       1.527149
	 R(5,9)           =         2.049583	       1.084592
	 R(5,10)          =         2.054675	       1.087287
	 R(8,11)          =         2.884406	       1.526362
	 R(8,12)          =         2.053731	       1.086787
	 R(8,13)          =         2.054009	       1.086935
	 R(11,14)         =         2.886552	       1.527497
	 R(11,15)         =         2.051328	       1.085516
	 R(11,16)         =         2.055635	       1.087795
	 R(14,17)         =         2.890664	       1.529673
	 R(14,18)         =         2.055189	       1.087559
	 R(14,19)         =         2.053033	       1.086418
	 R(17,20)         =         2.885213	       1.526789
	 R(17,21)         =         2.051369	       1.085538
	 R(17,22)         =         2.053903	       1.086879
	 R(20,23)         =         2.051024	       1.085355
	 R(20,24)         =         2.047268	       1.083367
	 R(20,25)         =         2.048384	       1.083958
	 B(1,2,3)         =         2.005469	     114.904909
	 B(1,2,4)         =         2.094769	     120.021450
	 B(2,3,5)         =         1.968217	     112.770534
	 B(2,3,6)         =         1.894677	     108.557007
	 B(2,3,7)         =         1.859996	     106.569895
	 B(3,2,4)         =         2.182900	     125.070964
	 B(3,5,8)         =         1.983677	     113.656335
	 B(3,5,9)         =         1.892411	     108.427140
	 B(3,5,10)        =         1.908112	     109.326767
	 B(5,3,6)         =         1.948436	     111.637169
	 B(5,3,7)         =         1.905463	     109.174990
	 B(5,8,11)        =         1.973102	     113.050431
	 B(5,8,12)        =         1.903262	     109.048898
	 B(5,8,13)        =         1.916283	     109.794953
	 B(6,3,7)         =         1.883169	     107.897613
	 B(8,5,9)         =         1.909519	     109.407359
	 B(8,5,10)        =         1.913493	     109.635053
	 B(8,11,14)       =         1.971030	     112.931703
	 B(8,11,15)       =         1.900648	     108.899117
	 B(8,11,16)       =         1.906838	     109.253797
	 B(9,5,10)        =         1.851908	     106.106538
	 B(11,8,12)       =         1.910060	     109.438355
	 B(11,8,13)       =         1.906723	     109.247208
	 B(11,14,17)      =         2.004030	     114.822470
	 B(11,14,18)      =         1.906890	     109.256746
	 B(11,14,19)      =         1.895767	     108.619471
	 B(12,8,13)       =         1.850374	     106.018613
	 B(14,11,15)      =         1.920561	     110.040048
	 B(14,11,16)      =         1.905383	     109.170388
	 B(14,17,20)      =         2.002376	     114.727695
	 B(14,17,21)      =         1.891154	     108.355155
	 B(14,17,22)      =         1.906897	     109.257145
	 B(15,11,16)      =         1.855794	     106.329170
	 B(17,14,18)      =         1.905618	     109.183880
	 B(17,14,19)      =         1.893109	     108.467179
	 B(17,20,23)      =         1.937646	     111.018922
	 B(17,20,24)      =         1.955313	     112.031206
	 B(17,20,25)      =         1.932872	     110.745407
	 B(18,14,19)      =         1.852381	     106.133603
	 B(20,17,21)      =         1.896369	     108.653922
	 B(20,17,22)      =         1.908838	     109.368356
	 B(21,17,22)      =         1.852222	     106.124486
	 B(23,20,24)      =         1.880939	     107.769838
	 B(23,20,25)      =         1.879169	     107.668446
	 B(24,20,25)      =         1.874762	     107.415931
	 D(1,2,3,5)       =         0.904079	      51.799906
	 D(1,2,3,6)       =         3.072571	     176.045359
	 D(1,2,3,7)       =        -1.186332	     -67.971807
	 D(2,3,5,8)       =         1.177739	      67.479478
	 D(2,3,5,9)       =        -2.978023	    -170.628140
	 D(2,3,5,10)      =        -0.966348	     -55.367679
	 D(3,5,8,11)      =         1.779791	     101.974530
	*D(3,5,8,12)      =        -0.349066	     -20.000016
	 D(3,5,8,13)      =        -2.369395	    -135.756333
	 D(4,2,3,5)       =        -2.247955	    -128.798332
	 D(4,2,3,6)       =        -0.079463	      -4.552879
	 D(4,2,3,7)       =         1.944820	     111.429955
	 D(5,8,11,14)     =        -3.132940	    -179.504257
	 D(5,8,11,15)     =        -0.993932	     -56.948104
	 D(5,8,11,16)     =         1.026198	      58.796813
	 D(6,3,5,8)       =        -0.960906	     -55.055879
	 D(6,3,5,9)       =         1.166517	      66.836503
	 D(6,3,5,10)      =        -3.104994	    -177.903036
	 D(7,3,5,8)       =        -3.041473	    -174.263558
	 D(7,3,5,9)       =        -0.914049	     -52.371176
	 D(7,3,5,10)      =         1.097625	      62.889285
	 D(8,11,14,17)    =        -3.082192	    -176.596598
	 D(8,11,14,18)    =         1.053695	      60.372289
	 D(8,11,14,19)    =        -0.959717	     -54.987714
	 D(9,5,8,11)      =        -0.338109	     -19.372208
	 D(9,5,8,12)      =        -2.466966	    -141.346754
	 D(9,5,8,13)      =         1.795890	     102.896930
	 D(10,5,8,11)     =        -2.362264	    -135.347777
	 D(10,5,8,12)     =         1.792064	     102.677677
	 D(10,5,8,13)     =        -0.228265	     -13.078639
	 D(11,14,17,20)   =        -1.155837	     -66.224578
	 D(11,14,17,21)   =         3.005228	     172.186872
	 D(11,14,17,22)   =         0.994512	      56.981338
	 D(12,8,11,14)    =        -1.007900	     -57.748430
	 D(12,8,11,15)    =         1.131108	      64.807723
	 D(12,8,11,16)    =        -3.131947	    -179.447360
	 D(13,8,11,14)    =         1.010910	      57.920864
	 D(13,8,11,15)    =        -3.133267	    -179.522983
	 D(13,8,11,16)    =        -1.113137	     -63.778066
	 D(14,17,20,23)   =        -0.985694	     -56.476110
	 D(14,17,20,24)   =         1.118185	      64.067281
	 D(14,17,20,25)   =        -3.072286	    -176.029001
	 D(15,11,14,17)   =         1.073148	      61.486861
	 D(15,11,14,18)   =        -1.074150	     -61.544252
	 D(15,11,14,19)   =        -3.087562	    -176.904256
	 D(16,11,14,17)   =        -0.957324	     -54.850647
	 D(16,11,14,18)   =        -3.104622	    -177.881761
	 D(16,11,14,19)   =         1.165151	      66.758236
	 D(18,14,17,20)   =         0.992143	      56.845579
	 D(18,14,17,21)   =        -1.129978	     -64.742971
	 D(18,14,17,22)   =        -3.140694	    -179.948506
	 D(19,14,17,20)   =         3.003427	     172.083666
	 D(19,14,17,21)   =         0.881306	      50.495116
	 D(19,14,17,22)   =        -1.129410	     -64.710419
	 D(21,17,20,23)   =         1.133579	      64.949311
	 D(21,17,20,24)   =        -3.045727	    -174.507297
	 D(21,17,20,25)   =        -0.953012	     -54.603579
	 D(22,17,20,23)   =        -3.135003	    -179.622414
	 D(22,17,20,24)   =        -1.031123	     -59.079022
	 D(22,17,20,25)   =         1.061591	      60.824695

	Current energy   :      -387.2558028769

	Generating empirical Hessian (Schlegel '84) for each fragment.
	Taking RFO optimization step.
	Going to follow RFO solution 1.
	Using RFO vector 1.
	Norm of target step-size    0.31918
	Projected energy change by RFO approximation:        -0.0000543849

	Back-transformation to cartesian coordinates...
	Successfully converged to displaced geometry.

	Back-transformation to cartesian coordinates to adjust frozen coordinates...
	Successfully converged to displaced geometry.

	--- Internal Coordinate Step in ANG or DEG, aJ/ANG or AJ/DEG ---
	 ---------------------------------------------------------------------------
	   Coordinate                Previous        Force       Change         New 
	   ----------                --------       ------       ------       ------
	    1 R(1,2)          =      1.098583    -0.000732    -0.000139     1.098445
	    2 R(2,3)          =      1.504623    -0.000841    -0.000169     1.504454
	    3 R(2,4)          =      1.182078     0.001771     0.000099     1.182177
	    4 R(3,5)          =      1.531560     0.004008     0.000876     1.532436
	    5 R(3,6)          =      1.082282     0.001326     0.000238     1.082520
	    6 R(3,7)          =      1.087798     0.001282     0.000234     1.088032
	    7 R(5,8)          =      1.527149     0.080177     0.017291     1.544440
	    8 R(5,9)          =      1.084592    -0.005222    -0.000944     1.083649
	    9 R(5,10)         =      1.087287    -0.009462    -0.001726     1.085561
	   10 R(8,11)         =      1.526362     0.006008     0.001293     1.527655
	   11 R(8,12)         =      1.086787    -0.005092    -0.000927     1.085860
	   12 R(8,13)         =      1.086935    -0.011112    -0.002024     1.084911
	   13 R(11,14)        =      1.527497    -0.001412    -0.000305     1.527192
	   14 R(11,15)        =      1.085516     0.002051     0.000372     1.085888
	   15 R(11,16)        =      1.087795    -0.001912    -0.000349     1.087446
	   16 R(14,17)        =      1.529673     0.000392     0.000085     1.529759
	   17 R(14,18)        =      1.087559    -0.000681    -0.000124     1.087435
	   18 R(14,19)        =      1.086418     0.001162     0.000211     1.086629
	   19 R(17,20)        =      1.526789    -0.000105    -0.000023     1.526766
	   20 R(17,21)        =      1.085538     0.000212     0.000039     1.085576
	   21 R(17,22)        =      1.086879     0.000517     0.000094     1.086973
	   22 R(20,23)        =      1.085355    -0.000613    -0.000111     1.085244
	   23 R(20,24)        =      1.083367    -0.000027    -0.000005     1.083363
	   24 R(20,25)        =      1.083958     0.000132     0.000024     1.083982
	   25 B(1,2,3)        =    114.904909     0.000014     0.092316   114.997224
	   26 B(1,2,4)        =    120.021450     0.000009     0.070127   120.091578
	   27 B(2,3,5)        =    112.770534    -0.000034    -0.187094   112.583439
	   28 B(2,3,6)        =    108.557007     0.000016     0.083590   108.640597
	   29 B(2,3,7)        =    106.569895    -0.000009    -0.072181   106.497714
	   30 B(3,2,4)        =    125.070964    -0.000023    -0.159869   124.911094
	   31 B(3,5,8)        =    113.656335     0.000100     0.467184   114.123519
	   32 B(3,5,9)        =    108.427140    -0.000084    -0.034092   108.393048
	   33 B(3,5,10)       =    109.326767    -0.000107    -1.237797   108.088971
	   34 B(5,3,6)        =    111.637169     0.000006     0.016921   111.654090
	   35 B(5,3,7)        =    109.174990     0.000034     0.212370   109.387359
	   36 B(5,8,11)       =    113.050431     0.000113     0.242531   113.292962
	   37 B(5,8,12)       =    109.048898     0.000121     1.037610   110.086508
	   38 B(5,8,13)       =    109.794953    -0.000030     0.475051   110.270004
	   39 B(6,3,7)        =    107.897613    -0.000013    -0.054071   107.843543
	   40 B(8,5,9)        =    109.407359     0.000023     0.693582   110.100941
	   41 B(8,5,10)       =    109.635053     0.000074     0.554863   110.189917
	   42 B(8,11,14)      =    112.931703     0.000046     0.152811   113.084514
	   43 B(8,11,15)      =    108.899117     0.000006     0.118769   109.017886
	   44 B(8,11,16)      =    109.253797    -0.000054    -0.383129   108.870668
	   45 B(9,5,10)       =    106.106538    -0.000016    -0.539680   105.566858
	   46 B(11,8,12)      =    109.438355    -0.000187    -1.888125   107.550230
	   47 B(11,8,13)      =    109.247208    -0.000034    -0.290697   108.956512
	   48 B(11,14,17)     =    114.822470     0.000009     0.010310   114.832780
	   49 B(11,14,18)     =    109.256746    -0.000001     0.038423   109.295170
	   50 B(11,14,19)     =    108.619471    -0.000011    -0.094955   108.524516
	   51 B(12,8,13)      =    106.018613     0.000009     0.400896   106.419509
	   52 B(14,11,15)     =    110.040048    -0.000028    -0.046862   109.993186
	   53 B(14,11,16)     =    109.170388     0.000017     0.125411   109.295799
	   54 B(14,17,20)     =    114.727695    -0.000005    -0.007652   114.720043
	   55 B(14,17,21)     =    108.355155     0.000002    -0.006599   108.348556
	   56 B(14,17,22)     =    109.257145     0.000002     0.004046   109.261191
	   57 B(15,11,16)     =    106.329170     0.000011     0.021506   106.350677
	   58 B(17,14,18)     =    109.183880    -0.000002     0.028357   109.212237
	   59 B(17,14,19)     =    108.467179     0.000001    -0.002422   108.464757
	   60 B(17,20,23)     =    111.018922     0.000000     0.009680   111.028602
	   61 B(17,20,24)     =    112.031206     0.000002     0.012366   112.043572
	   62 B(17,20,25)     =    110.745407    -0.000002     0.002104   110.747511
	   63 B(18,14,19)     =    106.133603     0.000003     0.020078   106.153681
	   64 B(20,17,21)     =    108.653922     0.000000    -0.002115   108.651806
	   65 B(20,17,22)     =    109.368356     0.000002     0.011070   109.379426
	   66 B(21,17,22)     =    106.124486    -0.000001     0.001698   106.126184
	   67 B(23,20,24)     =    107.769838    -0.000002    -0.013956   107.755882
	   68 B(23,20,25)     =    107.668446     0.000002     0.005798   107.674244
	   69 B(24,20,25)     =    107.415931     0.000000    -0.017395   107.398537
	   70 D(1,2,3,5)      =     51.799906     0.000002     0.590141    52.390047
	   71 D(1,2,3,6)      =    176.045359     0.000001     0.543949   176.589308
	   72 D(1,2,3,7)      =    -67.971807    -0.000001     0.484802   -67.487005
	   73 D(2,3,5,8)      =     67.479478     0.000007     4.552317    72.031795
	   74 D(2,3,5,9)      =   -170.628140     0.000015     5.735303  -164.892837
	   75 D(2,3,5,10)     =    -55.367679    -0.000013     4.436704   -50.930975
	   76 D(3,5,8,11)     =    101.974530    -0.000017    -1.510617   100.463913
	   77 *D(3,5,8,12)    =    -20.000016     0.000000    -0.000000   -20.000016
	   78 D(3,5,8,13)     =   -135.756333    -0.000014    -1.366317  -137.122650
	   79 D(4,2,3,5)      =   -128.798332     0.000003     1.070655  -127.727677
	   80 D(4,2,3,6)      =     -4.552879     0.000002     1.024463    -3.528416
	   81 D(4,2,3,7)      =    111.429955    -0.000001     0.965316   112.395271
	   82 D(5,8,11,14)    =   -179.504257    -0.000003     2.923575  -176.580682
	   83 D(5,8,11,15)    =    -56.948104    -0.000003     3.053373   -53.894731
	   84 D(5,8,11,16)    =     58.796813    -0.000007     2.934438    61.731251
	   85 D(6,3,5,8)      =    -55.055879     0.000007     4.568004   -50.487875
	   86 D(6,3,5,9)      =     66.836503     0.000015     5.750990    72.587493
	   87 D(6,3,5,10)     =   -177.903036    -0.000013     4.452391  -173.450645
	   88 D(7,3,5,8)      =   -174.263558     0.000005     4.486490  -169.777069
	   89 D(7,3,5,9)      =    -52.371176     0.000013     5.669475   -46.701701
	   90 D(7,3,5,10)     =     62.889285    -0.000015     4.370876    67.260161
	   91 D(8,11,14,17)   =   -176.596598     0.000004     0.502473  -176.094125
	   92 D(8,11,14,18)   =     60.372289     0.000003     0.427801    60.800090
	   93 D(8,11,14,19)   =    -54.987714     0.000004     0.435163   -54.552551
	   94 D(9,5,8,11)     =    -19.372208    -0.000012    -2.307088   -21.679296
	   95 D(9,5,8,12)     =   -141.346754     0.000005    -0.796471  -142.143225
	   96 D(9,5,8,13)     =    102.896930    -0.000009    -2.162788   100.734141
	   97 D(10,5,8,11)    =   -135.347777    -0.000020    -2.375101  -137.722877
	   98 D(10,5,8,12)    =    102.677677    -0.000003    -0.864484   101.813193
	   99 D(10,5,8,13)    =    -13.078639    -0.000017    -2.230801   -15.309440
	  100 D(11,14,17,20)  =    -66.224578    -0.000001    -0.155034   -66.379612
	  101 D(11,14,17,21)  =    172.186872    -0.000001    -0.142247   172.044625
	  102 D(11,14,17,22)  =     56.981338    -0.000001    -0.142828    56.838509
	  103 D(12,8,11,14)   =    -57.748430     0.000019     3.060236   -54.688194
	  104 D(12,8,11,15)   =     64.807723     0.000019     3.190033    67.997756
	  105 D(12,8,11,16)   =   -179.447360     0.000016     3.071098  -176.376261
	  106 D(13,8,11,14)   =     57.920864    -0.000006     2.358071    60.278935
	  107 D(13,8,11,15)   =   -179.522983    -0.000007     2.487868  -177.035115
	  108 D(13,8,11,16)   =    -63.778066    -0.000010     2.368934   -61.409132
	  109 D(14,17,20,23)  =    -56.476110     0.000000     0.102894   -56.373216
	  110 D(14,17,20,24)  =     64.067281     0.000000     0.100276    64.167557
	  111 D(14,17,20,25)  =   -176.029001    -0.000000     0.087910  -175.941091
	  112 D(15,11,14,17)  =     61.486861    -0.000000     0.277167    61.764028
	  113 D(15,11,14,18)  =    -61.544252    -0.000001     0.202495   -61.341758
	  114 D(15,11,14,19)  =   -176.904256    -0.000001     0.209857  -176.694399
	  115 D(16,11,14,17)  =    -54.850647    -0.000002     0.205225   -54.645422
	  116 D(16,11,14,18)  =   -177.881761    -0.000003     0.130553  -177.751208
	  117 D(16,11,14,19)  =     66.758236    -0.000002     0.137915    66.896151
	  118 D(18,14,17,20)  =     56.845579    -0.000000    -0.075017    56.770562
	  119 D(18,14,17,21)  =    -64.742971     0.000000    -0.062229   -64.805200
	  120 D(18,14,17,22)  =   -179.948506    -0.000000    -0.062811  -180.011317
	  121 D(19,14,17,20)  =    172.083666     0.000001    -0.037396   172.046270
	  122 D(19,14,17,21)  =     50.495116     0.000001    -0.024608    50.470507
	  123 D(19,14,17,22)  =    -64.710419     0.000001    -0.025190   -64.735609
	  124 D(21,17,20,23)  =     64.949311     0.000000     0.087609    65.036920
	  125 D(21,17,20,24)  =   -174.507297     0.000000     0.084991  -174.422306
	  126 D(21,17,20,25)  =    -54.603579    -0.000000     0.072625   -54.530954
	  127 D(22,17,20,23)  =   -179.622414     0.000000     0.094455  -179.527959
	  128 D(22,17,20,24)  =    -59.079022    -0.000000     0.091837   -58.987185
	  129 D(22,17,20,25)  =     60.824695    -0.000000     0.079471    60.904167
	 ---------------------------------------------------------------------------
	Successfully symmetrized geometry.

  ==> Convergence Check <==

  Measures of convergence in internal coordinates in au.
  Criteria marked as inactive (o), active & met (*), and active & unmet ( ).
  --------------------------------------------------------------------------------------------- ~
   Step     Total Energy     Delta E     MAX Force     RMS Force      MAX Disp      RMS Disp    ~
  --------------------------------------------------------------------------------------------- ~
    Convergence Criteria    1.00e-06 *    3.00e-04 *             o    1.20e-03 *             o  ~
  --------------------------------------------------------------------------------------------- ~
      1    -387.25580288   -3.87e+02      9.73e-03      1.01e-03 o    1.00e-01      2.81e-02 o  ~
  ---------------------------------------------------------------------------------------------

	Writing optimization data to binary file.
	Structure for next step:
	Cartesian Geometry (in Angstrom)
	    H    -3.7553269103   0.4092518905  -1.0066833681
	    C    -2.8289158117   0.8839501701  -1.3574045159
	    C    -1.9670877721   1.4733859518  -0.2742603915
	    O    -2.5742668589   0.9057670222  -2.5116234801
	    C    -1.6633702496   0.4728094924   0.8459905869
	    H    -1.0601791048   1.8569317735  -0.7239916441
	    H    -2.5189687919   2.3170973336   0.1348758346
	    C    -0.6736509026  -0.6428454753   0.4446624775
	    H    -1.2810864058   1.0205419069   1.6993033175
	    H    -2.6028656465   0.0396949346   1.1749342108
	    C     0.7505409455  -0.3929908805   0.9375916782
	    H    -0.6344227355  -0.7353663682  -0.6365377538
	    H    -1.0142673898  -1.6011774512   0.8223024892
	    C     1.7417404102  -1.4557893616   0.4682306881
	    H     1.0732697053   0.5887530949   0.6041589172
	    H     0.7459722768  -0.3609278644   2.0245551068
	    C     3.1613201387  -1.2967790356   1.0156526832
	    H     1.7757716792  -1.4603845375  -0.6186615663
	    H     1.3665215733  -2.4320269872   0.7630768013
	    C     3.8989804139  -0.0530762410   0.5256772893
	    H     3.7359087896  -2.1741683289   0.7354542119
	    H     3.1282041434  -1.2918834772   2.1021101037
	    H     3.9404807741  -0.0267463772  -0.5584532704
	    H     3.4225118412   0.8605136153   0.8603499824
	    H     4.9182404619  -0.0409420066   0.8944291348
			--------------------------
			 OPTKING Finished Execution 
			--------------------------

    Structure for next step:
    Molecular point group: c1
    Full point group: C1

    Geometry (in Angstrom), charge = 0, multiplicity = 1:

    H           -3.748983044866     0.414738254842    -1.002284588974
    C           -2.822571946290     0.889436534438    -1.353005736841
    C           -1.960743906640     1.478872316181    -0.269861612454
    O           -2.567922993410     0.911253386506    -2.507224701015
    C           -1.657026384177     0.478295856762     0.850389365974
    H           -1.053835239372     1.862418137854    -0.719592865024
    H           -2.512624926431     2.322583697940     0.139274613740
    C           -0.667307037164    -0.637359110940     0.449061256544
    H           -1.274742540331     1.026028271205     1.703702096595
    H           -2.596521781085     0.045181298900     1.179332989927
    C            0.756884810930    -0.387504516133     0.941990457322
    H           -0.628078869998    -0.729880003832    -0.632138974726
    H           -1.007923524322    -1.595691086840     0.826701268333
    C            1.748084275701    -1.450302997286     0.472629467208
    H            1.079613570718     0.594239459214     0.608557696262
    H            0.752316142281    -0.355441500042     2.028953885882
    C            3.167664004181    -1.291292671254     1.020051462249
    H            1.782115544611    -1.454898173166    -0.614262787233
    H            1.372865438722    -2.426540622911     0.767475580389
    C            3.905324279350    -0.047589876649     0.530076068416
    H            3.742252655023    -2.168681964560     0.739852990952
    H            3.134548008890    -1.286397112906     2.106508882800
    H            3.946824639551    -0.021260012886    -0.554054491286
    H            3.428855706702     0.865999979681     0.864748761531
    H            4.924584327406    -0.035455642314     0.898827913849

gradient() will perform analytic gradient computation.

*** tstart() called on cx1-27-2-1
*** at Sat Sep 10 23:56:51 2016


         ---------------------------------------------------------
                                   SCF
            by Justin Turney, Rob Parrish, and Andy Simmonett
                              RHF Reference
                        4 Threads,   2000 MiB Core
         ---------------------------------------------------------

  ==> Geometry <==

    Molecular point group: c1
    Full point group: C1

    Geometry (in Angstrom), charge = 0, multiplicity = 1:

       Center              X                  Y                   Z               Mass       
    ------------   -----------------  -----------------  -----------------  -----------------
           H         -3.748983044866     0.414738254842    -1.002284588974     1.007825032070
           C         -2.822571946290     0.889436534438    -1.353005736841    12.000000000000
           C         -1.960743906640     1.478872316181    -0.269861612454    12.000000000000
           O         -2.567922993410     0.911253386506    -2.507224701015    15.994914619560
           C         -1.657026384177     0.478295856762     0.850389365974    12.000000000000
           H         -1.053835239372     1.862418137854    -0.719592865024     1.007825032070
           H         -2.512624926431     2.322583697940     0.139274613740     1.007825032070
           C         -0.667307037164    -0.637359110940     0.449061256544    12.000000000000
           H         -1.274742540331     1.026028271205     1.703702096595     1.007825032070
           H         -2.596521781085     0.045181298900     1.179332989927     1.007825032070
           C          0.756884810930    -0.387504516133     0.941990457322    12.000000000000
           H         -0.628078869998    -0.729880003832    -0.632138974726     1.007825032070
           H         -1.007923524322    -1.595691086840     0.826701268333     1.007825032070
           C          1.748084275701    -1.450302997286     0.472629467208    12.000000000000
           H          1.079613570718     0.594239459214     0.608557696262     1.007825032070
           H          0.752316142281    -0.355441500042     2.028953885882     1.007825032070
           C          3.167664004181    -1.291292671254     1.020051462249    12.000000000000
           H          1.782115544611    -1.454898173166    -0.614262787233     1.007825032070
           H          1.372865438722    -2.426540622911     0.767475580389     1.007825032070
           C          3.905324279350    -0.047589876649     0.530076068416    12.000000000000
           H          3.742252655023    -2.168681964560     0.739852990952     1.007825032070
           H          3.134548008890    -1.286397112906     2.106508882800     1.007825032070
           H          3.946824639551    -0.021260012886    -0.554054491286     1.007825032070
           H          3.428855706702     0.865999979681     0.864748761531     1.007825032070
           H          4.924584327406    -0.035455642314     0.898827913849     1.007825032070

  Running in c1 symmetry.

  Rotational constants: A =      0.10421  B =      0.01755  C =      0.01681 [cm^-1]
  Rotational constants: A =   3124.25968  B =    526.25820  C =    503.83371 [MHz]
  Nuclear repulsion =  443.533600267529778

  Charge       = 0
  Multiplicity = 1
  Electrons    = 72
  Nalpha       = 36
  Nbeta        = 36

  ==> Algorithm <==

  SCF Algorithm Type is DF.
  DIIS enabled.
  MOM disabled.
  Fractional occupation disabled.
  Guess Type is READ.
  Energy threshold   = 1.00e-08
  Density threshold  = 1.00e-08
  Integral threshold = 0.00e+00

  ==> Primary Basis <==

  Basis Set: CC-PVTZ
    Number of shells: 186
    Number of basis function: 494
    Number of Cartesian functions: 555
    Spherical Harmonics?: true
    Max angular momentum: 3

  ==> Pre-Iterations <==

   -------------------------------------------------------
    Irrep   Nso     Nmo     Nalpha   Nbeta   Ndocc  Nsocc
   -------------------------------------------------------
     A        494     494       0       0       0       0
   -------------------------------------------------------
    Total     494     494      36      36      36       0
   -------------------------------------------------------

  ==> Integral Setup <==

  ==> DFJK: Density-Fitted J/K Matrices <==

    J tasked:                  Yes
    K tasked:                  Yes
    wK tasked:                  No
    OpenMP threads:              4
    Integrals threads:           4
    Memory (MB):              1430
    Algorithm:                Core
    Integral Cache:           NONE
    Schwarz Cutoff:          1E-12
    Fitting Condition:       1E-12

   => Auxiliary Basis Set <=

  Basis Set: 
    Number of shells: 385
    Number of basis function: 1191
    Number of Cartesian functions: 1424
    Spherical Harmonics?: true
    Max angular momentum: 4

  Minimum eigenvalue in the overlap matrix is 2.8314930977E-04.
  Using Symmetric Orthogonalization.
  SCF Guess: Reading in previously saved MOs, projecting if necessary.

  Using orbitals from previous SCF, no projection.
  Recomputing DOCC and SOCC from number of alpha and beta electrons from previous calculation.
              A 
    DOCC [    36 ]

  ==> Iterations <==

                           Total Energy        Delta E     RMS |[F,P]|

   @DF-RHF iter   0:  -387.24303820907210   -3.87243e+02   2.73803e-04 
   @DF-RHF iter   1:  -387.25538281015281   -1.23446e-02   4.62229e-05 
   @DF-RHF iter   2:  -387.25588942208503   -5.06612e-04   1.74221e-05 DIIS
   @DF-RHF iter   3:  -387.25599730177021   -1.07880e-04   8.03744e-06 DIIS
   @DF-RHF iter   4:  -387.25601800513198   -2.07034e-05   4.02394e-06 DIIS
   @DF-RHF iter   5:  -387.25602782916769   -9.82404e-06   2.23615e-06 DIIS
   @DF-RHF iter   6:  -387.25603121347865   -3.38431e-06   8.05667e-07 DIIS
   @DF-RHF iter   7:  -387.25603163027597   -4.16797e-07   2.90787e-07 DIIS
   @DF-RHF iter   8:  -387.25603167524866   -4.49727e-08   1.01707e-07 DIIS
   @DF-RHF iter   9:  -387.25603168039288   -5.14422e-09   3.05530e-08 DIIS
   @DF-RHF iter  10:  -387.25603168075520   -3.62320e-10   9.73202e-09 DIIS

  ==> Post-Iterations <==

    Orbital Energies (a.u.)
    -----------------------

    Doubly Occupied:                                                      

       1A    -20.552067     2A    -11.321169     3A    -11.234108  
       4A    -11.233141     5A    -11.221421     6A    -11.216949  
       7A    -11.215510     8A    -11.214118     9A    -11.207633  
      10A     -1.406951    11A     -1.103247    12A     -1.069583  
      13A     -1.013303    14A     -0.942313    15A     -0.876778  
      16A     -0.821119    17A     -0.787936    18A     -0.781091  
      19A     -0.668115    20A     -0.655883    21A     -0.644569  
      22A     -0.619761    23A     -0.609048    24A     -0.592202  
      25A     -0.574788    26A     -0.548065    27A     -0.541259  
      28A     -0.523701    29A     -0.512892    30A     -0.501353  
      31A     -0.485325    32A     -0.475842    33A     -0.463400  
      34A     -0.457166    35A     -0.442848    36A     -0.412551  

    Virtual:                                                              

      37A      0.134580    38A      0.140427    39A      0.151297  
      40A      0.156422    41A      0.165625    42A      0.170287  
      43A      0.178979    44A      0.201511    45A      0.205314  
      46A      0.212980    47A      0.222696    48A      0.224651  
      49A      0.241058    50A      0.245360    51A      0.254567  
      52A      0.273675    53A      0.276994    54A      0.297085  
      55A      0.314323    56A      0.337279    57A      0.339944  
      58A      0.356940    59A      0.363508    60A      0.377098  
      61A      0.386100    62A      0.398730    63A      0.407342  
      64A      0.421615    65A      0.437712    66A      0.450875  
      67A      0.465487    68A      0.471243    69A      0.482414  
      70A      0.496618    71A      0.510338    72A      0.523883  
      73A      0.538848    74A      0.558749    75A      0.561759  
      76A      0.569968    77A      0.585822    78A      0.591686  
      79A      0.592162    80A      0.606504    81A      0.612919  
      82A      0.619601    83A      0.624398    84A      0.632582  
      85A      0.638088    86A      0.650371    87A      0.652249  
      88A      0.655188    89A      0.664890    90A      0.668767  
      91A      0.672324    92A      0.676823    93A      0.684453  
      94A      0.688964    95A      0.693544    96A      0.707186  
      97A      0.713715    98A      0.721518    99A      0.735191  
     100A      0.748801   101A      0.755128   102A      0.777207  
     103A      0.788098   104A      0.816962   105A      0.822465  
     106A      0.849850   107A      0.860255   108A      0.876990  
     109A      0.894538   110A      0.902744   111A      0.928318  
     112A      0.938043   113A      0.943756   114A      0.972874  
     115A      0.976152   116A      0.978258   117A      0.986543  
     118A      1.009090   119A      1.031376   120A      1.043616  
     121A      1.056582   122A      1.072278   123A      1.090283  
     124A      1.102598   125A      1.121215   126A      1.125285  
     127A      1.158723   128A      1.170085   129A      1.172310  
     130A      1.195805   131A      1.204071   132A      1.211186  
     133A      1.227490   134A      1.240487   135A      1.244612  
     136A      1.257101   137A      1.265513   138A      1.266583  
     139A      1.289791   140A      1.294528   141A      1.297045  
     142A      1.321571   143A      1.325719   144A      1.336294  
     145A      1.341979   146A      1.350674   147A      1.361823  
     148A      1.376923   149A      1.378466   150A      1.384501  
     151A      1.393418   152A      1.399967   153A      1.405665  
     154A      1.408755   155A      1.418138   156A      1.426398  
     157A      1.435172   158A      1.442309   159A      1.455711  
     160A      1.476898   161A      1.484081   162A      1.489955  
     163A      1.503772   164A      1.513248   165A      1.522125  
     166A      1.524806   167A      1.533807   168A      1.546402  
     169A      1.557376   170A      1.565290   171A      1.566765  
     172A      1.593787   173A      1.608323   174A      1.619179  
     175A      1.644124   176A      1.646151   177A      1.658261  
     178A      1.679047   179A      1.681436   180A      1.688128  
     181A      1.706462   182A      1.724971   183A      1.731170  
     184A      1.736770   185A      1.745854   186A      1.760076  
     187A      1.781740   188A      1.788073   189A      1.816922  
     190A      1.823635   191A      1.841218   192A      1.842451  
     193A      1.850314   194A      1.864516   195A      1.897458  
     196A      1.944269   197A      1.963368   198A      1.996127  
     199A      2.017557   200A      2.041818   201A      2.048117  
     202A      2.089533   203A      2.199632   204A      2.319473  
     205A      2.376638   206A      2.453881   207A      2.465699  
     208A      2.518773   209A      2.563848   210A      2.590249  
     211A      2.600439   212A      2.629246   213A      2.659023  
     214A      2.661084   215A      2.687768   216A      2.692236  
     217A      2.699796   218A      2.719751   219A      2.731642  
     220A      2.742138   221A      2.769598   222A      2.773498  
     223A      2.786053   224A      2.798086   225A      2.815582  
     226A      2.826156   227A      2.842707   228A      2.852810  
     229A      2.868932   230A      2.876389   231A      2.893496  
     232A      2.899164   233A      2.923441   234A      2.927605  
     235A      2.935018   236A      2.958277   237A      2.968729  
     238A      2.986247   239A      2.989681   240A      3.007442  
     241A      3.017193   242A      3.033147   243A      3.043017  
     244A      3.062350   245A      3.066476   246A      3.073350  
     247A      3.089895   248A      3.105918   249A      3.132757  
     250A      3.140885   251A      3.146463   252A      3.163015  
     253A      3.167518   254A      3.181522   255A      3.206037  
     256A      3.211763   257A      3.234570   258A      3.243454  
     259A      3.256292   260A      3.261555   261A      3.265778  
     262A      3.285980   263A      3.295065   264A      3.310444  
     265A      3.319350   266A      3.333057   267A      3.355922  
     268A      3.359399   269A      3.366382   270A      3.372769  
     271A      3.381642   272A      3.401112   273A      3.408646  
     274A      3.416567   275A      3.419035   276A      3.435959  
     277A      3.440200   278A      3.447080   279A      3.462130  
     280A      3.467151   281A      3.473667   282A      3.481740  
     283A      3.484016   284A      3.495947   285A      3.515353  
     286A      3.516137   287A      3.524814   288A      3.530951  
     289A      3.544207   290A      3.556449   291A      3.558775  
     292A      3.568503   293A      3.598245   294A      3.601687  
     295A      3.608763   296A      3.628883   297A      3.641288  
     298A      3.641736   299A      3.658958   300A      3.662047  
     301A      3.677785   302A      3.707871   303A      3.710736  
     304A      3.723987   305A      3.743282   306A      3.766560  
     307A      3.772753   308A      3.784987   309A      3.799570  
     310A      3.814715   311A      3.830714   312A      3.834342  
     313A      3.843991   314A      3.859115   315A      3.860467  
     316A      3.879508   317A      3.897346   318A      3.899661  
     319A      3.908673   320A      3.925092   321A      3.936292  
     322A      3.939540   323A      3.958081   324A      3.969680  
     325A      3.989387   326A      3.996168   327A      4.020248  
     328A      4.034355   329A      4.040796   330A      4.060835  
     331A      4.080972   332A      4.093101   333A      4.109705  
     334A      4.118027   335A      4.121601   336A      4.128365  
     337A      4.135202   338A      4.144704   339A      4.149603  
     340A      4.156668   341A      4.163106   342A      4.178370  
     343A      4.183130   344A      4.200579   345A      4.209693  
     346A      4.224889   347A      4.237235   348A      4.252362  
     349A      4.261181   350A      4.268251   351A      4.279039  
     352A      4.292977   353A      4.298029   354A      4.322651  
     355A      4.339610   356A      4.348496   357A      4.357314  
     358A      4.363515   359A      4.379849   360A      4.387891  
     361A      4.395062   362A      4.410014   363A      4.414875  
     364A      4.439534   365A      4.450116   366A      4.456869  
     367A      4.463387   368A      4.478826   369A      4.488281  
     370A      4.499568   371A      4.503425   372A      4.521922  
     373A      4.527033   374A      4.531839   375A      4.550825  
     376A      4.557883   377A      4.570040   378A      4.584796  
     379A      4.609867   380A      4.610229   381A      4.628794  
     382A      4.635930   383A      4.644307   384A      4.651819  
     385A      4.665191   386A      4.674652   387A      4.692469  
     388A      4.700729   389A      4.717222   390A      4.726366  
     391A      4.748518   392A      4.756415   393A      4.783153  
     394A      4.792444   395A      4.816315   396A      4.820648  
     397A      4.843305   398A      4.855398   399A      4.887277  
     400A      4.932032   401A      4.949368   402A      4.963154  
     403A      4.984476   404A      5.003509   405A      5.008693  
     406A      5.029124   407A      5.039760   408A      5.047326  
     409A      5.085001   410A      5.109415   411A      5.112768  
     412A      5.135071   413A      5.162289   414A      5.171187  
     415A      5.191975   416A      5.216604   417A      5.225238  
     418A      5.244358   419A      5.255452   420A      5.272087  
     421A      5.290966   422A      5.309910   423A      5.320109  
     424A      5.336786   425A      5.352216   426A      5.370973  
     427A      5.377731   428A      5.388307   429A      5.409160  
     430A      5.418474   431A      5.440704   432A      5.454623  
     433A      5.474741   434A      5.494151   435A      5.509610  
     436A      5.524060   437A      5.538971   438A      5.552277  
     439A      5.577724   440A      5.612164   441A      5.627983  
     442A      5.638875   443A      5.657915   444A      5.700282  
     445A      5.741108   446A      5.754366   447A      5.758479  
     448A      5.774706   449A      5.782876   450A      5.790002  
     451A      5.816098   452A      5.819803   453A      5.825600  
     454A      5.854235   455A      5.871810   456A      5.890083  
     457A      5.901259   458A      5.916377   459A      5.942313  
     460A      5.951647   461A      5.976724   462A      5.994522  
     463A      6.005628   464A      6.014546   465A      6.072232  
     466A      6.111778   467A      6.147889   468A      6.165263  
     469A      6.309263   470A      6.338374   471A      6.340344  
     472A      6.368273   473A      6.393943   474A      6.423385  
     475A      6.438977   476A      6.488157   477A      6.530773  
     478A      6.781766   479A      6.793665   480A      6.916430  
     481A      6.972703   482A      7.366599   483A      7.393082  
     484A      7.541974   485A      7.592426   486A     10.854546  
     487A     12.874262   488A     13.194452   489A     13.302471  
     490A     13.663543   491A     13.803786   492A     14.019573  
     493A     14.254996   494A     14.298091  

    Final Occupation by Irrep:
              A 
    DOCC [    36 ]

  Energy converged.

  @DF-RHF Final Energy:  -387.25603168075520

   => Energetics <=

    Nuclear Repulsion Energy =            443.5336002675297777
    One-Electron Energy =               -1403.6848496679681375
    Two-Electron Energy =                 572.8952177196833873
    DFT Exchange-Correlation Energy =       0.0000000000000000
    Empirical Dispersion Energy =           0.0000000000000000
    PCM Polarization Energy =               0.0000000000000000
    EFP Energy =                            0.0000000000000000
    Total Energy =                       -387.2560316807549725


  Saving occupied orbitals to File 180.

*** tstop() called on cx1-27-2-1 at Sat Sep 10 23:57:10 2016
Module time:
	user time   =      65.47 seconds =       1.09 minutes
	system time =       1.11 seconds =       0.02 minutes
	total time  =         19 seconds =       0.32 minutes
Total time:
	user time   =     225.35 seconds =       3.76 minutes
	system time =       3.61 seconds =       0.06 minutes
	total time  =         63 seconds =       1.05 minutes


Properties will be evaluated at   0.000000,   0.000000,   0.000000 Bohr

Properties computed using the SCF density matrix

  Nuclear Dipole Moment: (a.u.)
     X:    10.6198      Y:    -2.7546      Z:     7.8080

  Electronic Dipole Moment: (a.u.)
     X:   -10.6036      Y:     2.7216      Z:    -6.5820

  Dipole Moment: (a.u.)
     X:     0.0161      Y:    -0.0331      Z:     1.2260     Total:     1.2265

  Dipole Moment: (Debye)
     X:     0.0410      Y:    -0.0840      Z:     3.1161     Total:     3.1175


*** tstart() called on cx1-27-2-1
*** at Sat Sep 10 23:57:10 2016


         ------------------------------------------------------------
                                   SCF GRAD                          
                          Rob Parrish, Justin Turney,                
                       Andy Simmonett, and Alex Sokolov              
         ------------------------------------------------------------

  ==> Geometry <==

    Molecular point group: c1
    Full point group: C1

    Geometry (in Angstrom), charge = 0, multiplicity = 1:

       Center              X                  Y                   Z               Mass       
    ------------   -----------------  -----------------  -----------------  -----------------
           H         -3.748983044866     0.414738254842    -1.002284588974     1.007825032070
           C         -2.822571946290     0.889436534438    -1.353005736841    12.000000000000
           C         -1.960743906640     1.478872316181    -0.269861612454    12.000000000000
           O         -2.567922993410     0.911253386506    -2.507224701015    15.994914619560
           C         -1.657026384177     0.478295856762     0.850389365974    12.000000000000
           H         -1.053835239372     1.862418137854    -0.719592865024     1.007825032070
           H         -2.512624926431     2.322583697940     0.139274613740     1.007825032070
           C         -0.667307037164    -0.637359110940     0.449061256544    12.000000000000
           H         -1.274742540331     1.026028271205     1.703702096595     1.007825032070
           H         -2.596521781085     0.045181298900     1.179332989927     1.007825032070
           C          0.756884810930    -0.387504516133     0.941990457322    12.000000000000
           H         -0.628078869998    -0.729880003832    -0.632138974726     1.007825032070
           H         -1.007923524322    -1.595691086840     0.826701268333     1.007825032070
           C          1.748084275701    -1.450302997286     0.472629467208    12.000000000000
           H          1.079613570718     0.594239459214     0.608557696262     1.007825032070
           H          0.752316142281    -0.355441500042     2.028953885882     1.007825032070
           C          3.167664004181    -1.291292671254     1.020051462249    12.000000000000
           H          1.782115544611    -1.454898173166    -0.614262787233     1.007825032070
           H          1.372865438722    -2.426540622911     0.767475580389     1.007825032070
           C          3.905324279350    -0.047589876649     0.530076068416    12.000000000000
           H          3.742252655023    -2.168681964560     0.739852990952     1.007825032070
           H          3.134548008890    -1.286397112906     2.106508882800     1.007825032070
           H          3.946824639551    -0.021260012886    -0.554054491286     1.007825032070
           H          3.428855706702     0.865999979681     0.864748761531     1.007825032070
           H          4.924584327406    -0.035455642314     0.898827913849     1.007825032070

  Nuclear repulsion =  443.533600267529835

  ==> Basis Set <==

  Basis Set: CC-PVTZ
    Number of shells: 186
    Number of basis function: 494
    Number of Cartesian functions: 555
    Spherical Harmonics?: true
    Max angular momentum: 3

  ==> DFJKGrad: Density-Fitted SCF Gradients <==

    Gradient:                    1
    J tasked:                  Yes
    K tasked:                  Yes
    wK tasked:                  No
    OpenMP threads:              4
    Integrals threads:           4
    Memory (MB):              1430
    Schwarz Cutoff:          0E+00
    Fitting Condition:       1E-12

   => Auxiliary Basis Set <=

  Basis Set: 
    Number of shells: 385
    Number of basis function: 1191
    Number of Cartesian functions: 1424
    Spherical Harmonics?: true
    Max angular momentum: 4


  -Total Gradient:
     Atom            X                  Y                   Z
    ------   -----------------  -----------------  -----------------
       1        0.000091788411    -0.000425822421     0.000042001015
       2       -0.001333920426     0.000887511313     0.000311261905
       3       -0.001974974096    -0.001231798349    -0.000195392187
       4        0.000411931248     0.000037408778     0.000211215659
       5        0.001843710814     0.002465052628     0.000605622546
       6        0.000323354585    -0.000310869363     0.000335970334
       7       -0.000035689958     0.000253523583    -0.000322834536
       8       -0.001898546219    -0.002558227302     0.001066015064
       9       -0.000893506360     0.000867573778    -0.000092441004
      10       -0.000098126834     0.000971354483    -0.000186901592
      11       -0.000276190771    -0.001114992728    -0.001231048446
      12        0.003334512076     0.000932000548     0.000209869229
      13        0.000496783232    -0.000732546397    -0.000459756883
      14        0.000493463921     0.000038863626    -0.000126013332
      15        0.000037368425     0.000017081013     0.000037146561
      16       -0.000571250435    -0.000197542167    -0.000231258906
      17        0.000034553544     0.000016133938    -0.000086250645
      18        0.000009678725    -0.000046332713    -0.000011487515
      19       -0.000053686829     0.000146331844     0.000048999041
      20       -0.000012308894    -0.000057299515     0.000015986047
      21        0.000009988296    -0.000013294673     0.000012838874
      22       -0.000005161033     0.000003934968     0.000057031154
      23        0.000014677801     0.000015100175     0.000008091800
      24        0.000047764256     0.000004963596    -0.000005388398
      25        0.000003786520     0.000031891354    -0.000013275789


*** tstop() called on cx1-27-2-1 at Sat Sep 10 23:57:30 2016
Module time:
	user time   =      77.38 seconds =       1.29 minutes
[...]
	 D(19,14,17,21)   =         0.884681	      50.688511
	 D(19,14,17,22)   =        -1.126280	     -64.531071
	 D(21,17,20,23)   =         1.135177	      65.040845
	 D(21,17,20,24)   =        -3.044480	    -174.435867
	 D(21,17,20,25)   =        -0.951842	     -54.536542
	 D(22,17,20,23)   =        -3.133143	    -179.515866
	 D(22,17,20,24)   =        -1.029615	     -58.992578
	 D(22,17,20,25)   =         1.063023	      60.906747

	Current energy   :      -387.2561551457

	Energy change for the previous step:
		Projected    :        -0.0000045144
		Actual       :        -0.0000009615
	Energy ratio indicates iffy step: Trust radius decreased to 1.562e-02.


	Performing BFGS update.
	Previous computed or guess Hessian on step 1.
	Steps to be used in Hessian update: 7 6
	Taking RFO optimization step.
	Going to follow RFO solution 1.
	Using RFO vector 1.
	Norm of target step-size    0.01375
	Projected energy change by RFO approximation:        -0.0000011554

	Back-transformation to cartesian coordinates...
	Successfully converged to displaced geometry.

	Back-transformation to cartesian coordinates to adjust frozen coordinates...
	Successfully converged to displaced geometry.

	--- Internal Coordinate Step in ANG or DEG, aJ/ANG or AJ/DEG ---
	 ---------------------------------------------------------------------------
	   Coordinate                Previous        Force       Change         New 
	   ----------                --------       ------       ------       ------
	    1 R(1,2)          =      1.098330     0.000069     0.000011     1.098341
	    2 R(2,3)          =      1.504496    -0.000665    -0.000148     1.504348
	    3 R(2,4)          =      1.182282    -0.000743    -0.000035     1.182247
	    4 R(3,5)          =      1.533144     0.000074     0.000098     1.533242
	    5 R(3,6)          =      1.082499     0.000086     0.000001     1.082500
	    6 R(3,7)          =      1.087780    -0.000157    -0.000057     1.087723
	    7 R(5,8)          =      1.540146     0.000064    -0.000009     1.540136
	    8 R(5,9)          =      1.083452    -0.000086    -0.000011     1.083441
	    9 R(5,10)         =      1.086026    -0.000001     0.000001     1.086028
	   10 R(8,11)         =      1.529267    -0.000182    -0.000037     1.529230
	   11 R(8,12)         =      1.085605    -0.000166    -0.000036     1.085569
	   12 R(8,13)         =      1.084297    -0.000021     0.000003     1.084300
	   13 R(11,14)        =      1.526885     0.000447     0.000085     1.526969
	   14 R(11,15)        =      1.085811    -0.000063    -0.000008     1.085804
	   15 R(11,16)        =      1.087668     0.000026     0.000005     1.087673
	   16 R(14,17)        =      1.529695     0.000053     0.000009     1.529704
	   17 R(14,18)        =      1.087416    -0.000024    -0.000005     1.087411
	   18 R(14,19)        =      1.086740    -0.000035    -0.000006     1.086734
	   19 R(17,20)        =      1.526772     0.000062     0.000009     1.526781
	   20 R(17,21)        =      1.085568     0.000041     0.000007     1.085574
	   21 R(17,22)        =      1.086924    -0.000035    -0.000006     1.086918
	   22 R(20,23)        =      1.085250     0.000003     0.000001     1.085251
	   23 R(20,24)        =      1.083381    -0.000001     0.000001     1.083382
	   24 R(20,25)        =      1.083985    -0.000024    -0.000003     1.083982
	   25 B(1,2,3)        =    114.911121     0.000002     0.000853   114.911973
	   26 B(1,2,4)        =    120.025707     0.000004     0.012315   120.038022
	   27 B(2,3,5)        =    112.322650    -0.000003    -0.029017   112.293633
	   28 B(2,3,6)        =    108.524160     0.000003     0.024287   108.548447
	   29 B(2,3,7)        =    106.761788    -0.000000     0.011983   106.773771
	   30 B(3,2,4)        =    125.062475    -0.000006    -0.012977   125.049498
	   31 B(3,5,8)        =    113.841857     0.000005     0.012240   113.854098
	   32 B(3,5,9)        =    108.766714    -0.000003    -0.017712   108.749002
	   33 B(3,5,10)       =    108.308250    -0.000002    -0.002521   108.305728
	   34 B(5,3,6)        =    111.810729    -0.000002    -0.017937   111.792792
	   35 B(5,3,7)        =    109.261388     0.000001    -0.004449   109.256939
	   36 B(5,8,11)       =    112.978181     0.000001     0.003590   112.981770
	   37 B(5,8,12)       =    109.777838    -0.000001    -0.006830   109.771009
	   38 B(5,8,13)       =    110.011696     0.000000     0.003569   110.015265
	   39 B(6,3,7)        =    107.945490     0.000000     0.018340   107.963830
	   40 B(8,5,9)        =    109.887859    -0.000002    -0.004612   109.883247
	   41 B(8,5,10)       =    109.923796    -0.000001     0.007929   109.931725
	   42 B(8,11,14)      =    112.914911     0.000002     0.006445   112.921356
	   43 B(8,11,15)      =    108.959196    -0.000002    -0.012000   108.947196
	   44 B(8,11,16)      =    109.123986    -0.000001     0.001282   109.125268
	   45 B(9,5,10)       =    105.785566     0.000001     0.003938   105.789503
	   46 B(11,8,12)      =    107.911187    -0.000000     0.003995   107.915182
	   47 B(11,8,13)      =    109.098872    -0.000001    -0.004020   109.094852
	   48 B(11,14,17)     =    114.830660     0.000002     0.005642   114.836302
	   49 B(11,14,18)     =    109.256298    -0.000000     0.000260   109.256558
	   50 B(11,14,19)     =    108.587928     0.000000     0.003954   108.591883
	   51 B(12,8,13)      =    106.858288     0.000001    -0.000531   106.857756
	   52 B(14,11,15)     =    110.016412     0.000000    -0.000513   110.015900
	   53 B(14,11,16)     =    109.271370    -0.000000     0.006404   109.277774
	   54 B(14,17,20)     =    114.698234    -0.000000    -0.000210   114.698024
	   55 B(14,17,21)     =    108.357354     0.000001     0.006164   108.363519
	   56 B(14,17,22)     =    109.267034    -0.000000    -0.003908   109.263125
	   57 B(15,11,16)     =    106.338567     0.000000    -0.002140   106.336427
	   58 B(17,14,18)     =    109.201837    -0.000001    -0.003855   109.197983
	   59 B(17,14,19)     =    108.459975    -0.000001    -0.003382   108.456593
	   60 B(17,20,23)     =    111.020698     0.000000     0.000572   111.021270
	   61 B(17,20,24)     =    112.023137    -0.000000    -0.000274   112.022864
	   62 B(17,20,25)     =    110.743425    -0.000000     0.000028   110.743453
	   63 B(18,14,19)     =    106.146859     0.000000    -0.003286   106.143573
	   64 B(20,17,21)     =    108.661043    -0.000000    -0.000421   108.660622
	   65 B(20,17,22)     =    109.374760     0.000000    -0.000747   109.374012
	   66 B(21,17,22)     =    106.130900    -0.000000    -0.000838   106.130061
	   67 B(23,20,24)     =    107.757460     0.000000     0.000631   107.758092
	   68 B(23,20,25)     =    107.688079    -0.000000    -0.000296   107.687783
	   69 B(24,20,25)     =    107.417795    -0.000000    -0.000688   107.417107
	   70 D(1,2,3,5)      =     54.901148    -0.000000     0.239273    55.140421
	   71 D(1,2,3,6)      =    179.037313    -0.000000     0.214074   179.251386
	   72 D(1,2,3,7)      =    -64.840638     0.000000     0.253879   -64.586759
	   73 D(2,3,5,8)      =     69.241641     0.000000     0.095557    69.337198
	   74 D(2,3,5,9)      =   -167.873123     0.000000     0.084830  -167.788293
	   75 D(2,3,5,10)     =    -53.350205     0.000000     0.078956   -53.271249
	   76 D(3,5,8,11)     =    100.494864    -0.000000     0.002679   100.497543
	   77 *D(3,5,8,12)    =    -20.000016     0.000000    -0.000000   -20.000016
	   78 D(3,5,8,13)     =   -137.319345    -0.000000     0.002600  -137.316745
	   79 D(4,2,3,5)      =   -125.404241     0.000000     0.284485  -125.119757
	   80 D(4,2,3,6)      =     -1.268076    -0.000000     0.259285    -1.008791
	   81 D(4,2,3,7)      =    114.853973     0.000000     0.299090   115.153063
	   82 D(5,8,11,14)    =   -177.338824     0.000000    -0.072321  -177.411145
	   83 D(5,8,11,15)    =    -54.780979     0.000000    -0.077262   -54.858240
	   84 D(5,8,11,16)    =     60.937091    -0.000000    -0.085713    60.851378
	   85 D(6,3,5,8)      =    -53.050527     0.000000     0.098340   -52.952187
	   86 D(6,3,5,9)      =     69.834709     0.000000     0.087612    69.922321
	   87 D(6,3,5,10)     =   -175.642373    -0.000000     0.081739  -175.560635
	   88 D(7,3,5,8)      =   -172.482391     0.000000     0.089650  -172.392741
	   89 D(7,3,5,9)      =    -49.597155     0.000000     0.078923   -49.518232
	   90 D(7,3,5,10)     =     64.925763    -0.000000     0.073049    64.998812
	   91 D(8,11,14,17)   =   -175.927882    -0.000000    -0.100671  -176.028554
	   92 D(8,11,14,18)   =     61.011862    -0.000000    -0.099856    60.912007
	   93 D(8,11,14,19)   =    -54.346421    -0.000000    -0.098251   -54.444672
	   94 D(9,5,8,11)     =    -21.774968     0.000000     0.020551   -21.754417
	   95 D(9,5,8,12)     =   -142.269848     0.000000     0.017872  -142.251976
	   96 D(9,5,8,13)     =    100.410824     0.000000     0.020472   100.431296
	   97 D(10,5,8,11)    =   -137.804350     0.000000     0.013862  -137.790489
	   98 D(10,5,8,12)    =    101.700770     0.000000     0.011182   101.711952
	   99 D(10,5,8,13)    =    -15.618559     0.000000     0.013782   -15.604776
	  100 D(11,14,17,20)  =    -66.080824     0.000000     0.028549   -66.052275
	  101 D(11,14,17,21)  =    172.339615     0.000000     0.024648   172.364263
	  102 D(11,14,17,22)  =     57.120033     0.000000     0.024374    57.144407
	  103 D(12,8,11,14)   =    -55.784631    -0.000000    -0.075853   -55.860484
	  104 D(12,8,11,15)   =     66.773214     0.000000    -0.080794    66.692420
	  105 D(12,8,11,16)   =   -177.508716    -0.000000    -0.089245  -177.597961
	  106 D(13,8,11,14)   =     59.965262    -0.000000    -0.076436    59.888825
	  107 D(13,8,11,15)   =   -177.476893    -0.000000    -0.081377  -177.558270
	  108 D(13,8,11,16)   =    -61.758823    -0.000000    -0.089828   -61.848651
	  109 D(14,17,20,23)  =    -56.372788    -0.000000     0.007216   -56.365572
	  110 D(14,17,20,24)  =     64.150500    -0.000000     0.008234    64.158734
	  111 D(14,17,20,25)  =   -175.950175    -0.000000     0.007196  -175.942979
	  112 D(15,11,14,17)  =     62.106975     0.000000    -0.089309    62.017666
	  113 D(15,11,14,18)  =    -60.953280     0.000000    -0.088493   -61.041774
	  114 D(15,11,14,19)  =   -176.311564     0.000000    -0.086889  -176.398453
	  115 D(16,11,14,17)  =    -54.286945    -0.000000    -0.090148   -54.377093
	  116 D(16,11,14,18)  =   -177.347200    -0.000000    -0.089332  -177.436532
	  117 D(16,11,14,19)  =     67.294516    -0.000000    -0.087727    67.206789
	  118 D(18,14,17,20)  =     57.008599     0.000000     0.029934    57.038533
	  119 D(18,14,17,21)  =    -64.570962     0.000000     0.026033   -64.544929
	  120 D(18,14,17,22)  =   -179.790544     0.000000     0.025759  -179.764785
	  121 D(19,14,17,20)  =    172.268072    -0.000000     0.022147   172.290219
	  122 D(19,14,17,21)  =     50.688511    -0.000000     0.018246    50.706757
	  123 D(19,14,17,22)  =    -64.531071    -0.000000     0.017972   -64.513099
	  124 D(21,17,20,23)  =     65.040845     0.000000     0.014725    65.055570
	  125 D(21,17,20,24)  =   -174.435867     0.000000     0.015742  -174.420124
	  126 D(21,17,20,25)  =    -54.536542     0.000000     0.014704   -54.521837
	  127 D(22,17,20,23)  =   -179.515866     0.000000     0.013090  -179.502776
	  128 D(22,17,20,24)  =    -58.992578     0.000000     0.014108   -58.978470
	  129 D(22,17,20,25)  =     60.906747     0.000000     0.013070    60.919817
	 ---------------------------------------------------------------------------
	Successfully symmetrized geometry.

  ==> Convergence Check <==

  Measures of convergence in internal coordinates in au.
  Criteria marked as inactive (o), active & met (*), and active & unmet ( ).
  ---------------------------------------------------------------------------------------------
   Step     Total Energy     Delta E     MAX Force     RMS Force      MAX Disp      RMS Disp   
  ---------------------------------------------------------------------------------------------
    Convergence Criteria    1.00e-06 *    3.00e-04 *             o    1.20e-03 *             o
  ---------------------------------------------------------------------------------------------
      8    -387.25615515   -9.61e-07 *    9.02e-05 *    1.93e-05 o    5.22e-03      1.21e-03 o  ~
  ---------------------------------------------------------------------------------------------


  **** Optimization is complete! (in 8 steps) ****

  ==> Optimization Summary <==

  Measures of convergence in internal coordinates in au.
  --------------------------------------------------------------------------------------------------------------- ~
   Step         Total Energy             Delta E       MAX Force       RMS Force        MAX Disp        RMS Disp  ~
  --------------------------------------------------------------------------------------------------------------- ~
      1    -387.255802876883   -387.255802876883      0.00973175      0.00101199      0.10037371      0.02810181  ~
      2    -387.256031680755     -0.000228803873      0.00378967      0.00050748      0.09328240      0.02452759  ~
      3    -387.255969295250      0.000062385506      0.00392860      0.00064945      0.04730452      0.00971134  ~
      4    -387.256030238145     -0.000060942895      0.00137971      0.00035124      0.07112938      0.01844110  ~
      5    -387.256119940102     -0.000089701957      0.00211270      0.00035331      0.01311815      0.00489767  ~
      6    -387.256153147953     -0.000033207850      0.00011901      0.00002438      0.00726385      0.00208597  ~
      7    -387.256154184193     -0.000001036241      0.00012032      0.00002221      0.01161982      0.00248745  ~
      8    -387.256155145692     -0.000000961499      0.00009024      0.00001929      0.00522010      0.00121020  ~
  --------------------------------------------------------------------------------------------------------------- ~

	Writing optimization data to binary file.
	Final energy is   -387.2561551456918
	Final (previous) structure:
	Cartesian Geometry (in Angstrom)
	    H    -3.7237816746   0.3718462099  -1.0661474146
	    C    -2.7876769941   0.8543928533  -1.3778946492
	    C    -1.9885050812   1.4682013698  -0.2607232158
	    O    -2.4803079734   0.8671706907  -2.5194515467
	    C    -1.6787954680   0.4626703570   0.8544082106
	    H    -1.0861775527   1.8962991502  -0.6782655253
	    H    -2.5882272704   2.2801579766   0.1446473573
	    C    -0.6822646327  -0.6368599354   0.4420877939
	    H    -1.2982402743   1.0015519125   1.7138571742
	    H    -2.6130982720   0.0131022410   1.1775483943
	    C     0.7389970009  -0.3718887269   0.9405496586
	    H    -0.6475305342  -0.7140658524  -0.6402107301
	    H    -1.0156143156  -1.5987347607   0.8154178710
	    C     1.7384534622  -1.4288861044   0.4766318191
	    H     1.0537992882   0.6108815268   0.6028389667
	    H     0.7342732140  -0.3348941091   2.0275776246
	    C     3.1544863668  -1.2609112796   1.0303486718
	    H     1.7775284465  -1.4330309051  -0.6100736282
	    H     1.3683337549  -2.4077920737   0.7694772242
	    C     3.8837782983  -0.0093060402   0.5480111593
	    H     3.7372074748  -2.1325632923   0.7490734674
	    H     3.1170897645  -1.2603519654   2.1166288103
	    H     3.9290778098   0.0214725223  -0.5358559999
	    H     3.3981322148   0.8988476472   0.8843427776
	    H     4.9014454089   0.0097370055   0.9208572001
	Saving final (previous) structure.
			--------------------------
			 OPTKING Finished Execution 
			--------------------------

    Final optimized geometry and variables:
    Molecular point group: c1
    Full point group: C1

    Geometry (in Angstrom), charge = 0, multiplicity = 1:

    H           -3.723781674594     0.371846209874    -1.066147414604
    C           -2.787676994092     0.854392853307    -1.377894649198
    C           -1.988505081196     1.468201369814    -0.260723215763
    O           -2.480307973413     0.867170690667    -2.519451546723
    C           -1.678795467954     0.462670356999     0.854408210644
    H           -1.086177552734     1.896299150207    -0.678265525346
    H           -2.588227270356     2.280157976646     0.144647357296
    C           -0.682264632708    -0.636859935419     0.442087793860
    H           -1.298240274274     1.001551912463     1.713857174236
    H           -2.613098271976     0.013102241050     1.177548394289
    C            0.738997000850    -0.371888726946     0.940549658614
    H           -0.647530534216    -0.714065852364    -0.640210730108
    H           -1.015614315583    -1.598734760681     0.815417870973
    C            1.738453462152    -1.428886104368     0.476631819120
    H            1.053799288168     0.610881526818     0.602838966661
    H            0.734273214035    -0.334894109053     2.027577624571
    C            3.154486366848    -1.260911279586     1.030348671823
    H            1.777528446514    -1.433030905131    -0.610073628161
    H            1.368333754855    -2.407792073701     0.769477224233
    C            3.883778298294    -0.009306040216     0.548011159295
    H            3.737207474777    -2.132563292292     0.749073467385
    H            3.117089764517    -1.260351965420     2.116628810255
    H            3.929077809798     0.021472522330    -0.535855999902
    H            3.398132214838     0.898847647237     0.884342777556
    H            4.901445408873     0.009737005477     0.920857200065

	Cleaning optimization helper files.


Properties will be evaluated at   0.000000,   0.000000,   0.000000 Bohr

Properties computed using the  density matrix

  Nuclear Dipole Moment: (a.u.)
     X:    10.3417      Y:    -2.5997      Z:     7.8549

  Electronic Dipole Moment: (a.u.)
     X:   -10.3820      Y:     2.5773      Z:    -6.6370

  Dipole Moment: (a.u.)
     X:    -0.0403      Y:    -0.0224      Z:     1.2178     Total:     1.2187

  Dipole Moment: (Debye)
     X:    -0.1024      Y:    -0.0569      Z:     3.0954     Total:     3.0976

  Quadrupole Moment: (Debye Ang)
    XX:   -56.5385     YY:   -57.9316     ZZ:   -69.1010
    XY:    -0.7942     XZ:    -6.9890     YZ:     2.5074

  Traceless Quadrupole Moment: (Debye Ang)
    XX:     4.6518     YY:     3.2587     ZZ:    -7.9106
    XY:    -0.7942     XZ:    -6.9890     YZ:     2.5074

  Mulliken Charges: (a.u.)
   Center  Symbol    Alpha    Beta     Spin     Total
       1     H     0.46398  0.46398  0.00000  0.07205
       2     C     2.90433  2.90433  0.00000  0.19133
       3     C     3.08577  3.08577  0.00000 -0.17153
       4     O     4.16612  4.16612  0.00000 -0.33224
       5     C     3.12401  3.12401  0.00000 -0.24801
       6     H     0.44335  0.44335  0.00000  0.11330
       7     H     0.44218  0.44218  0.00000  0.11564
       8     C     3.09991  3.09991  0.00000 -0.19982
       9     H     0.44278  0.44278  0.00000  0.11443
      10     H     0.44248  0.44248  0.00000  0.11505
      11     C     3.09027  3.09027  0.00000 -0.18054
      12     H     0.44697  0.44697  0.00000  0.10605
      13     H     0.44494  0.44494  0.00000  0.11013
      14     C     3.09665  3.09665  0.00000 -0.19331
      15     H     0.45147  0.45147  0.00000  0.09707
      16     H     0.45371  0.45371  0.00000  0.09259
      17     C     3.09040  3.09040  0.00000 -0.18080
      18     H     0.45094  0.45094  0.00000  0.09811
      19     H     0.44967  0.44967  0.00000  0.10065
      20     C     3.15271  3.15271  0.00000 -0.30542
      21     H     0.44797  0.44797  0.00000  0.10406
      22     H     0.45508  0.45508  0.00000  0.08983
      23     H     0.45353  0.45353  0.00000  0.09293
      24     H     0.45463  0.45463  0.00000  0.09074
      25     H     0.44614  0.44614  0.00000  0.10771

   Total alpha = 36.00000, Total beta = 36.00000, Total charge =  0.00000


*** Psi4 exiting successfully. Buy a developer a beer!
