    -----------------------------------------------------------------------
          Psi4: An Open-Source Ab Initio Electronic Structure Package
                              Psi4 (no tag) Driver

                          Git: Rev {detached?}  

    J. M. Turney, A. C. Simmonett, R. M. Parrish, E. G. Hohenstein,
    F. A. Evangelista, J. T. Fermann, B. J. Mintz, L. A. Burns, J. J. Wilke,
    M. L. Abrams, N. J. Russ, M. L. Leininger, C. L. Janssen, E. T. Seidl,
    W. D. Allen, H. F. Schaefer, R. A. King, E. F. Valeev, C. D. Sherrill,
    and T. D. Crawford, WIREs Comput. Mol. Sci. 2, 556-565 (2012)
    (doi: 10.1002/wcms.93)

                         Additional Contributions by
    A. E. DePrince, M. Saitow, U. Bozkaya, A. Yu. Sokolov
    -----------------------------------------------------------------------


    Psi4 started on: Fri Sep  2 13:16:35 2016

    Process ID:  15801
    PSI4DATADIR: /export131/home/mjharvey/miniconda3/share
    Memory level set to 256.000 MB

  ==> Input File <==

--------------------------------------------------------------------------
set {
	reference rhf
	basis 6-31G*
}


set_num_threads( 4 )
memory 2 gb

molecule MOL {
0 1

O	 0.161643	 0.835271	 -0.929108
C	 0.486307	 0.169203	 0.000779
C	 1.608116	 -0.841643	 0.000302
O	 -0.108845	 0.227430	 1.184000
C	 2.990107	 -0.200498	 -0.000684
H	 1.468623	 -1.481519	 -0.865924
H	 1.469683	 -1.481289	 0.866878
H	 3.129736	 0.423364	 -0.875135
H	 3.757882	 -0.966877	 -0.001197
H	 3.130964	 0.423383	 0.873533
C	 -1.190702	 1.141266	 1.331951
C	 -1.696153	 1.019758	 2.753945
H	 -1.959788	 0.896574	 0.612079
H	 -0.839614	 2.141214	 1.116467
H	 -2.038978	 0.011303	 2.955559
H	 -2.525182	 1.702195	 2.910913
H	 -0.912755	 1.262797	 3.462801

	symmetry c1
}
set optking {
	frozen_dihedral = ("
		4 2 3 6
	")
}

ee = optimize('scf')
oeprop('DIPOLE', 'QUADRUPOLE', 'MULLIKEN_CHARGES')
f=open( 'psi4out.xyz', 'w' )
f.write( "17  " )
f.write( str(ee) + "\n" )
f.write( MOL.save_string_xyz() )
f.close()
--------------------------------------------------------------------------

  Memory set to   2.000 GiB by Python script.
gradient() will perform analytic gradient computation.

*** tstart() called on cx1-1-4-3.cx1.hpc.ic.ac.uk
*** at Fri Sep  2 13:16:35 2016


         ---------------------------------------------------------
                                   SCF
            by Justin Turney, Rob Parrish, and Andy Simmonett
                              RHF Reference
                        4 Threads,   2000 MiB Core
         ---------------------------------------------------------

  ==> Geometry <==

    Molecular point group: c1
    Full point group: C1

    Geometry (in Angstrom), charge = 0, multiplicity = 1:

       Center              X                  Y                   Z               Mass       
    ------------   -----------------  -----------------  -----------------  -----------------
           O         -0.151224610109     0.488356222947    -1.558638597670    15.994914619560
           C          0.173439389891    -0.177711777053    -0.628751597670    12.000000000000
           C          1.295248389891    -1.188557777053    -0.629228597670    12.000000000000
           O         -0.421712610109    -0.119484777053     0.554469402330    15.994914619560
           C          2.677239389891    -0.547412777053    -0.630214597670    12.000000000000
           H          1.155755389891    -1.828433777053    -1.495454597670     1.007825032070
           H          1.156815389891    -1.828203777053     0.237347402330     1.007825032070
           H          2.816868389891     0.076449222947    -1.504665597670     1.007825032070
           H          3.445014389891    -1.313791777053    -0.630727597670     1.007825032070
           H          2.818096389891     0.076468222947     0.244002402330     1.007825032070
           C         -1.503569610109     0.794351222947     0.702420402330    12.000000000000
           C         -2.009020610109     0.672843222947     2.124414402330    12.000000000000
           H         -2.272655610109     0.549659222947    -0.017451597670     1.007825032070
           H         -1.152481610109     1.794299222947     0.486936402330     1.007825032070
           H         -2.351845610109    -0.335611777053     2.326028402330     1.007825032070
           H         -2.838049610109     1.355280222947     2.281382402330     1.007825032070
           H         -1.225622610109     0.915882222947     2.833270402330     1.007825032070

  Running in c1 symmetry.

  Rotational constants: A =      0.19087  B =      0.04639  C =      0.04075 [cm^-1]
  Rotational constants: A =   5722.02760  B =   1390.87547  C =   1221.52183 [MHz]
  Nuclear repulsion =  315.397702077540657

  Charge       = 0
  Multiplicity = 1
  Electrons    = 56
  Nalpha       = 28
  Nbeta        = 28

  ==> Algorithm <==

  SCF Algorithm Type is DF.
  DIIS enabled.
  MOM disabled.
  Fractional occupation disabled.
  Guess Type is CORE.
  Energy threshold   = 1.00e-08
  Density threshold  = 1.00e-08
  Integral threshold = 0.00e+00

  ==> Primary Basis <==

  Basis Set: 6-31G*
    Number of shells: 62
    Number of basis function: 125
    Number of Cartesian functions: 125
    Spherical Harmonics?: false
    Max angular momentum: 2

  ==> Pre-Iterations <==

   -------------------------------------------------------
    Irrep   Nso     Nmo     Nalpha   Nbeta   Ndocc  Nsocc
   -------------------------------------------------------
     A        125     125       0       0       0       0
   -------------------------------------------------------
    Total     125     125      28      28      28       0
   -------------------------------------------------------

 OEINTS: Overlap, kinetic, potential, dipole, and quadrupole integrals
         stored in file 35.

  ==> Integral Setup <==

  ==> DFJK: Density-Fitted J/K Matrices <==

    J tasked:                  Yes
    K tasked:                  Yes
    wK tasked:                  No
    OpenMP threads:              4
    Integrals threads:           4
    Memory (MB):              1430
    Algorithm:                Core
    Integral Cache:           NONE
    Schwarz Cutoff:          1E-12
    Fitting Condition:       1E-12

   => Auxiliary Basis Set <=

  Basis Set: 
    Number of shells: 258
    Number of basis function: 817
    Number of Cartesian functions: 817
    Spherical Harmonics?: false
    Max angular momentum: 3

  Minimum eigenvalue in the overlap matrix is 3.1939755534E-03.
  Using Symmetric Orthogonalization.
  SCF Guess: Core (One-Electron) Hamiltonian.

  ==> Iterations <==

                           Total Energy        Delta E     RMS |[F,P]|

   @DF-RHF iter   1:  -236.43897358041067   -2.36439e+02   7.84013e-02 
   @DF-RHF iter   2:  -213.66452095480645    2.27745e+01   6.43587e-02 DIIS
   @DF-RHF iter   3:  -309.77954172696275   -9.61150e+01   4.29253e-02 DIIS
   @DF-RHF iter   4:  -344.20724856119784   -3.44277e+01   8.95964e-03 DIIS
   @DF-RHF iter   5:  -344.80178716195030   -5.94539e-01   3.68796e-03 DIIS
   @DF-RHF iter   6:  -344.88701109420310   -8.52239e-02   1.50375e-03 DIIS
   @DF-RHF iter   7:  -344.90466595852274   -1.76549e-02   7.02456e-04 DIIS
   @DF-RHF iter   8:  -344.90881035693303   -4.14440e-03   2.25131e-04 DIIS
   @DF-RHF iter   9:  -344.90922759425268   -4.17237e-04   8.01354e-05 DIIS
   @DF-RHF iter  10:  -344.90929432617645   -6.67319e-05   2.04429e-05 DIIS
   @DF-RHF iter  11:  -344.90930060415610   -6.27798e-06   6.13041e-06 DIIS
   @DF-RHF iter  12:  -344.90930116621064   -5.62055e-07   2.21673e-06 DIIS
   @DF-RHF iter  13:  -344.90930124637714   -8.01665e-08   8.78697e-07 DIIS
   @DF-RHF iter  14:  -344.90930126788976   -2.15126e-08   2.90009e-07 DIIS
   @DF-RHF iter  15:  -344.90930127051558   -2.62582e-09   9.21867e-08 DIIS
   @DF-RHF iter  16:  -344.90930127077456   -2.58979e-10   3.25231e-08 DIIS
   @DF-RHF iter  17:  -344.90930127080776   -3.31966e-11   1.40273e-08 DIIS
   @DF-RHF iter  18:  -344.90930127081378   -6.02540e-12   5.09376e-09 DIIS

  ==> Post-Iterations <==

    Orbital Energies (a.u.)
    -----------------------

    Doubly Occupied:                                                      

       1A    -20.602181     2A    -20.542105     3A    -11.370526  
       4A    -11.284312     5A    -11.235587     6A    -11.225582  
       7A    -11.222279     8A     -1.467297     9A     -1.360783  
      10A     -1.072341    11A     -1.032108    12A     -0.910980  
      13A     -0.852043    14A     -0.776258    15A     -0.693371  
      16A     -0.683953    17A     -0.667096    18A     -0.614417  
      19A     -0.598492    20A     -0.575626    21A     -0.555043  
      22A     -0.536693    23A     -0.528956    24A     -0.508807  
      25A     -0.500524    26A     -0.495277    27A     -0.451183  
      28A     -0.431734  

    Virtual:                                                              

      29A      0.191681    30A      0.242431    31A      0.259173  
      32A      0.292986    33A      0.297115    34A      0.301967  
      35A      0.306114    36A      0.311940    37A      0.320492  
      38A      0.329985    39A      0.349292    40A      0.362653  
      41A      0.398026    42A      0.414539    43A      0.445926  
      44A      0.513140    45A      0.569829    46A      0.719213  
      47A      0.730195    48A      0.730729    49A      0.738703  
      50A      0.746701    51A      0.762309    52A      0.782435  
      53A      0.839203    54A      0.864300    55A      0.911339  
      56A      0.928857    57A      0.964021    58A      1.000013  
      59A      1.012938    60A      1.020246    61A      1.093146  
      62A      1.102233    63A      1.123145    64A      1.147072  
      65A      1.160177    66A      1.161552    67A      1.184838  
      68A      1.187075    69A      1.204689    70A      1.214802  
      71A      1.240227    72A      1.243301    73A      1.251124  
      74A      1.307441    75A      1.355761    76A      1.403931  
      77A      1.424602    78A      1.508044    79A      1.556558  
      80A      1.648220    81A      1.651908    82A      1.662093  
      83A      1.783620    84A      1.796390    85A      1.843726  
      86A      1.939514    87A      1.992731    88A      2.012619  
      89A      2.066444    90A      2.101125    91A      2.133620  
      92A      2.155371    93A      2.202091    94A      2.208780  
      95A      2.251120    96A      2.276712    97A      2.312976  
      98A      2.363237    99A      2.390622   100A      2.458884  
     101A      2.481223   102A      2.552649   103A      2.598537  
     104A      2.607008   105A      2.640020   106A      2.684698  
     107A      2.685948   108A      2.703146   109A      2.734886  
     110A      2.865521   111A      2.926161   112A      2.982373  
     113A      3.021364   114A      3.108885   115A      3.169848  
     116A      3.361085   117A      3.422633   118A      3.573677  
     119A      4.455290   120A      4.551983   121A      4.609288  
     122A      4.642990   123A      4.731752   124A      4.862154  
     125A      4.992387  

    Final Occupation by Irrep:
              A 
    DOCC [    28 ]

  Energy converged.

  @DF-RHF Final Energy:  -344.90930127081378

   => Energetics <=

    Nuclear Repulsion Energy =            315.3977020775406572
    One-Electron Energy =               -1095.0228963580252639
    Two-Electron Energy =                 434.7158930096707650
    DFT Exchange-Correlation Energy =       0.0000000000000000
    Empirical Dispersion Energy =           0.0000000000000000
    PCM Polarization Energy =               0.0000000000000000
    EFP Energy =                            0.0000000000000000
    Total Energy =                       -344.9093012708138417

    Alert: EFP and PCM quantities not currently incorporated into SCF psivars.

Properties will be evaluated at   0.000000,   0.000000,   0.000000 Bohr
  ==> Properties <==


Properties computed using the SCF density matrix

  Nuclear Dipole Moment: (a.u.)
     X:     1.4521      Y:    -0.5026      Z:     4.4582

  Electronic Dipole Moment: (a.u.)
     X:    -1.3903      Y:     0.2075      Z:    -3.7087

  Dipole Moment: (a.u.)
     X:     0.0618      Y:    -0.2951      Z:     0.7494     Total:     0.8078

  Dipole Moment: (Debye)
     X:     0.1571      Y:    -0.7502      Z:     1.9048     Total:     2.0532


  Saving occupied orbitals to File 180.

*** tstop() called on cx1-1-4-3.cx1.hpc.ic.ac.uk at Fri Sep  2 13:16:40 2016
Module time:
	user time   =      14.50 seconds =       0.24 minutes
	system time =       0.16 seconds =       0.00 minutes
	total time  =          5 seconds =       0.08 minutes
Total time:
	user time   =      14.50 seconds =       0.24 minutes
	system time =       0.16 seconds =       0.00 minutes
	total time  =          5 seconds =       0.08 minutes

*** tstart() called on cx1-1-4-3.cx1.hpc.ic.ac.uk
*** at Fri Sep  2 13:16:40 2016


         ------------------------------------------------------------
                                   SCF GRAD                          
                          Rob Parrish, Justin Turney,                
                       Andy Simmonett, and Alex Sokolov              
         ------------------------------------------------------------

  ==> Geometry <==

    Molecular point group: c1
    Full point group: C1

    Geometry (in Angstrom), charge = 0, multiplicity = 1:

       Center              X                  Y                   Z               Mass       
    ------------   -----------------  -----------------  -----------------  -----------------
           O         -0.151224610109     0.488356222947    -1.558638597670    15.994914619560
           C          0.173439389891    -0.177711777053    -0.628751597670    12.000000000000
           C          1.295248389891    -1.188557777053    -0.629228597670    12.000000000000
           O         -0.421712610109    -0.119484777053     0.554469402330    15.994914619560
           C          2.677239389891    -0.547412777053    -0.630214597670    12.000000000000
           H          1.155755389891    -1.828433777053    -1.495454597670     1.007825032070
           H          1.156815389891    -1.828203777053     0.237347402330     1.007825032070
           H          2.816868389891     0.076449222947    -1.504665597670     1.007825032070
           H          3.445014389891    -1.313791777053    -0.630727597670     1.007825032070
           H          2.818096389891     0.076468222947     0.244002402330     1.007825032070
           C         -1.503569610109     0.794351222947     0.702420402330    12.000000000000
           C         -2.009020610109     0.672843222947     2.124414402330    12.000000000000
           H         -2.272655610109     0.549659222947    -0.017451597670     1.007825032070
           H         -1.152481610109     1.794299222947     0.486936402330     1.007825032070
           H         -2.351845610109    -0.335611777053     2.326028402330     1.007825032070
           H         -2.838049610109     1.355280222947     2.281382402330     1.007825032070
           H         -1.225622610109     0.915882222947     2.833270402330     1.007825032070

  Nuclear repulsion =  315.397702077540657

  ==> Basis Set <==

  Basis Set: 6-31G*
    Number of shells: 62
    Number of basis function: 125
    Number of Cartesian functions: 125
    Spherical Harmonics?: false
    Max angular momentum: 2

  ==> DFJKGrad: Density-Fitted SCF Gradients <==

    Gradient:                    1
    J tasked:                  Yes
    K tasked:                  Yes
    wK tasked:                  No
    OpenMP threads:              4
    Integrals threads:           4
    Memory (MB):              1430
    Schwarz Cutoff:          0E+00
    Fitting Condition:       1E-12

   => Auxiliary Basis Set <=

  Basis Set: 
    Number of shells: 258
    Number of basis function: 817
    Number of Cartesian functions: 817
    Spherical Harmonics?: false
    Max angular momentum: 3


  -Total Gradient:
     Atom            X                  Y                   Z
    ------   -----------------  -----------------  -----------------
       1       -0.001588016702    -0.000602390404     0.000963875938
       2        0.000169461879     0.000772803697    -0.001661392902
       3        0.008457812355     0.011127371182    -0.003115341813
       4        0.001407667997    -0.002078681559     0.000247082220
       5       -0.001940013104    -0.002484691767     0.002211678108
       6       -0.002294635643    -0.004025321002     0.002410624907
       7       -0.003884102162    -0.002518212178     0.000103630340
       8        0.000293506540     0.000432286144     0.001043579260
       9        0.000199613777    -0.000730994706    -0.000318521042
      10       -0.000562622194     0.000249050422    -0.001882452365
      11       -0.000206472079    -0.000142024526    -0.000054264979
      12        0.000010563919    -0.000044879259    -0.000014634704
      13       -0.000102739462     0.000033289353     0.000068572566
      14        0.000016408596    -0.000016615698     0.000053284590
      15        0.000012256495     0.000021693305    -0.000012244769
      16        0.000000140727     0.000008565568    -0.000021819019
      17        0.000011169064    -0.000001248572    -0.000021656336


*** tstop() called on cx1-1-4-3.cx1.hpc.ic.ac.uk at Fri Sep  2 13:16:45 2016
Module time:
	user time   =      17.95 seconds =       0.30 minutes
	system time =       0.21 seconds =       0.00 minutes
	total time  =          5 seconds =       0.08 minutes
Total time:
	user time   =      32.47 seconds =       0.54 minutes
	system time =       0.37 seconds =       0.01 minutes
	total time  =         10 seconds =       0.17 minutes
CURRENT ENERGY: -344.9093012708

			-----------------------------------------
			 OPTKING 2.0: for geometry optimizations 
			  - R.A. King,  Bethel University        
			-----------------------------------------

	Internal coordinates to be generated automatically.
	Detected frag with atoms:  1 2 3 4 5 6 7 8 9 10 11 12 13 14 15 16 17
	---Fragment 1 Bond Connectivity---
	 1 : 2
	 2 : 1 3 4
	 3 : 2 5 6 7
	 4 : 2 11
	 5 : 3 8 9 10
	 6 : 3
	 7 : 3
	 8 : 5
	 9 : 5
	 10 : 5
	 11 : 4 12 13 14
	 12 : 11 15 16 17
	 13 : 11
	 14 : 11
	 15 : 12
	 16 : 12
	 17 : 12

	Assuming in current code that numbering for constraints corresponds to unified fragment.
	Frozen dihedral atom list: 
	     4     2     3     6
	---Fragment 1 Geometry and Gradient---
	 O          -0.2857730977        0.9228595167       -2.9454000897
	 C           0.3277529475       -0.3358265892       -1.1881683252
	 C           2.4476647310       -2.2460486917       -1.1890697246
	 O          -0.7969213399       -0.2257935057        1.0477953195
	 C           5.0592492391       -1.0344602303       -1.1909329945
	 H           2.1840611635       -3.4552390907       -2.8259996338
	 H           2.1860642732       -3.4548044537        0.4485215888
	 H           5.3231098093        0.1444680944       -2.8434059012
	 H           6.5101337207       -2.4827066543       -1.1919024240
	 H           5.3254303930        0.1445039992        0.4610977162
	 C          -2.8413347848        1.5011062647        1.3273821906
	 C          -3.7964987484        1.2714894217        4.0145614132
	 H          -4.2946966975        1.0387053978       -0.0329787402
	 H          -2.1778746163        3.3907341318        0.9201764445
	 H          -4.4443441099       -0.6342143456        4.3955566577
	 H          -5.3631365146        2.5611084547        4.3111879448
	 H          -2.3160910754        1.7307665713        5.3541051208
	            -0.0015880167       -0.0006023904        0.0009638759
	             0.0001694619        0.0007728037       -0.0016613929
	             0.0084578124        0.0111273712       -0.0031153418
	             0.0014076680       -0.0020786816        0.0002470822
	            -0.0019400131       -0.0024846918        0.0022116781
	            -0.0022946356       -0.0040253210        0.0024106249
	            -0.0038841022       -0.0025182122        0.0001036303
	             0.0002935065        0.0004322861        0.0010435793
	             0.0001996138       -0.0007309947       -0.0003185210
	            -0.0005626222        0.0002490504       -0.0018824524
	            -0.0002064721       -0.0001420245       -0.0000542650
	             0.0000105639       -0.0000448793       -0.0000146347
	            -0.0001027395        0.0000332894        0.0000685726
	             0.0000164086       -0.0000166157        0.0000532846
	             0.0000122565        0.0000216933       -0.0000122448
	             0.0000001407        0.0000085656       -0.0000218190
	             0.0000111691       -0.0000012486       -0.0000216563

	Previous optimization step data not found.  Starting new optimization.

	---Fragment 1 Intrafragment Coordinates---
	 - Coordinate -           - BOHR/RAD -       - ANG/DEG -
	 R(1,2)           =         2.246902	       1.189009
	 R(2,3)           =         2.853590	       1.510055
	 R(2,4)           =         2.505301	       1.325748
	 R(3,5)           =         2.878945	       1.523472
	 R(3,6)           =         2.052113	       1.085932
	 R(3,7)           =         2.052128	       1.085940
	 R(4,11)          =         2.690721	       1.423868
	 R(5,8)           =         2.046988	       1.083220
	 R(5,9)           =         2.049996	       1.084811
	 R(5,10)          =         2.046952	       1.083201
	 R(11,12)         =         2.861118	       1.514038
	 R(11,13)         =         2.043687	       1.081473
	 R(11,14)         =         2.043695	       1.081477
	 R(12,15)         =         2.048553	       1.084047
	 R(12,16)         =         2.050721	       1.085195
	 R(12,17)         =         2.048639	       1.084093
	 B(1,2,3)         =         2.186580	     125.281785
	 B(1,2,4)         =         2.154129	     123.422497
	 B(2,3,5)         =         1.973802	     113.090517
	 B(2,3,6)         =         1.874722	     107.413656
	 B(2,3,7)         =         1.874803	     107.418285
	 B(2,4,11)        =         2.051060	     117.517095
	 B(3,2,4)         =         1.942475	     111.295643
	 B(3,5,8)         =         1.938884	     111.089871
	 B(3,5,9)         =         1.922728	     110.164219
	 B(3,5,10)        =         1.938881	     111.089702
	 B(4,11,12)       =         1.875215	     107.441877
	 B(4,11,13)       =         1.902816	     109.023332
	 B(4,11,14)       =         1.902920	     109.029296
	 B(5,3,6)         =         1.943343	     111.345337
	 B(5,3,7)         =         1.943402	     111.348746
	 B(6,3,7)         =         1.847403	     105.848380
	 B(8,5,9)         =         1.891531	     108.376716
	 B(8,5,10)        =         1.878683	     107.640611
	 B(9,5,10)        =         1.891508	     108.375446
	 B(11,12,15)      =         1.933614	     110.787949
	 B(11,12,16)      =         1.918160	     109.902478
	 B(11,12,17)      =         1.933584	     110.786216
	 B(12,11,13)      =         1.949379	     111.691200
	 B(12,11,14)      =         1.949503	     111.698270
	 B(13,11,14)      =         1.883295	     107.904877
	 B(15,12,16)      =         1.892849	     108.452249
	 B(15,12,17)      =         1.891752	     108.389404
	 B(16,12,17)      =         1.892821	     108.450675
	 D(1,2,3,5)       =         1.280298	      73.355649
	 D(1,2,3,6)       =        -0.870964	     -49.902544
	 D(1,2,3,7)       =        -2.851493	    -163.378518
	 D(1,2,4,11)      =        -0.000871	      -0.049890
	 D(2,3,5,8)       =        -1.045170	     -59.883849
	 D(2,3,5,9)       =        -3.141394	    -179.988619
	 D(2,3,5,10)      =         1.045597	      59.908312
	 D(2,4,11,12)     =         3.140266	     179.923961
	 D(2,4,11,13)     =         1.024814	      58.717536
	 D(2,4,11,14)     =        -1.027260	     -58.857660
	 D(3,2,4,11)      =        -3.140800	    -179.954600
	 D(4,2,3,5)       =        -1.862995	    -106.741779
	*D(4,2,3,6)       =         2.268929	     130.000028
	 D(4,2,3,7)       =         0.288399	      16.524054
	 D(4,11,12,15)    =        -1.049968	     -60.158723
	 D(4,11,12,16)    =        -3.141478	    -179.993427
	 D(4,11,12,17)    =         1.050251	      60.174928
	 D(6,3,5,8)       =         1.067688	      61.174042
	 D(6,3,5,9)       =        -1.028535	     -58.930727
	 D(6,3,5,10)      =        -3.124729	    -179.033797
	 D(7,3,5,8)       =         3.125008	     179.049742
	 D(7,3,5,9)       =         1.028784	      58.944972
	 D(7,3,5,10)      =        -1.067410	     -61.158097
	 D(13,11,12,15)   =         1.035987	      59.357656
	 D(13,11,12,16)   =        -1.055524	     -60.477048
	 D(13,11,12,17)   =         3.136205	     179.691307
	 D(14,11,12,15)   =        -3.136122	    -179.686558
	 D(14,11,12,16)   =         1.055553	      60.478738
	 D(14,11,12,17)   =        -1.035904	     -59.352907

	Current energy   :      -344.9093012708

	Generating empirical Hessian (Schlegel '84) for each fragment.
	Taking RFO optimization step.
	Going to follow RFO solution 1.
	Using RFO vector 1.
	Norm of target step-size    0.25631
	Projected energy change by RFO approximation:        -0.0029575422

	Back-transformation to cartesian coordinates...
	Successfully converged to displaced geometry.

	Back-transformation to cartesian coordinates to adjust frozen coordinates...
	Successfully converged to displaced geometry.

	--- Internal Coordinate Step in ANG or DEG, aJ/ANG or AJ/DEG ---
	 ---------------------------------------------------------------------------
	   Coordinate                Previous        Force       Change         New 
	   ----------                --------       ------       ------       ------
	    1 R(1,2)          =      1.189009     0.005418     0.000314     1.189324
	    2 R(2,3)          =      1.510055     0.009654     0.001970     1.512025
	    3 R(2,4)          =      1.325748     0.003256     0.000345     1.326093
	    4 R(3,5)          =      1.523472     0.023811     0.005069     1.528541
	    5 R(3,6)          =      1.085932    -0.006127    -0.001111     1.084820
	    6 R(3,7)          =      1.085940    -0.016981    -0.003079     1.082860
	    7 R(4,11)         =      1.423868    -0.000870    -0.000133     1.423735
	    8 R(5,8)          =      1.083220     0.004578     0.000823     1.084042
	    9 R(5,9)          =      1.084811    -0.005420    -0.000979     1.083832
	   10 R(5,10)         =      1.083201     0.011938     0.002145     1.085346
	   11 R(11,12)        =      1.514038     0.000628     0.000130     1.514168
	   12 R(11,13)        =      1.081473    -0.000164    -0.000029     1.081443
	   13 R(11,14)        =      1.081477     0.000170     0.000030     1.081507
	   14 R(12,15)        =      1.084047     0.000217     0.000039     1.084087
	   15 R(12,16)        =      1.085195    -0.000017    -0.000003     1.085192
	   16 R(12,17)        =      1.084093     0.000052     0.000009     1.084102
	   17 B(1,2,3)        =    125.281785    -0.000321    -1.016001   124.265784
	   18 B(1,2,4)        =    123.422497    -0.000079    -0.291965   123.130532
	   19 B(2,3,5)        =    113.090517    -0.000316    -1.627313   111.463204
	   20 B(2,3,6)        =    107.413656     0.000064    -0.536390   106.877266
	   21 B(2,3,7)        =    107.418285     0.000275     2.100446   109.518731
	   22 B(2,4,11)       =    117.517095    -0.000030    -0.090678   117.426417
	   23 B(3,2,4)        =    111.295643     0.000400     1.145621   112.441264
	   24 B(3,5,8)        =    111.089871    -0.000066    -0.206106   110.883765
	   25 B(3,5,9)        =    110.164219     0.000036     0.022664   110.186883
	   26 B(3,5,10)       =    111.089702    -0.000003     0.030506   111.120208
	   27 B(4,11,12)      =    107.441877     0.000008     0.028776   107.470653
	   28 B(4,11,13)      =    109.023332    -0.000010    -0.071754   108.951578
	   29 B(4,11,14)      =    109.029296    -0.000001     0.008481   109.037777
	   30 B(5,3,6)        =    111.345337     0.000021    -1.450649   109.894688
	   31 B(5,3,7)        =    111.348746    -0.000078    -0.390631   110.958115
	   32 B(6,3,7)        =    105.848380     0.000071     2.136789   107.985169
	   33 B(8,5,9)        =    108.376716     0.000003    -0.068145   108.308571
	   34 B(8,5,10)       =    107.640611     0.000076     0.632515   108.273126
	   35 B(9,5,10)       =    108.375446    -0.000046    -0.409454   107.965992
	   36 B(11,12,15)     =    110.787949     0.000000    -0.000072   110.787877
	   37 B(11,12,16)     =    109.902478     0.000002     0.009207   109.911685
	   38 B(11,12,17)     =    110.786216     0.000002     0.010205   110.796421
	   39 B(12,11,13)     =    111.691200     0.000006     0.030558   111.721758
	   40 B(12,11,14)     =    111.698270     0.000001     0.023845   111.722115
	   41 B(13,11,14)     =    107.904877    -0.000003    -0.022713   107.882164
	   42 B(15,12,16)     =    108.452249    -0.000001    -0.007120   108.445128
	   43 B(15,12,17)     =    108.389404    -0.000001    -0.005039   108.384365
	   44 B(16,12,17)     =    108.450675    -0.000002    -0.007903   108.442772
	   45 D(1,2,3,5)      =     73.355649    -0.000018    -7.779848    65.575801
	   46 D(1,2,3,6)      =    -49.902544     0.000013    -4.613682   -54.516227
	   47 D(1,2,3,7)      =   -163.378518    -0.000043    -7.874318  -171.252837
	   48 D(1,2,4,11)     =     -0.049890    -0.000010     1.439175     1.389285
	   49 D(2,3,5,8)      =    -59.883849     0.000011     2.069107   -57.814742
	   50 D(2,3,5,9)      =   -179.988619     0.000015     2.272591  -177.716027
	   51 D(2,3,5,10)     =     59.908312     0.000023     2.750332    62.658644
	   52 D(2,4,11,12)    =    179.923961    -0.000000    -0.178419   179.745541
	   53 D(2,4,11,13)    =     58.717536    -0.000001    -0.190939    58.526597
	   54 D(2,4,11,14)    =    -58.857660     0.000001    -0.127691   -58.985351
	   55 D(3,2,4,11)     =   -179.954600     0.000002    -3.112964  -183.067565
	   56 D(4,2,3,5)      =   -106.741779    -0.000031    -3.166166  -109.907944
	   57 *D(4,2,3,6)     =    130.000028    -0.000000    -0.000000   130.000028
	   58 D(4,2,3,7)      =     16.524054    -0.000056    -3.260636    13.263418
	   59 D(4,11,12,15)   =    -60.158723     0.000001     0.035227   -60.123497
	   60 D(4,11,12,16)   =   -179.993427     0.000001     0.038189  -179.955238
	   61 D(4,11,12,17)   =     60.174928     0.000001     0.035596    60.210524
	   62 D(6,3,5,8)      =     61.174042    -0.000018    -0.691990    60.482052
	   63 D(6,3,5,9)      =    -58.930727    -0.000014    -0.488506   -59.419233
	   64 D(6,3,5,10)     =   -179.033797    -0.000006    -0.010765  -179.044561
	   65 D(7,3,5,8)      =    179.049742    -0.000006     0.788944   179.838686
	   66 D(7,3,5,9)      =     58.944972    -0.000002     0.992428    59.937400
	   67 D(7,3,5,10)     =    -61.158097     0.000006     1.470169   -59.687928
	   68 D(13,11,12,15)  =     59.357656    -0.000000    -0.016524    59.341132
	   69 D(13,11,12,16)  =    -60.477048    -0.000000    -0.013562   -60.490610
	   70 D(13,11,12,17)  =    179.691307    -0.000000    -0.016155   179.675153
	   71 D(14,11,12,15)  =   -179.686558    -0.000000    -0.007474  -179.694032
	   72 D(14,11,12,16)  =     60.478738    -0.000000    -0.004512    60.474226
	   73 D(14,11,12,17)  =    -59.352907    -0.000000    -0.007104   -59.360011
	 ---------------------------------------------------------------------------

  ==> Convergence Check <==

  Measures of convergence in internal coordinates in au.
  Criteria marked as inactive (o), active & met (*), and active & unmet ( ).
  --------------------------------------------------------------------------------------------- ~
   Step     Total Energy     Delta E     MAX Force     RMS Force      MAX Disp      RMS Disp    ~
  --------------------------------------------------------------------------------------------- ~
    Convergence Criteria    1.00e-06 *    3.00e-04 *             o    1.20e-03 *             o  ~
  --------------------------------------------------------------------------------------------- ~
      1    -344.90930127   -3.45e+02      5.26e-03      1.32e-03 o    1.37e-01      3.00e-02 o  ~
  ---------------------------------------------------------------------------------------------

	Writing optimization data to binary file.
	Structure for next step:
	Cartesian Geometry (in Angstrom)
	    O    -0.0887821759   0.4926906582  -1.5115674730
	    C     0.1712654088  -0.2229932131  -0.5979685369
	    C     1.3035424134  -1.2250742965  -0.5970107364
	    O    -0.4484995478  -0.1583386383   0.5726014481
	    C     2.6641241661  -0.5316996696  -0.6640015244
	    H     1.1670595033  -1.8553435029  -1.4693458486
	    H     1.2311805618  -1.8519109719   0.2830041602
	    H     2.7363093961   0.0932474531  -1.5468254169
	    H     3.4579463410  -1.2686138898  -0.7026811798
	    H     2.8285914056   0.0920344954   0.2088567881
	    C    -1.4909994929   0.8014463273   0.7105453560
	    C    -2.0398046758   0.6776207991   2.1163138777
	    H    -2.2501041818   0.6049566457  -0.0342176201
	    H    -1.0893508992   1.7879568008   0.5231058531
	    H    -2.4332216848  -0.3176073880   2.2894829449
	    H    -2.8411324835   1.3942111792   2.2646836166
	    H    -1.2658293032   0.8717979543   2.8501634895
			--------------------------
			 OPTKING Finished Execution 
			--------------------------

    Structure for next step:
    Molecular point group: c1
    Full point group: C1

    Geometry (in Angstrom), charge = 0, multiplicity = 1:

    O           -0.091302732428     0.503597608640    -1.524290237253
    C            0.168744832413    -0.212086208016    -0.610691370884
    C            1.301021750479    -1.214167214885    -0.609733570499
    O           -0.451020076930    -0.147431638203     0.559878524666
    C            2.661603399361    -0.520792640974    -0.676724353357
    H            1.164538850867    -1.844436373141    -1.482068616098
    H            1.228659904412    -1.841003842480     0.270281258886
    H            2.733788623825     0.104154433979    -1.559548178514
    H            3.455425513645    -1.257706804869    -0.715404005803
    H            2.826070626213     0.102941476399     0.196133892434
    C           -1.493519942338     0.812353254162     0.697822422089
    C           -2.042325083389     0.688527735384     2.103590836421
    H           -2.252624573354     0.615863587487    -0.046940497197
    H           -1.091871379334     1.798863652325     0.510382933485
    H           -2.435742062304    -0.306700375681     2.276759890325
    H           -2.843652829883     1.405118060742     2.251960563941
    H           -1.268349769838     0.882704875787     2.837440392205

gradient() will perform analytic gradient computation.

*** tstart() called on cx1-1-4-3.cx1.hpc.ic.ac.uk
*** at Fri Sep  2 13:16:46 2016


         ---------------------------------------------------------
                                   SCF
            by Justin Turney, Rob Parrish, and Andy Simmonett
                              RHF Reference
                        4 Threads,   2000 MiB Core
         ---------------------------------------------------------

  ==> Geometry <==

    Molecular point group: c1
    Full point group: C1

    Geometry (in Angstrom), charge = 0, multiplicity = 1:

       Center              X                  Y                   Z               Mass       
    ------------   -----------------  -----------------  -----------------  -----------------
           O         -0.091302732428     0.503597608640    -1.524290237253    15.994914619560
           C          0.168744832413    -0.212086208016    -0.610691370884    12.000000000000
           C          1.301021750479    -1.214167214885    -0.609733570499    12.000000000000
           O         -0.451020076930    -0.147431638203     0.559878524666    15.994914619560
           C          2.661603399361    -0.520792640974    -0.676724353357    12.000000000000
           H          1.164538850867    -1.844436373141    -1.482068616098     1.007825032070
           H          1.228659904412    -1.841003842480     0.270281258886     1.007825032070
           H          2.733788623825     0.104154433979    -1.559548178514     1.007825032070
           H          3.455425513645    -1.257706804869    -0.715404005803     1.007825032070
           H          2.826070626213     0.102941476399     0.196133892434     1.007825032070
           C         -1.493519942338     0.812353254162     0.697822422089    12.000000000000
           C         -2.042325083389     0.688527735384     2.103590836421    12.000000000000
           H         -2.252624573354     0.615863587487    -0.046940497197     1.007825032070
           H         -1.091871379334     1.798863652325     0.510382933485     1.007825032070
           H         -2.435742062304    -0.306700375681     2.276759890325     1.007825032070
           H         -2.843652829883     1.405118060742     2.251960563941     1.007825032070
           H         -1.268349769838     0.882704875787     2.837440392205     1.007825032070

  Running in c1 symmetry.

  Rotational constants: A =      0.19776  B =      0.04592  C =      0.04086 [cm^-1]
  Rotational constants: A =   5928.60803  B =   1376.50567  C =   1225.00942 [MHz]
  Nuclear repulsion =  315.576899522671738

  Charge       = 0
  Multiplicity = 1
  Electrons    = 56
  Nalpha       = 28
  Nbeta        = 28

  ==> Algorithm <==

  SCF Algorithm Type is DF.
  DIIS enabled.
  MOM disabled.
  Fractional occupation disabled.
  Guess Type is READ.
  Energy threshold   = 1.00e-08
  Density threshold  = 1.00e-08
  Integral threshold = 0.00e+00

  ==> Primary Basis <==

  Basis Set: 6-31G*
    Number of shells: 62
    Number of basis function: 125
    Number of Cartesian functions: 125
    Spherical Harmonics?: false
    Max angular momentum: 2

  ==> Pre-Iterations <==

   -------------------------------------------------------
    Irrep   Nso     Nmo     Nalpha   Nbeta   Ndocc  Nsocc
   -------------------------------------------------------
     A        125     125       0       0       0       0
   -------------------------------------------------------
    Total     125     125      28      28      28       0
   -------------------------------------------------------

 OEINTS: Overlap, kinetic, potential, dipole, and quadrupole integrals
         stored in file 35.

  ==> Integral Setup <==

  ==> DFJK: Density-Fitted J/K Matrices <==

    J tasked:                  Yes
    K tasked:                  Yes
    wK tasked:                  No
    OpenMP threads:              4
    Integrals threads:           4
    Memory (MB):              1430
    Algorithm:                Core
    Integral Cache:           NONE
    Schwarz Cutoff:          1E-12
    Fitting Condition:       1E-12

   => Auxiliary Basis Set <=

  Basis Set: 
    Number of shells: 258
    Number of basis function: 817
    Number of Cartesian functions: 817
    Spherical Harmonics?: false
    Max angular momentum: 3

  Minimum eigenvalue in the overlap matrix is 3.2358502738E-03.
  Using Symmetric Orthogonalization.
  SCF Guess: Reading in previously saved MOs, projecting if necessary.

  Using orbitals from previous SCF, no projection.
  Recomputing DOCC and SOCC from number of alpha and beta electrons from previous calculation.
              A 
    DOCC [    28 ]

  ==> Iterations <==

                           Total Energy        Delta E     RMS |[F,P]|

   @DF-RHF iter   0:  -344.89387497790904   -3.44894e+02   1.42281e-03 
   @DF-RHF iter   1:  -344.90897538518516   -1.51004e-02   2.21181e-04 
   @DF-RHF iter   2:  -344.90967027198315   -6.94887e-04   8.16844e-05 DIIS
   @DF-RHF iter   3:  -344.90976826615201   -9.79942e-05   4.26880e-05 DIIS
   @DF-RHF iter   4:  -344.90978519925238   -1.69331e-05   1.07819e-05 DIIS
   @DF-RHF iter   5:  -344.90978695932063   -1.76007e-06   4.70525e-06 DIIS
   @DF-RHF iter   6:  -344.90978747901795   -5.19697e-07   1.09146e-06 DIIS
   @DF-RHF iter   7:  -344.90978750709428   -2.80763e-08   3.16609e-07 DIIS
   @DF-RHF iter   8:  -344.90978750855447   -1.46019e-09   9.78752e-08 DIIS
   @DF-RHF iter   9:  -344.90978750868180   -1.27329e-10   2.77107e-08 DIIS
   @DF-RHF iter  10:  -344.90978750869340   -1.15961e-11   9.34786e-09 DIIS

  ==> Post-Iterations <==

    Orbital Energies (a.u.)
    -----------------------

    Doubly Occupied:                                                      

       1A    -20.602393     2A    -20.541560     3A    -11.370804  
       4A    -11.284278     5A    -11.236333     6A    -11.224608  
       7A    -11.222204     8A     -1.467257     9A     -1.360453  
      10A     -1.070947    11A     -1.032135    12A     -0.909220  
      13A     -0.851695    14A     -0.776029    15A     -0.693974  
      16A     -0.684650    17A     -0.666149    18A     -0.617628  
      19A     -0.597431    20A     -0.573955    21A     -0.554914  
      22A     -0.534775    23A     -0.526362    24A     -0.509209  
      25A     -0.501402    26A     -0.494481    27A     -0.451043  
      28A     -0.432532  

    Virtual:                                                              

      29A      0.192898    30A      0.241837    31A      0.256611  
      32A      0.293995    33A      0.297859    34A      0.303742  
      35A      0.305783    36A      0.312352    37A      0.321026  
      38A      0.331469    39A      0.349250    40A      0.362148  
      41A      0.401673    42A      0.414807    43A      0.439249  
      44A      0.513456    45A      0.568414    46A      0.720270  
      47A      0.729584    48A      0.732550    49A      0.738548  
      50A      0.749935    51A      0.762591    52A      0.779880  
      53A      0.840469    54A      0.865728    55A      0.907578  
      56A      0.928881    57A      0.963598    58A      0.994387  
      59A      1.018604    60A      1.027712    61A      1.090390  
      62A      1.102318    63A      1.122902    64A      1.147903  
      65A      1.160754    66A      1.162676    67A      1.183121  
      68A      1.187315    69A      1.204903    70A      1.214766  
      71A      1.240554    72A      1.245213    73A      1.263845  
      74A      1.303969    75A      1.365356    76A      1.395856  
      77A      1.423959    78A      1.513565    79A      1.542244  
      80A      1.646832    81A      1.653795    82A      1.662960  
      83A      1.785462    84A      1.792979    85A      1.839132  
      86A      1.948298    87A      1.992222    88A      2.013383  
      89A      2.059505    90A      2.102215    91A      2.139382  
      92A      2.161427    93A      2.197046    94A      2.208605  
      95A      2.251135    96A      2.281326    97A      2.314105  
      98A      2.373196    99A      2.388586   100A      2.454062  
     101A      2.481564   102A      2.550162   103A      2.601554  
     104A      2.604885   105A      2.638612   106A      2.685333  
     107A      2.688700   108A      2.698540   109A      2.740413  
     110A      2.856361   111A      2.915099   112A      2.982629  
     113A      3.027638   114A      3.104205   115A      3.168533  
     116A      3.360195   117A      3.419160   118A      3.571439  
     119A      4.457572   120A      4.552324   121A      4.609271  
     122A      4.640011   123A      4.732203   124A      4.861489  
     125A      4.986135  

    Final Occupation by Irrep:
              A 
    DOCC [    28 ]

  Energy converged.

  @DF-RHF Final Energy:  -344.90978750869340

   => Energetics <=

    Nuclear Repulsion Energy =            315.5768995226717379
    One-Electron Energy =               -1095.3965330856344735
    Two-Electron Energy =                 434.9098460542694511
    DFT Exchange-Correlation Energy =       0.0000000000000000
    Empirical Dispersion Energy =           0.0000000000000000
    PCM Polarization Energy =               0.0000000000000000
    EFP Energy =                            0.0000000000000000
    Total Energy =                       -344.9097875086932845

    Alert: EFP and PCM quantities not currently incorporated into SCF psivars.

Properties will be evaluated at   0.000000,   0.000000,   0.000000 Bohr
  ==> Properties <==


Properties computed using the SCF density matrix

  Nuclear Dipole Moment: (a.u.)
     X:     1.4188      Y:    -0.3172      Z:     4.2505

  Electronic Dipole Moment: (a.u.)
     X:    -1.3879      Y:     0.0092      Z:    -3.5290

  Dipole Moment: (a.u.)
     X:     0.0309      Y:    -0.3080      Z:     0.7215     Total:     0.7851

  Dipole Moment: (Debye)
     X:     0.0786      Y:    -0.7828      Z:     1.8339     Total:     1.9956


  Saving occupied orbitals to File 180.

*** tstop() called on cx1-1-4-3.cx1.hpc.ic.ac.uk at Fri Sep  2 13:16:51 2016
Module time:
	user time   =      12.84 seconds =       0.21 minutes
	system time =       0.13 seconds =       0.00 minutes
	total time  =          5 seconds =       0.08 minutes
Total time:
	user time   =      46.56 seconds =       0.78 minutes
	system time =       0.54 seconds =       0.01 minutes
	total time  =         16 seconds =       0.27 minutes

*** tstart() called on cx1-1-4-3.cx1.hpc.ic.ac.uk
*** at Fri Sep  2 13:16:51 2016


         ------------------------------------------------------------
                                   SCF GRAD                          
                          Rob Parrish, Justin Turney,                
                       Andy Simmonett, and Alex Sokolov              
         ------------------------------------------------------------

  ==> Geometry <==

    Molecular point group: c1
    Full point group: C1

    Geometry (in Angstrom), charge = 0, multiplicity = 1:

       Center              X                  Y                   Z               Mass       
    ------------   -----------------  -----------------  -----------------  -----------------
           O         -0.091302732428     0.503597608640    -1.524290237253    15.994914619560
           C          0.168744832413    -0.212086208016    -0.610691370884    12.000000000000
           C          1.301021750479    -1.214167214885    -0.609733570499    12.000000000000
           O         -0.451020076930    -0.147431638203     0.559878524666    15.994914619560
           C          2.661603399361    -0.520792640974    -0.676724353357    12.000000000000
           H          1.164538850867    -1.844436373141    -1.482068616098     1.007825032070
           H          1.228659904412    -1.841003842480     0.270281258886     1.007825032070
           H          2.733788623825     0.104154433979    -1.559548178514     1.007825032070
           H          3.455425513645    -1.257706804869    -0.715404005803     1.007825032070
           H          2.826070626213     0.102941476399     0.196133892434     1.007825032070
           C         -1.493519942338     0.812353254162     0.697822422089    12.000000000000
           C         -2.042325083389     0.688527735384     2.103590836421    12.000000000000
           H         -2.252624573354     0.615863587487    -0.046940497197     1.007825032070
           H         -1.091871379334     1.798863652325     0.510382933485     1.007825032070
           H         -2.435742062304    -0.306700375681     2.276759890325     1.007825032070
           H         -2.843652829883     1.405118060742     2.251960563941     1.007825032070
           H         -1.268349769838     0.882704875787     2.837440392205     1.007825032070

  Nuclear repulsion =  315.576899522671738

  ==> Basis Set <==

  Basis Set: 6-31G*
    Number of shells: 62
    Number of basis function: 125
    Number of Cartesian functions: 125
    Spherical Harmonics?: false
    Max angular momentum: 2

  ==> DFJKGrad: Density-Fitted SCF Gradients <==

    Gradient:                    1
    J tasked:                  Yes
    K tasked:                  Yes
    wK tasked:                  No
    OpenMP threads:              4
    Integrals threads:           4
    Memory (MB):              1430
    Schwarz Cutoff:          0E+00
    Fitting Condition:       1E-12

   => Auxiliary Basis Set <=

  Basis Set: 
    Number of shells: 258
    Number of basis function: 817
    Number of Cartesian functions: 817
    Spherical Harmonics?: false
    Max angular momentum: 3


  -Total Gradient:
     Atom            X                  Y                   Z
    ------   -----------------  -----------------  -----------------
       1        0.001760071837     0.002574067360     0.003035966263
       2       -0.006571671680    -0.007597887165    -0.006797854689
       3        0.005526264365     0.004811194749     0.001409809141
       4        0.001029115425     0.002389453864     0.001605806270
       5       -0.001040922111    -0.002403256677     0.000711977481
       6       -0.001003875532    -0.000072109974     0.000251831679
       7       -0.000305104636    -0.000708415513     0.000229899525
       8        0.000436207485     0.000389290895    -0.000476972036
       9       -0.000104637031     0.000336060170    -0.000181242881
      10       -0.000049920784     0.000092691812     0.000036896604
      11        0.000398617907     0.000144123792     0.000190381224
      12       -0.000036983205     0.000100194450     0.000041258654
      13        0.000108213830    -0.000150841113    -0.000093447245
      14       -0.000118848409     0.000126069556     0.000023346474
      15       -0.000001530609    -0.000007961956    -0.000007799041
      16       -0.000020723806    -0.000020895163     0.000023171958
      17       -0.000004273045    -0.000001779084    -0.000003029380


*** tstop() called on cx1-1-4-3.cx1.hpc.ic.ac.uk at Fri Sep  2 13:16:56 2016
Module time:
	user time   =      17.27 seconds =       0.29 minutes
	system time =       0.17 seconds =       0.00 minutes
	total time  =          5 seconds =       0.08 minutes
Total time:
	user time   =      63.85 seconds =       1.06 minutes
	system time =       0.71 seconds =       0.01 minutes
	total time  =         21 seconds =       0.35 minutes
CURRENT ENERGY: -344.9097875087

			-----------------------------------------
			 OPTKING 2.0: for geometry optimizations 
			  - R.A. King,  Bethel University        
			-----------------------------------------

	Previous internal coordinate definitions found.
	---Fragment 1 Geometry and Gradient---
	 O          -0.1725371595        0.9516615615       -2.8804910954
	 C           0.3188815196       -0.4007848497       -1.1540394427
	 C           2.4585748013       -2.2944435157       -1.1522294623
	 O          -0.8523044258       -0.2786054195        1.0580170793
	 C           5.0297014991       -0.9841554635       -1.2788236953
	 H           2.2006594992       -3.4854796148       -2.8007037946
	 H           2.3218307298       -3.4789930719        0.5107575581
	 H           5.1661118042        0.1968233557       -2.9471189484
	 H           6.5298078934       -2.3767214167       -1.3519176453
	 H           5.3404995157        0.1945311981        0.3706393421
	 C          -2.8223436650        1.5351251735        1.3186932671
	 C          -3.8594350819        1.3011288548        3.9752105765
	 H          -4.2568435238        1.1638135156       -0.0887046842
	 H          -2.0633378793        3.3993596533        0.9644839672
	 H          -4.6028854281       -0.5795797149        4.3024526631
	 H          -5.3737250655        2.6552883192        4.2555887279
	 H          -2.3968337057        1.6680704714        5.3619852597
	             0.0017600718        0.0025740674        0.0030359663
	            -0.0065716717       -0.0075978872       -0.0067978547
	             0.0055262644        0.0048111947        0.0014098091
	             0.0010291154        0.0023894539        0.0016058063
	            -0.0010409221       -0.0024032567        0.0007119775
	            -0.0010038755       -0.0000721100        0.0002518317
	            -0.0003051046       -0.0007084155        0.0002298995
	             0.0004362075        0.0003892909       -0.0004769720
	            -0.0001046370        0.0003360602       -0.0001812429
	            -0.0000499208        0.0000926918        0.0000368966
	             0.0003986179        0.0001441238        0.0001903812
	            -0.0000369832        0.0001001944        0.0000412587
	             0.0001082138       -0.0001508411       -0.0000934472
	            -0.0001188484        0.0001260696        0.0000233465
	            -0.0000015306       -0.0000079620       -0.0000077990
	            -0.0000207238       -0.0000208952        0.0000231720
	            -0.0000042730       -0.0000017791       -0.0000030294

	---Fragment 1 Intrafragment Coordinates---
	 - Coordinate -           - BOHR/RAD -       - ANG/DEG -
	 R(1,2)           =         2.247496	       1.189324
	 R(2,3)           =         2.857312	       1.512025
	 R(2,4)           =         2.505953	       1.326093
	 R(3,5)           =         2.888524	       1.528541
	 R(3,6)           =         2.050013	       1.084820
	 R(3,7)           =         2.046309	       1.082860
	 R(4,11)          =         2.690469	       1.423735
	 R(5,8)           =         2.048543	       1.084042
	 R(5,9)           =         2.048146	       1.083832
	 R(5,10)          =         2.051006	       1.085346
	 R(11,12)         =         2.861363	       1.514168
	 R(11,13)         =         2.043632	       1.081443
	 R(11,14)         =         2.043752	       1.081507
	 R(12,15)         =         2.048626	       1.084087
	 R(12,16)         =         2.050715	       1.085192
	 R(12,17)         =         2.048656	       1.084102
	 B(1,2,3)         =         2.168847	     124.265784
	 B(1,2,4)         =         2.149033	     123.130532
	 B(2,3,5)         =         1.945400	     111.463204
	 B(2,3,6)         =         1.865360	     106.877266
	 B(2,3,7)         =         1.911462	     109.518731
	 B(2,4,11)        =         2.049478	     117.426417
	 B(3,2,4)         =         1.962470	     112.441264
	 B(3,5,8)         =         1.935287	     110.883765
	 B(3,5,9)         =         1.923124	     110.186883
	 B(3,5,10)        =         1.939413	     111.120208
	 B(4,11,12)       =         1.875717	     107.470653
	 B(4,11,13)       =         1.901564	     108.951578
	 B(4,11,14)       =         1.903068	     109.037777
	 B(5,3,6)         =         1.918024	     109.894688
	 B(5,3,7)         =         1.936584	     110.958115
	 B(6,3,7)         =         1.884697	     107.985169
	 B(8,5,9)         =         1.890341	     108.308571
	 B(8,5,10)        =         1.889723	     108.273126
	 B(9,5,10)        =         1.884362	     107.965992
	 B(11,12,15)      =         1.933613	     110.787877
	 B(11,12,16)      =         1.918321	     109.911685
	 B(11,12,17)      =         1.933762	     110.796421
	 B(12,11,13)      =         1.949913	     111.721758
	 B(12,11,14)      =         1.949919	     111.722115
	 B(13,11,14)      =         1.882899	     107.882164
	 B(15,12,16)      =         1.892725	     108.445128
	 B(15,12,17)      =         1.891664	     108.384365
	 B(16,12,17)      =         1.892683	     108.442772
	 D(1,2,3,5)       =         1.144514	      65.575801
	 D(1,2,3,6)       =        -0.951488	     -54.516227
	 D(1,2,3,7)       =        -2.988926	    -171.252837
	 D(1,2,4,11)      =         0.024248	       1.389285
	 D(2,3,5,8)       =        -1.009058	     -57.814742
	 D(2,3,5,9)       =        -3.101730	    -177.716027
	 D(2,3,5,10)      =         1.093600	      62.658644
	 D(2,4,11,12)     =         3.137152	     179.745541
	 D(2,4,11,13)     =         1.021482	      58.526597
	 D(2,4,11,14)     =        -1.029489	     -58.985351
	 D(3,2,4,11)      =         3.088054	     176.932435
	 D(4,2,3,5)       =        -1.918256	    -109.907944
	*D(4,2,3,6)       =         2.268929	     130.000028
	 D(4,2,3,7)       =         0.231490	      13.263418
	 D(4,11,12,15)    =        -1.049353	     -60.123497
	 D(4,11,12,16)    =        -3.140811	    -179.955238
	 D(4,11,12,17)    =         1.050872	      60.210524
	 D(6,3,5,8)       =         1.055611	      60.482052
	 D(6,3,5,9)       =        -1.037061	     -59.419233
	 D(6,3,5,10)      =        -3.124917	    -179.044561
	 D(7,3,5,8)       =         3.138777	     179.838686
	 D(7,3,5,9)       =         1.046105	      59.937400
	 D(7,3,5,10)      =        -1.041751	     -59.687928
	 D(13,11,12,15)   =         1.035698	      59.341132
	 D(13,11,12,16)   =        -1.055760	     -60.490610
	 D(13,11,12,17)   =         3.135923	     179.675153
	 D(14,11,12,15)   =        -3.136253	    -179.694032
	 D(14,11,12,16)   =         1.055474	      60.474226
	 D(14,11,12,17)   =        -1.036028	     -59.360011

	Current energy   :      -344.9097875087

	Energy change for the previous step:
		Projected    :        -0.0029575422
		Actual       :        -0.0004862379
	Energy ratio indicates iffy step: Trust radius decreased to 1.250e-01.


	Performing BFGS update.
	Previous computed or guess Hessian on step 1.
	Steps to be used in Hessian update: 1
	Taking RFO optimization step.
	Going to follow RFO solution 1.
	Using RFO vector 1.

	Determining step-restricting scale parameter for RS-RFO.
	Maximum step size allowed    0.12500

	 Iter      |step|        alpha        rfo_root  
	------------------------------------------------
	    0     0.32323       1.00000           1
	    1     0.22597       6.66148           1
	    2     0.16644      17.41353           1
	    3     0.13653      29.58845           1
	    4     0.12635      35.99319           1
	    5     0.12502      36.95054           1
	    6     0.12500      36.96695           1
	------------------------------------------------
	Norm of target step-size    0.12500
	Projected energy change by RFO approximation:        -0.0005374382

	Back-transformation to cartesian coordinates...
	Successfully converged to displaced geometry.

	Back-transformation to cartesian coordinates to adjust frozen coordinates...
	Successfully converged to displaced geometry.

	--- Internal Coordinate Step in ANG or DEG, aJ/ANG or AJ/DEG ---
	 ---------------------------------------------------------------------------
	   Coordinate                Previous        Force       Change         New 
	   ----------                --------       ------       ------       ------
	    1 R(1,2)          =      1.189324     0.009623     0.000664     1.189987
	    2 R(2,3)          =      1.512025    -0.007992    -0.000368     1.511656
	    3 R(2,4)          =      1.326093    -0.008766    -0.000626     1.325467
	    4 R(3,5)          =      1.528541     0.011525     0.004610     1.533151
	    5 R(3,6)          =      1.084820     0.000283    -0.000525     1.084296
	    6 R(3,7)          =      1.082860    -0.005086    -0.002354     1.080507
	    7 R(4,11)         =      1.423735     0.000769     0.000032     1.423767
	    8 R(5,8)          =      1.084042    -0.005289    -0.000383     1.083659
	    9 R(5,9)          =      1.083832     0.002461    -0.000125     1.083707
	   10 R(5,10)         =      1.085346    -0.000621     0.001003     1.086349
	   11 R(11,12)        =      1.514168    -0.000553    -0.000030     1.514138
	   12 R(11,13)        =      1.081443    -0.000130    -0.000035     1.081409
	   13 R(11,14)        =      1.081507    -0.000550    -0.000068     1.081440
	   14 R(12,15)        =      1.084087    -0.000055     0.000012     1.084098
	   15 R(12,16)        =      1.085192    -0.000038    -0.000008     1.085184
	   16 R(12,17)        =      1.084102     0.000045     0.000012     1.084114
	   17 B(1,2,3)        =    124.265784    -0.000123    -0.740819   123.524965
	   18 B(1,2,4)        =    123.130532     0.000104     0.177924   123.308456
	   19 B(2,3,5)        =    111.463204    -0.000213    -1.445992   110.017212
	   20 B(2,3,6)        =    106.877266     0.000130     0.293932   107.171198
	   21 B(2,3,7)        =    109.518731     0.000076     1.126307   110.645038
	   22 B(2,4,11)       =    117.426417     0.000004    -0.034467   117.391950
	   23 B(3,2,4)        =    112.441264     0.000036     0.723720   113.164984
	   24 B(3,5,8)        =    110.883765    -0.000038    -0.249215   110.634549
	   25 B(3,5,9)        =    110.186883    -0.000014    -0.014611   110.172273
	   26 B(3,5,10)       =    111.120208     0.000012     0.047680   111.167888
	   27 B(4,11,12)      =    107.470653    -0.000011    -0.016261   107.454392
	   28 B(4,11,13)      =    108.951578     0.000019     0.069306   109.020885
	   29 B(4,11,14)      =    109.037777    -0.000009    -0.069225   108.968552
	   30 B(5,3,6)        =    109.894688    -0.000054    -1.001620   108.893068
	   31 B(5,3,7)        =    110.958115     0.000041    -0.189667   110.768447
	   32 B(6,3,7)        =    107.985169     0.000030     1.271519   109.256689
	   33 B(8,5,9)        =    108.308571     0.000029     0.091790   108.400360
	   34 B(8,5,10)       =    108.273126     0.000013     0.300325   108.573451
	   35 B(9,5,10)       =    107.965992    -0.000000    -0.167902   107.798090
	   36 B(11,12,15)     =    110.787877     0.000002     0.008733   110.796610
	   37 B(11,12,16)     =    109.911685    -0.000004    -0.010291   109.901394
	   38 B(11,12,17)     =    110.796421     0.000000     0.004350   110.800771
	   39 B(12,11,13)     =    111.721758    -0.000007    -0.001064   111.720694
	   40 B(12,11,14)     =    111.722115     0.000009     0.025183   111.747298
	   41 B(13,11,14)     =    107.882164    -0.000001    -0.008190   107.873974
	   42 B(15,12,16)     =    108.445128     0.000001     0.003111   108.448239
	   43 B(15,12,17)     =    108.384365    -0.000000    -0.001690   108.382675
	   44 B(16,12,17)     =    108.442772     0.000001    -0.004369   108.438403
	   45 D(1,2,3,5)      =     65.575801     0.000030     2.224548    67.800349
	   46 D(1,2,3,6)      =    -54.516227     0.000055     4.069718   -50.446509
	   47 D(1,2,3,7)      =   -171.252837     0.000021     1.774317  -169.478519
	   48 D(1,2,4,11)     =      1.389285    -0.000022    -1.936870    -0.547585
	   49 D(2,3,5,8)      =    -57.814742    -0.000001     0.411611   -57.403131
	   50 D(2,3,5,9)      =   -177.716027    -0.000002     0.466500  -177.249527
	   51 D(2,3,5,10)     =     62.658644    -0.000001     0.655232    63.313876
	   52 D(2,4,11,12)    =    179.745541    -0.000000     0.019484   179.765025
	   53 D(2,4,11,13)    =     58.526597     0.000001    -0.009548    58.517049
	   54 D(2,4,11,14)    =    -58.985351    -0.000000     0.000221   -58.985130
	   55 D(3,2,4,11)     =    176.932435     0.000029     2.074554   179.006990
	   56 D(4,2,3,5)      =   -109.907944    -0.000024    -1.845170  -111.753115
	   57 *D(4,2,3,6)     =    130.000028     0.000000     0.000000   130.000028
	   58 D(4,2,3,7)      =     13.263418    -0.000034    -2.295401    10.968017
	   59 D(4,11,12,15)   =    -60.123497    -0.000002    -0.059217   -60.182714
	   60 D(4,11,12,16)   =   -179.955238    -0.000002    -0.061993  -180.017231
	   61 D(4,11,12,17)   =     60.210524    -0.000002    -0.052678    60.157846
	   62 D(6,3,5,8)      =     60.482052    -0.000002    -0.705440    59.776613
	   63 D(6,3,5,9)      =    -59.419233    -0.000003    -0.650550   -60.069784
	   64 D(6,3,5,10)     =   -179.044561    -0.000003    -0.461818  -179.506380
	   65 D(7,3,5,8)      =    179.838686     0.000004     0.109757   179.948443
	   66 D(7,3,5,9)      =     59.937400     0.000004     0.164646    60.102047
	   67 D(7,3,5,10)     =    -59.687928     0.000004     0.353379   -59.334550
	   68 D(13,11,12,15)  =     59.341132     0.000001     0.014792    59.355923
	   69 D(13,11,12,16)  =    -60.490610     0.000001     0.012016   -60.478594
	   70 D(13,11,12,17)  =    179.675153     0.000001     0.021330   179.696483
	   71 D(14,11,12,15)  =   -179.694032     0.000001     0.021233  -179.672799
	   72 D(14,11,12,16)  =     60.474226     0.000001     0.018457    60.492683
	   73 D(14,11,12,17)  =    -59.360011     0.000001     0.027772   -59.332239
	 ---------------------------------------------------------------------------

  ==> Convergence Check <==

  Measures of convergence in internal coordinates in au.
  Criteria marked as inactive (o), active & met (*), and active & unmet ( ).
  ---------------------------------------------------------------------------------------------
   Step     Total Energy     Delta E     MAX Force     RMS Force      MAX Disp      RMS Disp   
  ---------------------------------------------------------------------------------------------
    Convergence Criteria    1.00e-06 *    3.00e-04 *             o    1.20e-03 *             o
  ---------------------------------------------------------------------------------------------
      2    -344.90978751   -4.86e-04      3.13e-03      8.18e-04 o    7.10e-02      1.46e-02 o  ~
  ---------------------------------------------------------------------------------------------

	Writing optimization data to binary file.
	Structure for next step:
	Cartesian Geometry (in Angstrom)
	    O    -0.0805036574   0.4903721782  -1.5132839493
	    C     0.1920891392  -0.1989568032  -0.5823765014
	    C     1.3019236037  -1.2251447416  -0.6000018185
	    O    -0.4424730996  -0.1371202314   0.5796781732
	    C     2.6628465609  -0.5248284468  -0.6894401779
	    H     1.1612518496  -1.8336125100  -1.4863852495
	    H     1.2521291724  -1.8552373658   0.2763533033
	    H     2.7107547044   0.1057236771  -1.5694553027
	    H     3.4576001507  -1.2589950395  -0.7509839882
	    H     2.8459675322   0.0900677783   0.1872143476
	    C    -1.4923351803   0.8166867361   0.7027797159
	    C    -2.0580473558   0.6913927664   2.1016669383
	    H    -2.2411103319   0.6159163298  -0.0511911456
	    H    -1.0929334928   1.8047404535   0.5190954063
	    H    -2.4486142053  -0.3056216628   2.2710443536
	    H    -2.8647172805   1.4041447720   2.2391206809
	    H    -1.2943829382   0.8902716633   2.8450154409
			--------------------------
			 OPTKING Finished Execution 
			--------------------------

    Structure for next step:
    Molecular point group: c1
    Full point group: C1

    Geometry (in Angstrom), charge = 0, multiplicity = 1:

    O           -0.084523765393     0.490227667758    -1.520861871697
    C            0.188069010304    -0.199101261048    -0.589954494914
    C            1.297903390076    -1.225289121061    -0.607579810665
    O           -0.446493179967    -0.137264693948     0.572100090964
    C            2.658826243358    -0.524972879710    -0.697018163243
    H            1.157231646707    -1.833756842968    -1.493963173977
    H            1.248108962603    -1.855381697199     0.268775244193
    H            2.706734383198     0.105579195996    -1.577033220848
    H            3.453579772521    -1.259139416351    -0.758561968801
    H            2.841947200714     0.089923298346     0.179636295311
    C           -1.496355180555     0.816542200716     0.695201624260
    C           -2.062067312781     0.691248240597     2.094088739773
    H           -2.245130274930     0.615771809714    -0.058769179709
    H           -1.096953523516     1.804595842694     0.511517328633
    H           -2.452634132540    -0.305766112476     2.263466142197
    H           -2.868737175875     1.404000191792     2.231542471940
    H           -1.298402953558     0.890127122296     2.837437185667

gradient() will perform analytic gradient computation.

*** tstart() called on cx1-1-4-3.cx1.hpc.ic.ac.uk
*** at Fri Sep  2 13:16:56 2016


         ---------------------------------------------------------
                                   SCF
            by Justin Turney, Rob Parrish, and Andy Simmonett
                              RHF Reference
                        4 Threads,   2000 MiB Core
         ---------------------------------------------------------

  ==> Geometry <==

    Molecular point group: c1
    Full point group: C1

    Geometry (in Angstrom), charge = 0, multiplicity = 1:

       Center              X                  Y                   Z               Mass       
    ------------   -----------------  -----------------  -----------------  -----------------
           O         -0.084523765393     0.490227667758    -1.520861871697    15.994914619560
           C          0.188069010304    -0.199101261048    -0.589954494914    12.000000000000
           C          1.297903390076    -1.225289121061    -0.607579810665    12.000000000000
           O         -0.446493179967    -0.137264693948     0.572100090964    15.994914619560
           C          2.658826243358    -0.524972879710    -0.697018163243    12.000000000000
           H          1.157231646707    -1.833756842968    -1.493963173977     1.007825032070
           H          1.248108962603    -1.855381697199     0.268775244193     1.007825032070
           H          2.706734383198     0.105579195996    -1.577033220848     1.007825032070
           H          3.453579772521    -1.259139416351    -0.758561968801     1.007825032070
           H          2.841947200714     0.089923298346     0.179636295311     1.007825032070
           C         -1.496355180555     0.816542200716     0.695201624260    12.000000000000
           C         -2.062067312781     0.691248240597     2.094088739773    12.000000000000
           H         -2.245130274930     0.615771809714    -0.058769179709     1.007825032070
           H         -1.096953523516     1.804595842694     0.511517328633     1.007825032070
           H         -2.452634132540    -0.305766112476     2.263466142197     1.007825032070
           H         -2.868737175875     1.404000191792     2.231542471940     1.007825032070
           H         -1.298402953558     0.890127122296     2.837437185667     1.007825032070

  Running in c1 symmetry.

  Rotational constants: A =      0.20113  B =      0.04567  C =      0.04075 [cm^-1]
  Rotational constants: A =   6029.64481  B =   1369.27034  C =   1221.76897 [MHz]
  Nuclear repulsion =  315.551949485861314

  Charge       = 0
  Multiplicity = 1
  Electrons    = 56
  Nalpha       = 28
  Nbeta        = 28

  ==> Algorithm <==

  SCF Algorithm Type is DF.
  DIIS enabled.
  MOM disabled.
  Fractional occupation disabled.
  Guess Type is READ.
  Energy threshold   = 1.00e-08
  Density threshold  = 1.00e-08
  Integral threshold = 0.00e+00

  ==> Primary Basis <==

  Basis Set: 6-31G*
    Number of shells: 62
    Number of basis function: 125
    Number of Cartesian functions: 125
    Spherical Harmonics?: false
    Max angular momentum: 2

  ==> Pre-Iterations <==

   -------------------------------------------------------
    Irrep   Nso     Nmo     Nalpha   Nbeta   Ndocc  Nsocc
   -------------------------------------------------------
     A        125     125       0       0       0       0
   -------------------------------------------------------
    Total     125     125      28      28      28       0
   -------------------------------------------------------

 OEINTS: Overlap, kinetic, potential, dipole, and quadrupole integrals
         stored in file 35.

  ==> Integral Setup <==

  ==> DFJK: Density-Fitted J/K Matrices <==

    J tasked:                  Yes
    K tasked:                  Yes
    wK tasked:                  No
    OpenMP threads:              4
    Integrals threads:           4
    Memory (MB):              1430
    Algorithm:                Core
    Integral Cache:           NONE
    Schwarz Cutoff:          1E-12
    Fitting Condition:       1E-12

   => Auxiliary Basis Set <=

  Basis Set: 
    Number of shells: 258
    Number of basis function: 817
    Number of Cartesian functions: 817
    Spherical Harmonics?: false
    Max angular momentum: 3

  Minimum eigenvalue in the overlap matrix is 3.2099131395E-03.
  Using Symmetric Orthogonalization.
  SCF Guess: Reading in previously saved MOs, projecting if necessary.

  Using orbitals from previous SCF, no projection.
  Recomputing DOCC and SOCC from number of alpha and beta electrons from previous calculation.
              A 
    DOCC [    28 ]

  ==> Iterations <==

                           Total Energy        Delta E     RMS |[F,P]|

   @DF-RHF iter   0:  -344.90720433754370   -3.44907e+02   5.53885e-04 
   @DF-RHF iter   1:  -344.90984357290438   -2.63924e-03   8.91482e-05 
   @DF-RHF iter   2:  -344.90994630635294   -1.02733e-04   3.72676e-05 DIIS
   @DF-RHF iter   3:  -344.90996025111667   -1.39448e-05   2.09286e-05 DIIS
   @DF-RHF iter   4:  -344.90996420939086   -3.95827e-06   3.69307e-06 DIIS
   @DF-RHF iter   5:  -344.90996439428443   -1.84894e-07   1.51981e-06 DIIS
   @DF-RHF iter   6:  -344.90996444644520   -5.21608e-08   4.81924e-07 DIIS
   @DF-RHF iter   7:  -344.90996445219560   -5.75039e-09   1.89470e-07 DIIS
   @DF-RHF iter   8:  -344.90996445290216   -7.06564e-10   6.38631e-08 DIIS
   @DF-RHF iter   9:  -344.90996445300198   -9.98170e-11   2.43304e-08 DIIS
   @DF-RHF iter  10:  -344.90996445302176   -1.97815e-11   1.01228e-08 DIIS
   @DF-RHF iter  11:  -344.90996445302608   -4.32010e-12   3.13749e-09 DIIS

  ==> Post-Iterations <==

    Orbital Energies (a.u.)
    -----------------------

    Doubly Occupied:                                                      

       1A    -20.603006     2A    -20.540959     3A    -11.370798  
       4A    -11.284572     5A    -11.236273     6A    -11.224215  
       7A    -11.222349     8A     -1.467260     9A     -1.360407  
      10A     -1.070543    11A     -1.032358    12A     -0.908101  
      13A     -0.851763    14A     -0.776459    15A     -0.694630  
      16A     -0.684786    17A     -0.666255    18A     -0.618794  
      19A     -0.597055    20A     -0.574021    21A     -0.554879  
      22A     -0.533809    23A     -0.525345    24A     -0.509911  
      25A     -0.501571    26A     -0.494190    27A     -0.450982  
      28A     -0.432543  

    Virtual:                                                              

      29A      0.192365    30A      0.242518    31A      0.258280  
      32A      0.294183    33A      0.298323    34A      0.303881  
      35A      0.305761    36A      0.312269    37A      0.320916  
      38A      0.332278    39A      0.349332    40A      0.360692  
      41A      0.398516    42A      0.413100    43A      0.438815  
      44A      0.514414    45A      0.569463    46A      0.719662  
      47A      0.730392    48A      0.732347    49A      0.738850  
      50A      0.751389    51A      0.763608    52A      0.778898  
      53A      0.839278    54A      0.865016    55A      0.905832  
      56A      0.929549    57A      0.963476    58A      0.996294  
      59A      1.016959    60A      1.032705    61A      1.091446  
      62A      1.103585    63A      1.122599    64A      1.149144  
      65A      1.160715    66A      1.163630    67A      1.182773  
      68A      1.187628    69A      1.205407    70A      1.214740  
      71A      1.240661    72A      1.245936    73A      1.266428  
      74A      1.305807    75A      1.365431    76A      1.397615  
      77A      1.422428    78A      1.514111    79A      1.551843  
      80A      1.645021    81A      1.651142    82A      1.662286  
      83A      1.781849    84A      1.793143    85A      1.842537  
      86A      1.947713    87A      1.988151    88A      2.019656  
      89A      2.058017    90A      2.103709    91A      2.144679  
      92A      2.161733    93A      2.199396    94A      2.208425  
      95A      2.247192    96A      2.284464    97A      2.315700  
      98A      2.370123    99A      2.390771   100A      2.456624  
     101A      2.480999   102A      2.550777   103A      2.602124  
     104A      2.607859   105A      2.637499   106A      2.684953  
     107A      2.686382   108A      2.695268   109A      2.727954  
     110A      2.868505   111A      2.911294   112A      2.982178  
     113A      3.033116   114A      3.099971   115A      3.169521  
     116A      3.359555   117A      3.417937   118A      3.573232  
     119A      4.455712   120A      4.554027   121A      4.611373  
     122A      4.661107   123A      4.728274   124A      4.860348  
     125A      4.988313  

    Final Occupation by Irrep:
              A 
    DOCC [    28 ]

  Energy converged.

  @DF-RHF Final Energy:  -344.90996445302608

   => Energetics <=

    Nuclear Repulsion Energy =            315.5519494858613143
    One-Electron Energy =               -1095.3481624906153229
    Two-Electron Energy =                 434.8862485517278174
    DFT Exchange-Correlation Energy =       0.0000000000000000
    Empirical Dispersion Energy =           0.0000000000000000
    PCM Polarization Energy =               0.0000000000000000
    EFP Energy =                            0.0000000000000000
    Total Energy =                       -344.9099644530261912

    Alert: EFP and PCM quantities not currently incorporated into SCF psivars.

Properties will be evaluated at   0.000000,   0.000000,   0.000000 Bohr
  ==> Properties <==


Properties computed using the SCF density matrix

  Nuclear Dipole Moment: (a.u.)
     X:     1.3528      Y:    -0.3208      Z:     4.1241

  Electronic Dipole Moment: (a.u.)
     X:    -1.3219      Y:     0.0272      Z:    -3.3984

  Dipole Moment: (a.u.)
     X:     0.0309      Y:    -0.2936      Z:     0.7257     Total:     0.7835

  Dipole Moment: (Debye)
     X:     0.0786      Y:    -0.7463      Z:     1.8445     Total:     1.9913


  Saving occupied orbitals to File 180.

*** tstop() called on cx1-1-4-3.cx1.hpc.ic.ac.uk at Fri Sep  2 13:17:01 2016
Module time:
	user time   =      13.39 seconds =       0.22 minutes
	system time =       0.18 seconds =       0.00 minutes
	total time  =          5 seconds =       0.08 minutes
Total time:
	user time   =      78.03 seconds =       1.30 minutes
	system time =       0.90 seconds =       0.01 minutes
	total time  =         26 seconds =       0.43 minutes

*** tstart() called on cx1-1-4-3.cx1.hpc.ic.ac.uk
*** at Fri Sep  2 13:17:01 2016


         ------------------------------------------------------------
                                   SCF GRAD                          
                          Rob Parrish, Justin Turney,                
                       Andy Simmonett, and Alex Sokolov              
         ------------------------------------------------------------

  ==> Geometry <==

    Molecular point group: c1
    Full point group: C1

    Geometry (in Angstrom), charge = 0, multiplicity = 1:

       Center              X                  Y                   Z               Mass       
    ------------   -----------------  -----------------  -----------------  -----------------
           O         -0.084523765393     0.490227667758    -1.520861871697    15.994914619560
           C          0.188069010304    -0.199101261048    -0.589954494914    12.000000000000
           C          1.297903390076    -1.225289121061    -0.607579810665    12.000000000000
           O         -0.446493179967    -0.137264693948     0.572100090964    15.994914619560
           C          2.658826243358    -0.524972879710    -0.697018163243    12.000000000000
           H          1.157231646707    -1.833756842968    -1.493963173977     1.007825032070
           H          1.248108962603    -1.855381697199     0.268775244193     1.007825032070
           H          2.706734383198     0.105579195996    -1.577033220848     1.007825032070
           H          3.453579772521    -1.259139416351    -0.758561968801     1.007825032070
           H          2.841947200714     0.089923298346     0.179636295311     1.007825032070
           C         -1.496355180555     0.816542200716     0.695201624260    12.000000000000
           C         -2.062067312781     0.691248240597     2.094088739773    12.000000000000
[...]

			-----------------------------------------
			 OPTKING 2.0: for geometry optimizations 
			  - R.A. King,  Bethel University        
			-----------------------------------------

	Previous internal coordinate definitions found.
	---Fragment 1 Geometry and Gradient---
	 O          -0.1835591182        0.9281153301       -2.8898038032
	 C           0.3424699646       -0.3744333361       -1.1335722156
	 C           2.4492763149       -2.3000545146       -1.1532476211
	 O          -0.8345793496       -0.2551201011        1.0712439284
	 C           5.0327654293       -0.9971256015       -1.2895949445
	 H           2.1828009713       -3.4695506628       -2.8140604398
	 H           2.3179361370       -3.4866545307        0.5063676267
	 H           5.1545383727        0.1898934156       -2.9525524658
	 H           6.5276367978       -2.3955801275       -1.3798081841
	 H           5.3596146627        0.1710968804        0.3639205799
	 C          -2.8271607881        1.5370086130        1.3176540673
	 C          -3.8738402800        1.2970830209        3.9696587950
	 H          -4.2505453956        1.1462828300       -0.0955719134
	 H          -2.0866902760        3.4083060466        0.9625006275
	 H          -4.5977129561       -0.5910673943        4.2978017056
	 H          -5.4044625363        2.6348932161        4.2395776831
	 H          -2.4219681731        1.6836864722        5.3623193426
	            -0.0000793011       -0.0000754387        0.0001458349
	            -0.0000003998       -0.0000552673       -0.0003299198
	            -0.0000776481       -0.0001099899        0.0002123090
	            -0.0000113659        0.0001046980        0.0000647243
	            -0.0000294763       -0.0000088326       -0.0000270142
	             0.0001203335        0.0001565877       -0.0000870992
	            -0.0000026130       -0.0000310944        0.0000095042
	             0.0000161940        0.0000138311       -0.0000030123
	             0.0000091075       -0.0000150431        0.0000003973
	            -0.0000225772       -0.0000105866       -0.0000072572
	             0.0002042483        0.0000952504        0.0000584090
	            -0.0000593550       -0.0000193509       -0.0000080384
	            -0.0000197255       -0.0000319360       -0.0000350576
	            -0.0000431916       -0.0000076708        0.0000043854
	            -0.0000039180       -0.0000034464        0.0000154403
	            -0.0000067138       -0.0000038166        0.0000063589
	             0.0000064019        0.0000021061       -0.0000199646

	---Fragment 1 Intrafragment Coordinates---
	 - Coordinate -           - BOHR/RAD -       - ANG/DEG -
	 R(1,2)           =         2.248931	       1.190083
	 R(2,3)           =         2.854301	       1.510431
	 R(2,4)           =         2.502178	       1.324096
	 R(3,5)           =         2.896658	       1.532846
	 R(3,6)           =         2.048665	       1.084107
	 R(3,7)           =         2.044405	       1.081853
	 R(4,11)          =         2.691250	       1.424148
	 R(5,8)           =         2.046771	       1.083105
	 R(5,9)           =         2.049013	       1.084291
	 R(5,10)          =         2.050777	       1.085225
	 R(11,12)         =         2.861159	       1.514060
	 R(11,13)         =         2.043501	       1.081374
	 R(11,14)         =         2.043572	       1.081412
	 R(12,15)         =         2.048605	       1.084075
	 R(12,16)         =         2.050706	       1.085187
	 R(12,17)         =         2.048633	       1.084090
	 B(1,2,3)         =         2.162776	     123.917917
	 B(1,2,4)         =         2.153718	     123.398968
	 B(2,3,5)         =         1.933908	     110.804778
	 B(2,3,6)         =         1.869940	     107.139662
	 B(2,3,7)         =         1.916176	     109.788795
	 B(2,4,11)        =         2.049602	     117.433564
	 B(3,2,4)         =         1.966503	     112.672333
	 B(3,5,8)         =         1.930684	     110.620061
	 B(3,5,9)         =         1.923847	     110.228312
	 B(3,5,10)        =         1.939520	     111.126305
	 B(4,11,12)       =         1.875362	     107.450345
	 B(4,11,13)       =         1.901882	     108.969813
	 B(4,11,14)       =         1.902428	     109.001076
	 B(5,3,6)         =         1.912003	     109.549730
	 B(5,3,7)         =         1.935403	     110.890401
	 B(6,3,7)         =         1.894846	     108.566651
	 B(8,5,9)         =         1.892980	     108.459743
	 B(8,5,10)        =         1.891509	     108.375470
	 B(9,5,10)        =         1.883896	     107.939317
	 B(11,12,15)      =         1.933733	     110.794736
	 B(11,12,16)      =         1.918077	     109.897717
	 B(11,12,17)      =         1.933733	     110.794712
	 B(12,11,13)      =         1.949989	     111.726164
	 B(12,11,14)      =         1.950264	     111.741907
	 B(13,11,14)      =         1.883133	     107.895566
	 B(15,12,16)      =         1.892782	     108.448448
	 B(15,12,17)      =         1.891740	     108.388719
	 B(16,12,17)      =         1.892708	     108.444171
	 D(1,2,3,5)       =         1.192010	      68.297128
	 D(1,2,3,6)       =        -0.892920	     -51.160575
	 D(1,2,3,7)       =        -2.947441	    -168.875924
	 D(1,2,4,11)      =        -0.000488	      -0.027984
	 D(2,3,5,8)       =        -1.007981	     -57.753060
	 D(2,3,5,9)       =        -3.101456	    -177.700346
	 D(2,3,5,10)      =         1.093914	      62.676668
	 D(2,4,11,12)     =         3.133884	     179.558342
	 D(2,4,11,13)     =         1.018149	      58.335619
	 D(2,4,11,14)     =        -1.032920	     -59.181956
	 D(3,2,4,11)      =         3.120970	     178.818393
	 D(4,2,3,5)       =        -1.929327	    -110.542269
	*D(4,2,3,6)       =         2.268929	     130.000028
	 D(4,2,3,7)       =         0.214408	      12.284679
	 D(4,11,12,15)    =        -1.049764	     -60.147022
	 D(4,11,12,16)    =        -3.141213	    -179.978235
	 D(4,11,12,17)    =         1.050616	      60.195886
	 D(6,3,5,8)       =         1.051501	      60.246579
	 D(6,3,5,9)       =        -1.041974	     -59.700706
	 D(6,3,5,10)      =        -3.129789	    -179.323692
	 D(7,3,5,8)       =        -3.140531	    -179.939156
	 D(7,3,5,9)       =         1.049180	      60.113558
	 D(7,3,5,10)      =        -1.038635	     -59.509428
	 D(13,11,12,15)   =         1.035498	      59.329639
	 D(13,11,12,16)   =        -1.055952	     -60.501574
	 D(13,11,12,17)   =         3.135878	     179.672547
	 D(14,11,12,15)   =        -3.135855	    -179.671249
	 D(14,11,12,16)   =         1.055881	      60.497538
	 D(14,11,12,17)   =        -1.035475	     -59.328341

	Current energy   :      -344.9100628765

	Energy change for the previous step:
		Projected    :        -0.0000136760
		Actual       :        -0.0000005619
	Energy ratio indicates iffy step: Trust radius decreased to 9.375e-02.


	Performing BFGS update.
	Previous computed or guess Hessian on step 1.
	Steps to be used in Hessian update: 4 3
	Taking RFO optimization step.
	Going to follow RFO solution 1.
	Using RFO vector 1.
	Norm of target step-size    0.01378
	Projected energy change by RFO approximation:        -0.0000008475

	Back-transformation to cartesian coordinates...
	Successfully converged to displaced geometry.

	Back-transformation to cartesian coordinates to adjust frozen coordinates...
	Successfully converged to displaced geometry.

	--- Internal Coordinate Step in ANG or DEG, aJ/ANG or AJ/DEG ---
	 ---------------------------------------------------------------------------
	   Coordinate                Previous        Force       Change         New 
	   ----------                --------       ------       ------       ------
	    1 R(1,2)          =      1.190083     0.001145     0.000072     1.190155
	    2 R(2,3)          =      1.510431    -0.000104     0.000005     1.510437
	    3 R(2,4)          =      1.324096    -0.000422    -0.000135     1.323961
	    4 R(3,5)          =      1.532846     0.000259    -0.000008     1.532838
	    5 R(3,6)          =      1.084107     0.000284     0.000012     1.084119
	    6 R(3,7)          =      1.081853    -0.000214    -0.000010     1.081843
	    7 R(4,11)         =      1.424148     0.000287     0.000071     1.424219
	    8 R(5,8)          =      1.083105    -0.000094    -0.000003     1.083102
	    9 R(5,9)          =      1.084291    -0.000139    -0.000030     1.084261
	   10 R(5,10)         =      1.085225     0.000128    -0.000007     1.085217
	   11 R(11,12)        =      1.514060    -0.000161    -0.000019     1.514041
	   12 R(11,13)        =      1.081374    -0.000363    -0.000037     1.081337
	   13 R(11,14)        =      1.081412     0.000193     0.000010     1.081422
	   14 R(12,15)        =      1.084075    -0.000058    -0.000006     1.084069
	   15 R(12,16)        =      1.085187    -0.000028    -0.000003     1.085184
	   16 R(12,17)        =      1.084090     0.000071     0.000005     1.084095
	   17 B(1,2,3)        =    123.917917    -0.000009    -0.012065   123.905852
	   18 B(1,2,4)        =    123.398968     0.000009     0.004876   123.403844
	   19 B(2,3,5)        =    110.804778    -0.000001    -0.011583   110.793195
	   20 B(2,3,6)        =    107.139662     0.000001     0.006208   107.145870
	   21 B(2,3,7)        =    109.788795    -0.000000     0.001968   109.790764
	   22 B(2,4,11)       =    117.433564     0.000003     0.009180   117.442744
	   23 B(3,2,4)        =    112.672333     0.000001     0.006401   112.678734
	   24 B(3,5,8)        =    110.620061    -0.000003    -0.009286   110.610775
	   25 B(3,5,9)        =    110.228312     0.000000    -0.006701   110.221612
	   26 B(3,5,10)       =    111.126305     0.000003    -0.003098   111.123207
	   27 B(4,11,12)      =    107.450345    -0.000002    -0.003311   107.447034
	   28 B(4,11,13)      =    108.969813     0.000003     0.013309   108.983121
	   29 B(4,11,14)      =    109.001076    -0.000002    -0.022406   108.978670
	   30 B(5,3,6)        =    109.549730     0.000001    -0.003208   109.546522
	   31 B(5,3,7)        =    110.890401    -0.000000     0.008290   110.898691
	   32 B(6,3,7)        =    108.566651    -0.000000    -0.001619   108.565032
	   33 B(8,5,9)        =    108.459743     0.000000     0.006237   108.465980
	   34 B(8,5,10)       =    108.375470     0.000000     0.006793   108.382263
	   35 B(9,5,10)       =    107.939317    -0.000001     0.006876   107.946193
	   36 B(11,12,15)     =    110.794736    -0.000002    -0.004412   110.790324
	   37 B(11,12,16)     =    109.897717    -0.000001    -0.002873   109.894844
	   38 B(11,12,17)     =    110.794712     0.000003     0.006713   110.801425
	   39 B(12,11,13)     =    111.726164     0.000002     0.013116   111.739280
	   40 B(12,11,14)     =    111.741907    -0.000000    -0.004597   111.737310
	   41 B(13,11,14)     =    107.895566    -0.000000     0.003395   107.898961
	   42 B(15,12,16)     =    108.448448     0.000001     0.000553   108.449001
	   43 B(15,12,17)     =    108.388719    -0.000000     0.000752   108.389471
	   44 B(16,12,17)     =    108.444171    -0.000001    -0.000733   108.443438
	   45 D(1,2,3,5)      =     68.297128    -0.000000    -0.048246    68.248882
	   46 D(1,2,3,6)      =    -51.160575    -0.000000    -0.041561   -51.202136
	   47 D(1,2,3,7)      =   -168.875924    -0.000000    -0.044220  -168.920144
	   48 D(1,2,4,11)     =     -0.027984     0.000001     0.102001     0.074017
	   49 D(2,3,5,8)      =    -57.753060    -0.000000    -0.003130   -57.756190
	   50 D(2,3,5,9)      =   -177.700346    -0.000000    -0.000612  -177.700958
	   51 D(2,3,5,10)     =     62.676668    -0.000000    -0.002834    62.673834
	   52 D(2,4,11,12)    =    179.558342     0.000001     0.459798   180.018140
	   53 D(2,4,11,13)    =     58.335619     0.000000     0.438299    58.773918
	   54 D(2,4,11,14)    =    -59.181956     0.000000     0.439381   -58.742575
	   55 D(3,2,4,11)     =    178.818393     0.000000     0.060453   178.878847
	   56 D(4,2,3,5)      =   -110.542269     0.000000    -0.006685  -110.548954
	   57 *D(4,2,3,6)     =    130.000028     0.000000    -0.000000   130.000028
	   58 D(4,2,3,7)      =     12.284679     0.000000    -0.002659    12.282020
	   59 D(4,11,12,15)   =    -60.147022    -0.000001    -0.037532   -60.184554
	   60 D(4,11,12,16)   =   -179.978235    -0.000000    -0.033566  -180.011800
	   61 D(4,11,12,17)   =     60.195886    -0.000001    -0.035062    60.160825
	   62 D(6,3,5,8)      =     60.246579    -0.000000    -0.004486    60.242094
	   63 D(6,3,5,9)      =    -59.700706     0.000000    -0.001968   -59.702674
	   64 D(6,3,5,10)     =   -179.323692     0.000000    -0.004190  -179.327882
	   65 D(7,3,5,8)      =   -179.939156     0.000000    -0.003354  -179.942510
	   66 D(7,3,5,9)      =     60.113558     0.000000    -0.000836    60.112722
	   67 D(7,3,5,10)     =    -59.509428     0.000000    -0.003058   -59.512486
	   68 D(13,11,12,15)  =     59.329639     0.000000    -0.015629    59.314010
	   69 D(13,11,12,16)  =    -60.501574     0.000000    -0.011663   -60.513237
	   70 D(13,11,12,17)  =    179.672547     0.000000    -0.013159   179.659388
	   71 D(14,11,12,15)  =   -179.671249     0.000000    -0.005256  -179.676505
	   72 D(14,11,12,16)  =     60.497538     0.000000    -0.001290    60.496248
	   73 D(14,11,12,17)  =    -59.328341     0.000000    -0.002786   -59.331127
	 ---------------------------------------------------------------------------

  ==> Convergence Check <==

  Measures of convergence in internal coordinates in au.
  Criteria marked as inactive (o), active & met (*), and active & unmet ( ).
  ---------------------------------------------------------------------------------------------
   Step     Total Energy     Delta E     MAX Force     RMS Force      MAX Disp      RMS Disp   
  ---------------------------------------------------------------------------------------------
    Convergence Criteria    1.00e-06 *    3.00e-04 *             o    1.20e-03 *             o
  ---------------------------------------------------------------------------------------------
      5    -344.91006288   -5.62e-07 *    1.39e-04 *    3.31e-05 o    8.02e-03      1.61e-03 o  ~
  ---------------------------------------------------------------------------------------------


  **** Optimization is complete! (in 5 steps) ****

  ==> Optimization Summary <==

  Measures of convergence in internal coordinates in au.
  --------------------------------------------------------------------------------------------------------------- ~
   Step         Total Energy             Delta E       MAX Force       RMS Force        MAX Disp        RMS Disp  ~
  --------------------------------------------------------------------------------------------------------------- ~
      1    -344.909301270814   -344.909301270814      0.00526264      0.00131638      0.13743278      0.02999462  ~
      2    -344.909787508693     -0.000486237880      0.00313050      0.00081789      0.07102998      0.01462640  ~
      3    -344.909964453026     -0.000176944333      0.00236126      0.00063712      0.02268542      0.00628854  ~
      4    -344.910062314565     -0.000097861539      0.00046289      0.00008443      0.00947784      0.00196459  ~
      5    -344.910062876468     -0.000000561903      0.00013903      0.00003314      0.00802499      0.00161274  ~
  --------------------------------------------------------------------------------------------------------------- ~

	Writing optimization data to binary file.
	Final energy is   -344.9100628764684
	Final (previous) structure:
	Cartesian Geometry (in Angstrom)
	    O    -0.0971353092   0.4911375171  -1.5292184267
	    C     0.1812273137  -0.1981416028  -0.5998606266
	    C     1.2961013024  -1.2171365206  -0.6102724036
	    O    -0.4416404043  -0.1350037533   0.5668779150
	    C     2.6632249647  -0.5276561827  -0.6824243050
	    H     1.1550886131  -1.8360072750  -1.4891367621
	    H     1.2265990683  -1.8450582528   0.2679582277
	    H     2.7276644359   0.1004872753  -1.5624235914
	    H     3.4542768831  -1.2676865016  -0.7301630990
	    H     2.8361861429   0.0905405765   0.1925784913
	    C    -1.4960691683   0.8133499895   0.6972725545
	    C    -2.0499481424   0.6863868247   2.1006531206
	    H    -2.2492919192   0.6065867945  -0.0505744822
	    H    -1.1042290198   1.8035980175   0.5093334342
	    H    -2.4330050938  -0.3127794177   2.2742988833
	    H    -2.8599186173   1.3943255435   2.2434880553
	    H    -1.2816504550   0.8909685755   2.8376173980
	Saving final (previous) structure.
			--------------------------
			 OPTKING Finished Execution 
			--------------------------

    Final optimized geometry and variables:
    Molecular point group: c1
    Full point group: C1

    Geometry (in Angstrom), charge = 0, multiplicity = 1:

    O           -0.097135301773     0.491137479618    -1.529218309955
    C            0.181227299907    -0.198141587619    -0.599860580794
    C            1.296101203396    -1.217136427622    -0.610272356961
    O           -0.441640370556    -0.135003742968     0.566877871755
    C            2.663224761363    -0.527656142400    -0.682424252934
    H            1.155088524894    -1.836007134805    -1.489136648360
    H            1.226598974676    -1.845058111874     0.267958207222
    H            2.727664227652     0.100487267587    -1.562423472056
    H            3.454276619332    -1.267686404836    -0.730163043240
    H            2.836185926320     0.090540569583     0.192578476630
    C           -1.496069054088     0.813349927384     0.697272501218
    C           -2.049947985875     0.686386772308     2.100652960219
    H           -2.249291747412     0.606586748213    -0.050574478337
    H           -1.104228935461     1.803597879780     0.509333395336
    H           -2.433004908018    -0.312779393819     2.274298709625
    H           -2.859918398910     1.394325437002     2.243487883956
    H           -1.281650357129     0.890968507509     2.837617181269

	Cleaning optimization helper files.


Properties will be evaluated at   0.000000,   0.000000,   0.000000 Bohr

Properties computed using the  density matrix

  Nuclear Dipole Moment: (a.u.)
     X:     1.3771      Y:    -0.3499      Z:     4.2074

  Electronic Dipole Moment: (a.u.)
     X:    -1.3455      Y:     0.0556      Z:    -3.4726

  Dipole Moment: (a.u.)
     X:     0.0316      Y:    -0.2943      Z:     0.7348     Total:     0.7922

  Dipole Moment: (Debye)
     X:     0.0804      Y:    -0.7480      Z:     1.8677     Total:     2.0135

  Quadrupole Moment: (Debye Ang)
    XX:   -38.6068     YY:   -41.7268     ZZ:   -47.5475
    XY:    -2.1705     XZ:    -2.1901     YZ:     3.8946

  Traceless Quadrupole Moment: (Debye Ang)
    XX:     4.0202     YY:     0.9003     ZZ:    -4.9205
    XY:    -2.1705     XZ:    -2.1901     YZ:     3.8946

  Mulliken Charges: (a.u.)
   Center  Symbol    Alpha    Beta     Spin     Total
       1     O     4.28743  4.28743  0.00000 -0.57486
       2     C     2.61059  2.61059  0.00000  0.77881
       3     C     3.19874  3.19874  0.00000 -0.39747
       4     O     4.30940  4.30940  0.00000 -0.61881
       5     C     3.24941  3.24941  0.00000 -0.49882
       6     H     0.40053  0.40053  0.00000  0.19893
       7     H     0.40177  0.40177  0.00000  0.19647
       8     H     0.40342  0.40342  0.00000  0.19316
       9     H     0.41301  0.41301  0.00000  0.17398
      10     H     0.41422  0.41422  0.00000  0.17156
      11     C     3.00343  3.00343  0.00000 -0.00686
      12     C     3.24858  3.24858  0.00000 -0.49716
      13     H     0.40950  0.40950  0.00000  0.18099
      14     H     0.41007  0.41007  0.00000  0.17986
      15     H     0.41173  0.41173  0.00000  0.17655
      16     H     0.41619  0.41619  0.00000  0.16762
      17     H     0.41197  0.41197  0.00000  0.17607

   Total alpha = 28.00000, Total beta = 28.00000, Total charge =  0.00000


*** PSI4 exiting successfully. Buy a developer a beer!
