    -----------------------------------------------------------------------
          Psi4: An Open-Source Ab Initio Electronic Structure Package
                              Psi4 (no tag) Driver

                          Git: Rev {detached?}  

    J. M. Turney, A. C. Simmonett, R. M. Parrish, E. G. Hohenstein,
    F. A. Evangelista, J. T. Fermann, B. J. Mintz, L. A. Burns, J. J. Wilke,
    M. L. Abrams, N. J. Russ, M. L. Leininger, C. L. Janssen, E. T. Seidl,
    W. D. Allen, H. F. Schaefer, R. A. King, E. F. Valeev, C. D. Sherrill,
    and T. D. Crawford, WIREs Comput. Mol. Sci. 2, 556-565 (2012)
    (doi: 10.1002/wcms.93)

                         Additional Contributions by
    A. E. DePrince, M. Saitow, U. Bozkaya, A. Yu. Sokolov
    -----------------------------------------------------------------------


    Psi4 started on: Thu Sep  1 22:21:08 2016

    Process ID:  16366
    PSI4DATADIR: /export131/home/mjharvey/miniconda3/share
    Memory level set to 256.000 MB

  ==> Input File <==

--------------------------------------------------------------------------
set {
	reference rhf
	basis 6-31G*
}


set_num_threads( 1 )
memory 2 gb

molecule MOL {
0 1

O	 -2.630048	 0.547913	 0.530317
C	 -2.113865	 -0.473663	 0.192126
C	 -0.889235	 -0.467034	 -0.705952
C	 -2.627522	 -1.816298	 0.662086
C	 0.379448	 -0.143569	 0.099626
H	 -1.040919	 0.294385	 -1.463273
H	 -0.777157	 -1.424551	 -1.206579
C	 1.631333	 -0.777471	 -0.511575
H	 0.482768	 0.934507	 0.149241
H	 0.263088	 -0.495696	 1.123449
C	 2.915987	 -0.544314	 0.291766
H	 1.766672	 -0.399098	 -1.523130
H	 1.471257	 -1.849544	 -0.605828
C	 3.373361	 0.914346	 0.347591
H	 3.708709	 -1.142521	 -0.150311
H	 2.780642	 -0.921148	 1.303579
H	 3.506512	 1.320010	 -0.651625
H	 4.322697	 0.999599	 0.867103
H	 2.660624	 1.545032	 0.868198
H	 -3.019004	 -2.374301	 -0.184459
H	 -3.411175	 -1.677453	 1.393792
H	 -1.823050	 -2.407191	 1.090425

	symmetry c1
}
set optking {
	frozen_dihedral = ("
		6 3 2 1,
		3 5 8 12,
		12 8 11 15
	")
}

ee = energy('scf')
oeprop('DIPOLE', 'QUADRUPOLE', 'MULLIKEN_CHARGES')
f=open( 'psi4out.xyz', 'w' )
f.write( "22  " )
f.write( str(ee) + "\n" )
f.write( MOL.save_string_xyz() )
f.close()
--------------------------------------------------------------------------

  Memory set to   2.000 GiB by Python script.

*** tstart() called on cx1-3-6-4.cx1.hpc.ic.ac.uk
*** at Thu Sep  1 22:21:08 2016


         ---------------------------------------------------------
                                   SCF
            by Justin Turney, Rob Parrish, and Andy Simmonett
                              RHF Reference
                        1 Threads,   2000 MiB Core
         ---------------------------------------------------------

  ==> Geometry <==

    Molecular point group: c1
    Full point group: C1

    Geometry (in Angstrom), charge = 0, multiplicity = 1:

       Center              X                  Y                   Z               Mass       
    ------------   -----------------  -----------------  -----------------  -----------------
           O         -2.638317460921     0.886108693585     0.407544582948    15.994914619560
           C         -2.122134460921    -0.135467306415     0.069353582948    12.000000000000
           C         -0.897504460921    -0.128838306415    -0.828724417052    12.000000000000
           C         -2.635791460921    -1.478102306415     0.539313582948    12.000000000000
           C          0.371178539079     0.194626693585    -0.023146417052    12.000000000000
           H         -1.049188460921     0.632580693585    -1.586045417052     1.007825032070
           H         -0.785426460921    -1.086355306415    -1.329351417052     1.007825032070
           C          1.623063539079    -0.439275306415    -0.634347417052    12.000000000000
           H          0.474498539079     1.272702693585     0.026468582948     1.007825032070
           H          0.254818539079    -0.157500306415     1.000676582948     1.007825032070
           C          2.907717539079    -0.206118306415     0.168993582948    12.000000000000
           H          1.758402539079    -0.060902306415    -1.645902417052     1.007825032070
           H          1.462987539079    -1.511348306415    -0.728600417052     1.007825032070
           C          3.365091539079     1.252541693585     0.224818582948    12.000000000000
           H          3.700439539079    -0.804325306415    -0.273083417052     1.007825032070
           H          2.772372539079    -0.582952306415     1.180806582948     1.007825032070
           H          3.498242539079     1.658205693585    -0.774397417052     1.007825032070
           H          4.314427539079     1.337794693585     0.744330582948     1.007825032070
           H          2.652354539079     1.883227693585     0.745425582948     1.007825032070
           H         -3.027273460921    -2.036105306415    -0.307231417052     1.007825032070
           H         -3.419444460921    -1.339257306415     1.271019582948     1.007825032070
           H         -1.831319460921    -2.068995306415     0.967652582948     1.007825032070

  Running in c1 symmetry.

  Rotational constants: A =      0.15385  B =      0.02537  C =      0.02379 [cm^-1]
  Rotational constants: A =   4612.26013  B =    760.44559  C =    713.07797 [MHz]
  Nuclear repulsion =  373.286119595487435

  Charge       = 0
  Multiplicity = 1
  Electrons    = 64
  Nalpha       = 32
  Nbeta        = 32

  ==> Algorithm <==

  SCF Algorithm Type is DF.
  DIIS enabled.
  MOM disabled.
  Fractional occupation disabled.
  Guess Type is CORE.
  Energy threshold   = 1.00e-06
  Density threshold  = 1.00e-06
  Integral threshold = 0.00e+00

  ==> Primary Basis <==

  Basis Set: 6-31G*
    Number of shells: 76
    Number of basis function: 148
    Number of Cartesian functions: 148
    Spherical Harmonics?: false
    Max angular momentum: 2

  ==> Pre-Iterations <==

   -------------------------------------------------------
    Irrep   Nso     Nmo     Nalpha   Nbeta   Ndocc  Nsocc
   -------------------------------------------------------
     A        148     148       0       0       0       0
   -------------------------------------------------------
    Total     148     148      32      32      32       0
   -------------------------------------------------------

 OEINTS: Overlap, kinetic, potential, dipole, and quadrupole integrals
         stored in file 35.

  ==> Integral Setup <==

  ==> DFJK: Density-Fitted J/K Matrices <==

    J tasked:                  Yes
    K tasked:                  Yes
    wK tasked:                  No
    OpenMP threads:              1
    Integrals threads:           1
    Memory (MB):              1430
    Algorithm:                Core
    Integral Cache:           NONE
    Schwarz Cutoff:          1E-12
    Fitting Condition:       1E-12

   => Auxiliary Basis Set <=

  Basis Set: 
    Number of shells: 318
    Number of basis function: 998
    Number of Cartesian functions: 998
    Spherical Harmonics?: false
    Max angular momentum: 3

  Minimum eigenvalue in the overlap matrix is 3.3015294754E-03.
  Using Symmetric Orthogonalization.
  SCF Guess: Core (One-Electron) Hamiltonian.

  ==> Iterations <==

                           Total Energy        Delta E     RMS |[F,P]|

   @DF-RHF iter   1:  -263.08260013665381   -2.63083e+02   6.37237e-02 
   @DF-RHF iter   2:  -175.15172353320634    8.79309e+01   7.01029e-02 DIIS
   @DF-RHF iter   3:  -287.24318886763535   -1.12091e+02   3.50305e-02 DIIS
   @DF-RHF iter   4:  -180.85030919352289    1.06393e+02   7.20152e-02 DIIS
   @DF-RHF iter   5:  -262.54447110200613   -8.16942e+01   5.52982e-02 DIIS
   @DF-RHF iter   6:  -318.29686522302302   -5.57524e+01   3.43376e-02 DIIS
   @DF-RHF iter   7:  -345.48345961382051   -2.71866e+01   1.02330e-02 DIIS
   @DF-RHF iter   8:  -347.48946525977112   -2.00601e+00   8.08645e-03 DIIS
   @DF-RHF iter   9:  -348.03905954378865   -5.49594e-01   2.08244e-03 DIIS
   @DF-RHF iter  10:  -348.08842355056129   -4.93640e-02   6.99045e-04 DIIS
   @DF-RHF iter  11:  -348.09445468152285   -6.03113e-03   1.95250e-04 DIIS
   @DF-RHF iter  12:  -348.09515006594756   -6.95384e-04   6.79590e-05 DIIS
   @DF-RHF iter  13:  -348.09529871542520   -1.48649e-04   2.31268e-05 DIIS
   @DF-RHF iter  14:  -348.09531748782513   -1.87724e-05   8.86207e-06 DIIS
   @DF-RHF iter  15:  -348.09531984382875   -2.35600e-06   3.04428e-06 DIIS
   @DF-RHF iter  16:  -348.09532001322646   -1.69398e-07   7.73586e-07 DIIS

  ==> Post-Iterations <==

    Orbital Energies (a.u.)
    -----------------------

    Doubly Occupied:                                                      

       1A    -20.546508     2A    -11.324231     3A    -11.229469  
       4A    -11.228465     5A    -11.228233     6A    -11.223395  
       7A    -11.221238     8A    -11.212078     9A     -1.392487  
      10A     -1.096429    11A     -1.044429    12A     -0.999571  
      13A     -0.938313    14A     -0.858095    15A     -0.787525  
      16A     -0.733404    17A     -0.660044    18A     -0.647237  
      19A     -0.625551    20A     -0.621521    21A     -0.596124  
      22A     -0.576736    23A     -0.569002    24A     -0.545519  
      25A     -0.535488    26A     -0.513332    27A     -0.499221  
      28A     -0.491591    29A     -0.471140    30A     -0.465392  
      31A     -0.456954    32A     -0.395848  

    Virtual:                                                              

      33A      0.170007    34A      0.218793    35A      0.238122  
      36A      0.262085    37A      0.268017    38A      0.284402  
      39A      0.296747    40A      0.304817    41A      0.314671  
      42A      0.317511    43A      0.327795    44A      0.329776  
      45A      0.341704    46A      0.352973    47A      0.365977  
      48A      0.407077    49A      0.407515    50A      0.426285  
      51A      0.447417    52A      0.453906    53A      0.508092  
      54A      0.518334    55A      0.705585    56A      0.718743  
      57A      0.728082    58A      0.732952    59A      0.748225  
      60A      0.764109    61A      0.787000    62A      0.817611  
      63A      0.831293    64A      0.873316    65A      0.901880  
      66A      0.915799    67A      0.929957    68A      0.951760  
      69A      0.972173    70A      0.982988    71A      1.010124  
      72A      1.041407    73A      1.082182    74A      1.091588  
      75A      1.108195    76A      1.126482    77A      1.130225  
      78A      1.147042    79A      1.152052    80A      1.163777  
      81A      1.184064    82A      1.193845    83A      1.197502  
      84A      1.203121    85A      1.212004    86A      1.228818  
      87A      1.244214    88A      1.252795    89A      1.263465  
      90A      1.285570    91A      1.340627    92A      1.356934  
      93A      1.404663    94A      1.443154    95A      1.469880  
      96A      1.535172    97A      1.666877    98A      1.697452  
      99A      1.732692   100A      1.769417   101A      1.802914  
     102A      1.846161   103A      1.932600   104A      1.959897  
     105A      1.990523   106A      2.055089   107A      2.078110  
     108A      2.110381   109A      2.122002   110A      2.155952  
     111A      2.182560   112A      2.203147   113A      2.240173  
     114A      2.264326   115A      2.276806   116A      2.309491  
     117A      2.329879   118A      2.349962   119A      2.396476  
     120A      2.437259   121A      2.458611   122A      2.516529  
     123A      2.570365   124A      2.616754   125A      2.652941  
     126A      2.675190   127A      2.684035   128A      2.725841  
     129A      2.735673   130A      2.760434   131A      2.814048  
     132A      2.831645   133A      2.933931   134A      2.977963  
     135A      2.999555   136A      3.039800   137A      3.105778  
     138A      3.166661   139A      3.375053   140A      3.379986  
     141A      4.452124   142A      4.523313   143A      4.575481  
     144A      4.675964   145A      4.777808   146A      4.863917  
     147A      4.936950   148A      5.004548  

    Final Occupation by Irrep:
              A 
    DOCC [    32 ]

  Energy converged.

  @DF-RHF Final Energy:  -348.09532001322646

   => Energetics <=

    Nuclear Repulsion Energy =            373.2861195954874347
    One-Electron Energy =               -1211.2932601962493209
    Two-Electron Energy =                 489.9118205875353169
    DFT Exchange-Correlation Energy =       0.0000000000000000
    Empirical Dispersion Energy =           0.0000000000000000
    PCM Polarization Energy =               0.0000000000000000
    EFP Energy =                            0.0000000000000000
    Total Energy =                       -348.0953200132265692

    Alert: EFP and PCM quantities not currently incorporated into SCF psivars.

Properties will be evaluated at   0.000000,   0.000000,   0.000000 Bohr
  ==> Properties <==


Properties computed using the SCF density matrix

  Nuclear Dipole Moment: (a.u.)
     X:    10.0894      Y:    -2.6799      Z:    -0.6620

  Electronic Dipole Moment: (a.u.)
     X:    -9.4250      Y:     1.6979      Z:     0.3326

  Dipole Moment: (a.u.)
     X:     0.6644      Y:    -0.9820      Z:    -0.3294     Total:     1.2305

  Dipole Moment: (Debye)
     X:     1.6886      Y:    -2.4960      Z:    -0.8372     Total:     3.1277


  Saving occupied orbitals to File 180.

*** tstop() called on cx1-3-6-4.cx1.hpc.ic.ac.uk at Thu Sep  1 22:21:25 2016
Module time:
	user time   =      16.35 seconds =       0.27 minutes
	system time =       0.16 seconds =       0.00 minutes
	total time  =         17 seconds =       0.28 minutes
Total time:
	user time   =      16.35 seconds =       0.27 minutes
	system time =       0.16 seconds =       0.00 minutes
	total time  =         17 seconds =       0.28 minutes


Properties will be evaluated at   0.000000,   0.000000,   0.000000 Bohr

Properties computed using the  density matrix

  Nuclear Dipole Moment: (a.u.)
     X:    10.0894      Y:    -2.6799      Z:    -0.6620

  Electronic Dipole Moment: (a.u.)
     X:    -9.4250      Y:     1.6979      Z:     0.3326

  Dipole Moment: (a.u.)
     X:     0.6644      Y:    -0.9820      Z:    -0.3294     Total:     1.2305

  Dipole Moment: (Debye)
     X:     1.6886      Y:    -2.4960      Z:    -0.8372     Total:     3.1277

  Quadrupole Moment: (Debye Ang)
    XX:   -57.2634     YY:   -52.9344     ZZ:   -51.2405
    XY:     6.9719     XZ:     2.0870     YZ:    -1.4088

  Traceless Quadrupole Moment: (Debye Ang)
    XX:    -3.4507     YY:     0.8784     ZZ:     2.5723
    XY:     6.9719     XZ:     2.0870     YZ:    -1.4088

  Mulliken Charges: (a.u.)
   Center  Symbol    Alpha    Beta     Spin     Total
       1     O     4.26234  4.26234  0.00000 -0.52467
       2     C     2.73905  2.73905  0.00000  0.52190
       3     C     3.20088  3.20088  0.00000 -0.40175
       4     C     3.28941  3.28941  0.00000 -0.57881
       5     C     3.16016  3.16016  0.00000 -0.32032
       6     H     0.40024  0.40024  0.00000  0.19953
       7     H     0.41619  0.41619  0.00000  0.16763
       8     C     3.15481  3.15481  0.00000 -0.30962
       9     H     0.40535  0.40535  0.00000  0.18931
      10     H     0.41903  0.41903  0.00000  0.16194
      11     C     3.15338  3.15338  0.00000 -0.30676
      12     H     0.42124  0.42124  0.00000  0.15752
      13     H     0.42222  0.42222  0.00000  0.15557
      14     C     3.24221  3.24221  0.00000 -0.48443
      15     H     0.41969  0.41969  0.00000  0.16063
      16     H     0.42242  0.42242  0.00000  0.15515
      17     H     0.42142  0.42142  0.00000  0.15717
      18     H     0.41790  0.41790  0.00000  0.16419
      19     H     0.41822  0.41822  0.00000  0.16356
      20     H     0.40678  0.40678  0.00000  0.18643
      21     H     0.39696  0.39696  0.00000  0.20608
      22     H     0.41012  0.41012  0.00000  0.17976

   Total alpha = 32.00000, Total beta = 32.00000, Total charge =  0.00000


*** PSI4 exiting successfully. Buy a developer a beer!
