    -----------------------------------------------------------------------
          Psi4: An Open-Source Ab Initio Electronic Structure Package
                              Psi4 (no tag) Driver

                          Git: Rev {detached?}  

    J. M. Turney, A. C. Simmonett, R. M. Parrish, E. G. Hohenstein,
    F. A. Evangelista, J. T. Fermann, B. J. Mintz, L. A. Burns, J. J. Wilke,
    M. L. Abrams, N. J. Russ, M. L. Leininger, C. L. Janssen, E. T. Seidl,
    W. D. Allen, H. F. Schaefer, R. A. King, E. F. Valeev, C. D. Sherrill,
    and T. D. Crawford, WIREs Comput. Mol. Sci. 2, 556-565 (2012)
    (doi: 10.1002/wcms.93)

                         Additional Contributions by
    A. E. DePrince, M. Saitow, U. Bozkaya, A. Yu. Sokolov
    -----------------------------------------------------------------------


    Psi4 started on: Fri Sep  2 14:07:48 2016

    Process ID:   7586
    PSI4DATADIR: /export131/home/mjharvey/miniconda3/share
    Memory level set to 256.000 MB

  ==> Input File <==

--------------------------------------------------------------------------
set {
	reference rhf
	basis 6-31G*
}


set_num_threads( 4 )
memory 2 gb

molecule MOL {
0 1

O	 -2.475387	 -1.064607	 0.421391
C	 -1.939863	 -0.003883	 0.402679
C	 -2.642298	 1.319972	 0.538093
O	 -0.632575	 0.154573	 0.251549
H	 -2.458011	 1.924140	 -0.342797
H	 -3.702719	 1.156978	 0.659651
H	 -2.248668	 1.857517	 1.392995
C	 0.160891	 -1.019931	 0.106212
C	 1.589627	 -0.672828	 0.480843
H	 0.089836	 -1.367806	 -0.916050
H	 -0.238459	 -1.792301	 0.749618
C	 2.246377	 0.346236	 -0.452210
H	 2.163194	 -1.597435	 0.473358
H	 1.604769	 -0.303424	 1.502885
C	 3.691736	 0.652107	 -0.061850
H	 2.219579	 -0.032311	 -1.472055
H	 1.666466	 1.263317	 -0.447249
H	 4.134505	 1.377213	 -0.737283
H	 4.305508	 -0.243868	 -0.089969
H	 3.748266	 1.059562	 0.943567

	symmetry c1
}
set optking {
	frozen_dihedral = ("
		2 4 8 10
	")
}

ee = optimize('scf')
oeprop('DIPOLE', 'QUADRUPOLE', 'MULLIKEN_CHARGES')
f=open( 'psi4out.xyz', 'w' )
f.write( "20  " )
f.write( str(ee) + "\n" )
f.write( MOL.save_string_xyz() )
f.close()
--------------------------------------------------------------------------

  Memory set to   2.000 GiB by Python script.
gradient() will perform analytic gradient computation.

*** tstart() called on cx1-5-7-2.cx1.hpc.ic.ac.uk
*** at Fri Sep  2 14:07:49 2016


         ---------------------------------------------------------
                                   SCF
            by Justin Turney, Rob Parrish, and Andy Simmonett
                              RHF Reference
                        4 Threads,   2000 MiB Core
         ---------------------------------------------------------

  ==> Geometry <==

    Molecular point group: c1
    Full point group: C1

    Geometry (in Angstrom), charge = 0, multiplicity = 1:

       Center              X                  Y                   Z               Mass       
    ------------   -----------------  -----------------  -----------------  -----------------
           O         -2.466243762692    -1.032144025576     0.208967381896    15.994914619560
           C         -1.930719762692     0.028579974424     0.190255381896    12.000000000000
           C         -2.633154762692     1.352434974424     0.325669381896    12.000000000000
           O         -0.623431762692     0.187035974424     0.039125381896    15.994914619560
           H         -2.448867762692     1.956602974424    -0.555220618104     1.007825032070
           H         -3.693575762692     1.189440974424     0.447227381896     1.007825032070
           H         -2.239524762692     1.889979974424     1.180571381896     1.007825032070
           C          0.170034237308    -0.987468025576    -0.106211618104    12.000000000000
           C          1.598770237308    -0.640365025576     0.268419381896    12.000000000000
           H          0.098979237308    -1.335343025576    -1.128473618104     1.007825032070
           H         -0.229315762692    -1.759838025576     0.537194381896     1.007825032070
           C          2.255520237308     0.378698974424    -0.664633618104    12.000000000000
           H          2.172337237308    -1.564972025576     0.260934381896     1.007825032070
           H          1.613912237308    -0.270961025576     1.290461381896     1.007825032070
           C          3.700879237308     0.684569974424    -0.274273618104    12.000000000000
           H          2.228722237308     0.000151974424    -1.684478618104     1.007825032070
           H          1.675609237308     1.295779974424    -0.659672618104     1.007825032070
           H          4.143648237308     1.409675974424    -0.949706618104     1.007825032070
           H          4.314651237308    -0.211405025576    -0.302392618104     1.007825032070
           H          3.757409237308     1.092024974424     0.731143381896     1.007825032070

  Running in c1 symmetry.

  Rotational constants: A =      0.17144  B =      0.02817  C =      0.02520 [cm^-1]
  Rotational constants: A =   5139.55655  B =    844.47693  C =    755.61573 [MHz]
  Nuclear repulsion =  384.845611575225178

  Charge       = 0
  Multiplicity = 1
  Electrons    = 64
  Nalpha       = 32
  Nbeta        = 32

  ==> Algorithm <==

  SCF Algorithm Type is DF.
  DIIS enabled.
  MOM disabled.
  Fractional occupation disabled.
  Guess Type is CORE.
  Energy threshold   = 1.00e-08
  Density threshold  = 1.00e-08
  Integral threshold = 0.00e+00

  ==> Primary Basis <==

  Basis Set: 6-31G*
    Number of shells: 72
    Number of basis function: 144
    Number of Cartesian functions: 144
    Spherical Harmonics?: false
    Max angular momentum: 2

  ==> Pre-Iterations <==

   -------------------------------------------------------
    Irrep   Nso     Nmo     Nalpha   Nbeta   Ndocc  Nsocc
   -------------------------------------------------------
     A        144     144       0       0       0       0
   -------------------------------------------------------
    Total     144     144      32      32      32       0
   -------------------------------------------------------

 OEINTS: Overlap, kinetic, potential, dipole, and quadrupole integrals
         stored in file 35.

  ==> Integral Setup <==

  ==> DFJK: Density-Fitted J/K Matrices <==

    J tasked:                  Yes
    K tasked:                  Yes
    wK tasked:                  No
    OpenMP threads:              4
    Integrals threads:           4
    Memory (MB):              1430
    Algorithm:                Core
    Integral Cache:           NONE
    Schwarz Cutoff:          1E-12
    Fitting Condition:       1E-12

   => Auxiliary Basis Set <=

  Basis Set: 
    Number of shells: 300
    Number of basis function: 948
    Number of Cartesian functions: 948
    Spherical Harmonics?: false
    Max angular momentum: 3

  Minimum eigenvalue in the overlap matrix is 3.7358547642E-03.
  Using Symmetric Orthogonalization.
  SCF Guess: Core (One-Electron) Hamiltonian.

  ==> Iterations <==

                           Total Energy        Delta E     RMS |[F,P]|

   @DF-RHF iter   1:  -261.46208011320920   -2.61462e+02   7.25604e-02 
   @DF-RHF iter   2:  -147.81093102268954    1.13651e+02   8.26501e-02 DIIS
   @DF-RHF iter   3:  -283.87517941929303   -1.36064e+02   5.99262e-02 DIIS
   @DF-RHF iter   4:  -279.21281709673707    4.66236e+00   6.85754e-02 DIIS
   @DF-RHF iter   5:  -376.23488643256513   -9.70221e+01   2.13746e-02 DIIS
   @DF-RHF iter   6:  -379.45904362688788   -3.22416e+00   1.61669e-02 DIIS
   @DF-RHF iter   7:  -383.86221575345047   -4.40317e+00   2.40539e-03 DIIS
   @DF-RHF iter   8:  -383.92878220225742   -6.65664e-02   1.12920e-03 DIIS
   @DF-RHF iter   9:  -383.94135473558498   -1.25725e-02   4.74827e-04 DIIS
   @DF-RHF iter  10:  -383.94452045413396   -3.16572e-03   1.15915e-04 DIIS
   @DF-RHF iter  11:  -383.94481144565526   -2.90992e-04   4.53983e-05 DIIS
   @DF-RHF iter  12:  -383.94485626107513   -4.48154e-05   1.72489e-05 DIIS
   @DF-RHF iter  13:  -383.94486295813823   -6.69706e-06   5.95161e-06 DIIS
   @DF-RHF iter  14:  -383.94486383013538   -8.71997e-07   2.29001e-06 DIIS
   @DF-RHF iter  15:  -383.94486397071222   -1.40577e-07   8.06588e-07 DIIS
   @DF-RHF iter  16:  -383.94486398642351   -1.57113e-08   2.45522e-07 DIIS
   @DF-RHF iter  17:  -383.94486398783914   -1.41563e-09   7.13664e-08 DIIS
   @DF-RHF iter  18:  -383.94486398795203   -1.12891e-10   1.94845e-08 DIIS
   @DF-RHF iter  19:  -383.94486398796033   -8.29914e-12   6.20353e-09 DIIS

  ==> Post-Iterations <==

    Orbital Energies (a.u.)
    -----------------------

    Doubly Occupied:                                                      

       1A    -20.601821     2A    -20.543979     3A    -11.375028  
       4A    -11.281137     5A    -11.233671     6A    -11.224959  
       7A    -11.220067     8A    -11.213086     9A     -1.468204  
      10A     -1.362404    11A     -1.085671    12A     -1.028302  
      13A     -0.981087    14A     -0.880077    15A     -0.812977  
      16A     -0.772594    17A     -0.692296    18A     -0.684503  
      19A     -0.664747    20A     -0.630685    21A     -0.599899  
      22A     -0.592127    23A     -0.571348    24A     -0.554941  
      25A     -0.544285    26A     -0.528393    27A     -0.514855  
      28A     -0.485633    29A     -0.474841    30A     -0.466135  
      31A     -0.450389    32A     -0.438115  

    Virtual:                                                              

      33A      0.198406    34A      0.233784    35A      0.253211  
      36A      0.261975    37A      0.280550    38A      0.295470  
      39A      0.302953    40A      0.317023    41A      0.327246  
      42A      0.331735    43A      0.334674    44A      0.343099  
      45A      0.351647    46A      0.369364    47A      0.405650  
      48A      0.424760    49A      0.427131    50A      0.445517  
      51A      0.506588    52A      0.552669    53A      0.700183  
      54A      0.709356    55A      0.734929    56A      0.741639  
      57A      0.747525    58A      0.769736    59A      0.793268  
      60A      0.808161    61A      0.819254    62A      0.841574  
      63A      0.908302    64A      0.915018    65A      0.947065  
      66A      0.963753    67A      0.983323    68A      1.005000  
      69A      1.041668    70A      1.094716    71A      1.104680  
      72A      1.125683    73A      1.131528    74A      1.137747  
      75A      1.161507    76A      1.178485    77A      1.188450  
      78A      1.189813    79A      1.197931    80A      1.203613  
      81A      1.215054    82A      1.225267    83A      1.230965  
      84A      1.258797    85A      1.275069    86A      1.303942  
      87A      1.368668    88A      1.410721    89A      1.450068  
      90A      1.490749    91A      1.576429    92A      1.626639  
      93A      1.659996    94A      1.684605    95A      1.728803  
      96A      1.774741    97A      1.801323    98A      1.856465  
      99A      1.903591   100A      1.942902   101A      2.010323  
     102A      2.030873   103A      2.069956   104A      2.101959  
     105A      2.123275   106A      2.159091   107A      2.181337  
     108A      2.204506   109A      2.240828   110A      2.273430  
     111A      2.284958   112A      2.311792   113A      2.357101  
     114A      2.381787   115A      2.443993   116A      2.451371  
     117A      2.523843   118A      2.527493   119A      2.582218  
     120A      2.597778   121A      2.630573   122A      2.669331  
     123A      2.705017   124A      2.737817   125A      2.752640  
     126A      2.771661   127A      2.833455   128A      2.912620  
     129A      2.987153   130A      3.049606   131A      3.065940  
     132A      3.104343   133A      3.178542   134A      3.353104  
     135A      3.426807   136A      3.565199   137A      4.422322  
     138A      4.531149   139A      4.569516   140A      4.613532  
     141A      4.718010   142A      4.819198   143A      4.893580  
     144A      4.960109  

    Final Occupation by Irrep:
              A 
    DOCC [    32 ]

  Energy converged.

  @DF-RHF Final Energy:  -383.94486398796033

   => Energetics <=

    Nuclear Repulsion Energy =            384.8456115752251776
    One-Electron Energy =               -1285.6244416406680102
    Two-Electron Energy =                 516.8339660774825006
    DFT Exchange-Correlation Energy =       0.0000000000000000
    Empirical Dispersion Energy =           0.0000000000000000
    PCM Polarization Energy =               0.0000000000000000
    EFP Energy =                            0.0000000000000000
    Total Energy =                       -383.9448639879603888

    Alert: EFP and PCM quantities not currently incorporated into SCF psivars.

Properties will be evaluated at   0.000000,   0.000000,   0.000000 Bohr
  ==> Properties <==


Properties computed using the SCF density matrix

  Nuclear Dipole Moment: (a.u.)
     X:    10.6667      Y:     3.4563      Z:    -0.7792

  Electronic Dipole Moment: (a.u.)
     X:   -10.0616      Y:    -2.8595      Z:     0.7511

  Dipole Moment: (a.u.)
     X:     0.6051      Y:     0.5968      Z:    -0.0281     Total:     0.8503

  Dipole Moment: (Debye)
     X:     1.5380      Y:     1.5168      Z:    -0.0715     Total:     2.1613


  Saving occupied orbitals to File 180.

*** tstop() called on cx1-5-7-2.cx1.hpc.ic.ac.uk at Fri Sep  2 14:07:56 2016
Module time:
	user time   =      20.94 seconds =       0.35 minutes
	system time =       0.30 seconds =       0.01 minutes
	total time  =          7 seconds =       0.12 minutes
Total time:
	user time   =      20.94 seconds =       0.35 minutes
	system time =       0.30 seconds =       0.01 minutes
	total time  =          7 seconds =       0.12 minutes

*** tstart() called on cx1-5-7-2.cx1.hpc.ic.ac.uk
*** at Fri Sep  2 14:07:56 2016


         ------------------------------------------------------------
                                   SCF GRAD                          
                          Rob Parrish, Justin Turney,                
                       Andy Simmonett, and Alex Sokolov              
         ------------------------------------------------------------

  ==> Geometry <==

    Molecular point group: c1
    Full point group: C1

    Geometry (in Angstrom), charge = 0, multiplicity = 1:

       Center              X                  Y                   Z               Mass       
    ------------   -----------------  -----------------  -----------------  -----------------
           O         -2.466243762692    -1.032144025576     0.208967381896    15.994914619560
           C         -1.930719762692     0.028579974424     0.190255381896    12.000000000000
           C         -2.633154762692     1.352434974424     0.325669381896    12.000000000000
           O         -0.623431762692     0.187035974424     0.039125381896    15.994914619560
           H         -2.448867762692     1.956602974424    -0.555220618104     1.007825032070
           H         -3.693575762692     1.189440974424     0.447227381896     1.007825032070
           H         -2.239524762692     1.889979974424     1.180571381896     1.007825032070
           C          0.170034237308    -0.987468025576    -0.106211618104    12.000000000000
           C          1.598770237308    -0.640365025576     0.268419381896    12.000000000000
           H          0.098979237308    -1.335343025576    -1.128473618104     1.007825032070
           H         -0.229315762692    -1.759838025576     0.537194381896     1.007825032070
           C          2.255520237308     0.378698974424    -0.664633618104    12.000000000000
           H          2.172337237308    -1.564972025576     0.260934381896     1.007825032070
           H          1.613912237308    -0.270961025576     1.290461381896     1.007825032070
           C          3.700879237308     0.684569974424    -0.274273618104    12.000000000000
           H          2.228722237308     0.000151974424    -1.684478618104     1.007825032070
           H          1.675609237308     1.295779974424    -0.659672618104     1.007825032070
           H          4.143648237308     1.409675974424    -0.949706618104     1.007825032070
           H          4.314651237308    -0.211405025576    -0.302392618104     1.007825032070
           H          3.757409237308     1.092024974424     0.731143381896     1.007825032070

  Nuclear repulsion =  384.845611575225178

  ==> Basis Set <==

  Basis Set: 6-31G*
    Number of shells: 72
    Number of basis function: 144
    Number of Cartesian functions: 144
    Spherical Harmonics?: false
    Max angular momentum: 2

  ==> DFJKGrad: Density-Fitted SCF Gradients <==

    Gradient:                    1
    J tasked:                  Yes
    K tasked:                  Yes
    wK tasked:                  No
    OpenMP threads:              4
    Integrals threads:           4
    Memory (MB):              1430
    Schwarz Cutoff:          0E+00
    Fitting Condition:       1E-12

   => Auxiliary Basis Set <=

  Basis Set: 
    Number of shells: 300
    Number of basis function: 948
    Number of Cartesian functions: 948
    Spherical Harmonics?: false
    Max angular momentum: 3


  -Total Gradient:
     Atom            X                  Y                   Z
    ------   -----------------  -----------------  -----------------
       1        0.001590095314    -0.000506005355     0.000042030350
       2        0.000384717851    -0.000159282029     0.001802780309
       3       -0.000041142387     0.000024275439    -0.000585529165
       4        0.000721115168     0.000617227656     0.000101127095
       5       -0.000064257368     0.000166929815     0.000025860563
       6       -0.000005661164     0.000021022979    -0.000004573262
       7        0.000006798968    -0.000098030360    -0.000016469103
       8       -0.000884908545     0.001354635669    -0.005086517311
       9       -0.000788895177     0.000323019184     0.001747058925
      10        0.000597415063    -0.000574441325     0.001195029042
      11       -0.001345177091    -0.001110921054     0.000897045525
      12       -0.000273357305    -0.000119369229    -0.000361859711
      13       -0.000262810979     0.000018964187     0.000050559585
      14        0.000346720514     0.000102060240     0.000067377454
      15       -0.000004105952    -0.000039769272     0.000129450476
      16        0.000019647402     0.000015094019    -0.000035078503
      17        0.000096778060    -0.000030527503     0.000079776208
      18       -0.000048014999    -0.000019742199    -0.000012494170
      19       -0.000035048893     0.000022877317    -0.000029910855
      20       -0.000009908479    -0.000008018177    -0.000005663456


*** tstop() called on cx1-5-7-2.cx1.hpc.ic.ac.uk at Fri Sep  2 14:08:03 2016
Module time:
	user time   =      24.90 seconds =       0.42 minutes
	system time =       0.26 seconds =       0.00 minutes
	total time  =          7 seconds =       0.12 minutes
Total time:
	user time   =      45.86 seconds =       0.76 minutes
	system time =       0.56 seconds =       0.01 minutes
	total time  =         14 seconds =       0.23 minutes
CURRENT ENERGY: -383.9448639880

			-----------------------------------------
			 OPTKING 2.0: for geometry optimizations 
			  - R.A. King,  Bethel University        
			-----------------------------------------

	Internal coordinates to be generated automatically.
	Detected frag with atoms:  1 2 3 4 5 6 7 8 9 10 11 12 13 14 15 16 17 18 19 20
	---Fragment 1 Bond Connectivity---
	 1 : 2
	 2 : 1 3 4
	 3 : 2 5 6 7
	 4 : 2 8
	 5 : 3
	 6 : 3
	 7 : 3
	 8 : 4 9 10 11
	 9 : 8 12 13 14
	 10 : 8
	 11 : 8
	 12 : 9 15 16 17
	 13 : 9
	 14 : 9
	 15 : 12 18 19 20
	 16 : 12
	 17 : 12
	 18 : 15
	 19 : 15
	 20 : 15

	Assuming in current code that numbering for constraints corresponds to unified fragment.
	Frozen dihedral atom list: 
	     2     4     8    10
	---Fragment 1 Geometry and Gradient---
	 O          -4.6605252884       -1.9504695380        0.3948911225
	 C          -3.6485315908        0.0540083245        0.3595305671
	 C          -4.9759413670        2.5557317142        0.6154259416
	 O          -1.1781152940        0.3534467687        0.0739362566
	 H          -4.6276894071        3.6974437725       -1.0492149115
	 H          -6.9798466426        2.2477176929        0.8451372709
	 H          -4.2320884693        3.5715445483        2.2309565921
	 C           0.3213181417       -1.8660441333       -0.2007108703
	 C           3.0212378979       -1.2101145234        0.5072391205
	 H           0.1870436514       -2.5234326118       -2.1325060864
	 H          -0.4333439894       -3.3256119066        1.0151502619
	 C           4.2623155357        0.7156373485       -1.2559755169
	 H           4.1051224468       -2.9573685340        0.4930945204
	 H           3.0498521310       -0.5120421310        2.4386185968
	 C           6.9936482094        1.2936497705       -0.5183020237
	 H           4.2116746548        0.0002871900       -3.1832032649
	 H           3.1664425642        2.4486692801       -1.2466005856
	 H           7.8303603595        2.6639015278       -1.7946854148
	 H           8.1535091974       -0.3994976015       -0.5714392328
	 H           7.1004744277        2.0636281319        1.3816607557
	             0.0015900953       -0.0005060054        0.0000420304
	             0.0003847179       -0.0001592820        0.0018027803
	            -0.0000411424        0.0000242754       -0.0005855292
	             0.0007211152        0.0006172277        0.0001011271
	            -0.0000642574        0.0001669298        0.0000258606
	            -0.0000056612        0.0000210230       -0.0000045733
	             0.0000067990       -0.0000980304       -0.0000164691
	            -0.0008849085        0.0013546357       -0.0050865173
	            -0.0007888952        0.0003230192        0.0017470589
	             0.0005974151       -0.0005744413        0.0011950290
	            -0.0013451771       -0.0011109211        0.0008970455
	            -0.0002733573       -0.0001193692       -0.0003618597
	            -0.0002628110        0.0000189642        0.0000505596
	             0.0003467205        0.0001020602        0.0000673775
	            -0.0000041060       -0.0000397693        0.0001294505
	             0.0000196474        0.0000150940       -0.0000350785
	             0.0000967781       -0.0000305275        0.0000797762
	            -0.0000480150       -0.0000197422       -0.0000124942
	            -0.0000350489        0.0000228773       -0.0000299109
	            -0.0000099085       -0.0000080182       -0.0000056635

	Previous optimization step data not found.  Starting new optimization.

	---Fragment 1 Intrafragment Coordinates---
	 - Coordinate -           - BOHR/RAD -       - ANG/DEG -
	 R(1,2)           =         2.245732	       1.188390
	 R(2,3)           =         2.843610	       1.504774
	 R(2,4)           =         2.504832	       1.325500
	 R(3,5)           =         2.048369	       1.083950
	 R(3,6)           =         2.040411	       1.079739
	 R(3,7)           =         2.048202	       1.083862
	 R(4,8)           =         2.692559	       1.424841
	 R(8,9)           =         2.867229	       1.517272
	 R(8,10)          =         2.044999	       1.082167
	 R(8,11)          =         2.044058	       1.081669
	 R(9,12)          =         2.890972	       1.529837
	 R(9,13)          =         2.056186	       1.088087
	 R(9,14)          =         2.053862	       1.086857
	 R(12,15)         =         2.887635	       1.528071
	 R(12,16)         =         2.056331	       1.088164
	 R(12,17)         =         2.050469	       1.085062
	 R(15,18)         =         2.051056	       1.085372
	 R(15,19)         =         2.053010	       1.086406
	 R(15,20)         =         2.052836	       1.086314
	 B(1,2,3)         =         2.181550	     124.993632
	 B(1,2,4)         =         2.156679	     123.568626
	 B(2,3,5)         =         1.915447	     109.747033
	 B(2,3,6)         =         1.913226	     109.619760
	 B(2,3,7)         =         1.915347	     109.741298
	 B(2,4,8)         =         2.051404	     117.536792
	 B(3,2,4)         =         1.944944	     111.437093
	 B(4,8,9)         =         1.886647	     108.096916
	 B(4,8,10)        =         1.901569	     108.951855
	 B(4,8,11)        =         1.898982	     108.803639
	 B(5,3,6)         =         1.920483	     110.035544
	 B(5,3,7)         =         1.878444	     107.626929
	 B(6,3,7)         =         1.920633	     110.044184
	 B(8,9,12)        =         1.988913	     113.956330
	 B(8,9,13)        =         1.875781	     107.474360
	 B(8,9,14)        =         1.899757	     108.848045
	 B(9,8,10)        =         1.948311	     111.629995
	 B(9,8,11)        =         1.943503	     111.354530
	 B(9,12,15)       =         1.964476	     112.556160
	 B(9,12,16)       =         1.906369	     109.226894
	 B(9,12,17)       =         1.907923	     109.315938
	 B(10,8,11)       =         1.884010	     107.945805
	 B(12,9,13)       =         1.912988	     109.606160
	 B(12,9,14)       =         1.918932	     109.946724
	 B(12,15,18)      =         1.939722	     111.137888
	 B(12,15,19)      =         1.941941	     111.265045
	 B(12,15,20)      =         1.939853	     111.145411
	 B(13,9,14)       =         1.862873	     106.734775
	 B(15,12,16)      =         1.909589	     109.411378
	 B(15,12,17)      =         1.912586	     109.583077
	 B(16,12,17)      =         1.859954	     106.567494
	 B(18,15,19)      =         1.880096	     107.721580
	 B(18,15,20)      =         1.879846	     107.707256
	 B(19,15,20)      =         1.879569	     107.691392
	 D(1,2,3,5)       =        -2.105853	    -120.656474
	 D(1,2,3,6)       =         0.005265	       0.301646
	 D(1,2,3,7)       =         2.116505	     121.266825
	 D(1,2,4,8)       =        -0.001188	      -0.068072
	 D(2,4,8,9)       =        -2.766654	    -158.517580
	*D(2,4,8,10)      =         1.396263	      79.999994
	 D(2,4,8,11)      =        -0.653731	     -37.456024
	 D(3,2,4,8)       =        -3.137886	    -179.787601
	 D(4,2,3,5)       =         1.030761	      59.058258
	 D(4,2,3,6)       =        -3.141307	    -179.983621
	 D(4,2,3,7)       =        -1.030066	     -59.018442
	 D(4,8,9,12)      =        -1.125766	     -64.501642
	 D(4,8,9,13)      =         3.034117	     173.842076
	 D(4,8,9,14)      =         1.022767	      58.600206
	 D(8,9,12,15)     =        -3.122374	    -178.898874
	 D(8,9,12,16)     =        -0.997688	     -57.163297
	 D(8,9,12,17)     =         1.031210	      59.083997
	 D(9,12,15,18)    =        -3.140632	    -179.944960
	 D(9,12,15,19)    =         1.047393	      60.011217
	 D(9,12,15,20)    =        -1.047188	     -59.999454
	 D(10,8,9,12)     =         0.965331	      55.309388
	 D(10,8,9,13)     =        -1.157972	     -66.346894
	 D(10,8,9,14)     =         3.113863	     178.411236
	 D(11,8,9,12)     =         3.072391	     176.035044
	 D(11,8,9,13)     =         0.949088	      54.378762
	 D(11,8,9,14)     =        -1.062262	     -60.863108
	 D(13,9,12,15)    =        -1.019789	     -58.429627
	 D(13,9,12,16)    =         1.104897	      63.305950
	 D(13,9,12,17)    =         3.133795	     179.553244
	 D(14,9,12,15)    =         1.022755	      58.599524
	 D(14,9,12,16)    =        -3.135744	    -179.664899
	 D(14,9,12,17)    =        -1.106846	     -63.417605
	 D(16,12,15,18)   =         1.019695	      58.424248
	 D(16,12,15,19)   =        -1.075464	     -61.619575
	 D(16,12,15,20)   =         3.113140	     178.369755
	 D(17,12,15,18)   =        -1.013672	     -58.079141
	 D(17,12,15,19)   =        -3.108832	    -178.122964
	 D(17,12,15,20)   =         1.079772	      61.866365

	Current energy   :      -383.9448639880

	Generating empirical Hessian (Schlegel '84) for each fragment.
	Taking RFO optimization step.
	Going to follow RFO solution 1.
	Using RFO vector 1.
	Norm of target step-size    0.12529
	Projected energy change by RFO approximation:        -0.0006196515

	Back-transformation to cartesian coordinates...
	Successfully converged to displaced geometry.

	Back-transformation to cartesian coordinates to adjust frozen coordinates...
	Successfully converged to displaced geometry.

	--- Internal Coordinate Step in ANG or DEG, aJ/ANG or AJ/DEG ---
	 ---------------------------------------------------------------------------
	   Coordinate                Previous        Force       Change         New 
	   ----------                --------       ------       ------       ------
	    1 R(1,2)          =      1.188390     0.002177     0.000126     1.188516
	    2 R(2,3)          =      1.504774    -0.000798    -0.000161     1.504613
	    3 R(2,4)          =      1.325500     0.013469     0.001427     1.326927
	    4 R(3,5)          =      1.083950    -0.000503    -0.000091     1.083859
	    5 R(3,6)          =      1.079739    -0.000015    -0.000003     1.079736
	    6 R(3,7)          =      1.083862     0.000487     0.000088     1.083950
	    7 R(4,8)          =      1.424841     0.010294     0.001582     1.426423
	    8 R(8,9)          =      1.517272     0.003627     0.000759     1.518032
	    9 R(8,10)         =      1.082167     0.008102     0.001454     1.083622
	   10 R(8,11)         =      1.081669    -0.015023    -0.002692     1.078976
	   11 R(9,12)         =      1.529837     0.000698     0.000152     1.529989
	   12 R(9,13)         =      1.088087     0.001277     0.000234     1.088321
	   13 R(9,14)         =      1.086857    -0.000848    -0.000155     1.086703
	   14 R(12,15)        =      1.528071     0.000659     0.000143     1.528214
	   15 R(12,16)        =      1.088164    -0.000224    -0.000041     1.088123
	   16 R(12,17)        =      1.085062     0.000636     0.000115     1.085177
	   17 R(15,18)        =      1.085372     0.000206     0.000037     1.085410
	   18 R(15,19)        =      1.086406     0.000312     0.000057     1.086463
	   19 R(15,20)        =      1.086314     0.000072     0.000013     1.086327
	   20 B(1,2,3)        =    124.993632    -0.000092    -0.280869   124.712763
	   21 B(1,2,4)        =    123.568626     0.000186     0.555339   124.123965
	   22 B(2,3,5)        =    109.747033    -0.000021    -0.111589   109.635445
	   23 B(2,3,6)        =    109.619760    -0.000001    -0.000879   109.618881
	   24 B(2,3,7)        =    109.741298     0.000013     0.070801   109.812100
	   25 B(2,4,8)        =    117.536792     0.000411     1.236333   118.773125
	   26 B(3,2,4)        =    111.437093    -0.000094    -0.285320   111.151773
	   27 B(4,8,9)        =    108.096916     0.000086     0.135439   108.232354
	   28 B(4,8,10)       =    108.951855    -0.000087    -1.005675   107.946180
	   29 B(4,8,11)       =    108.803639     0.000039     0.916143   109.719782
	   30 B(5,3,6)        =    110.035544     0.000007     0.010324   110.045868
	   31 B(5,3,7)        =    107.626929     0.000003     0.012909   107.639839
	   32 B(6,3,7)        =    110.044184    -0.000001     0.018331   110.062515
	   33 B(8,9,12)       =    113.956330     0.000039     0.136726   114.093056
	   34 B(8,9,13)       =    107.474360     0.000007     0.165816   107.640176
	   35 B(8,9,14)       =    108.848045    -0.000037    -0.287830   108.560215
	   36 B(9,8,10)       =    111.629995    -0.000084    -1.077759   110.552236
	   37 B(9,8,11)       =    111.354530    -0.000014     0.325354   111.679884
	   38 B(9,12,15)      =    112.556160     0.000013     0.054225   112.610385
	   39 B(9,12,16)      =    109.226894    -0.000007    -0.054115   109.172779
	   40 B(9,12,17)      =    109.315938    -0.000004     0.009334   109.325273
	   41 B(10,8,11)      =    107.945805     0.000060     0.692289   108.638094
	   42 B(12,9,13)      =    109.606160    -0.000020     0.010391   109.616551
	   43 B(12,9,14)      =    109.946724     0.000001    -0.047047   109.899676
	   44 B(12,15,18)     =    111.137888     0.000005     0.026789   111.164677
	   45 B(12,15,19)     =    111.265045     0.000002     0.008907   111.273952
	   46 B(12,15,20)     =    111.145411    -0.000001    -0.007881   111.137531
	   47 B(13,9,14)      =    106.734775     0.000008     0.017931   106.752706
	   48 B(15,12,16)     =    109.411378    -0.000003    -0.017020   109.394359
	   49 B(15,12,17)     =    109.583077    -0.000001     0.036864   109.619941
	   50 B(16,12,17)     =    106.567494     0.000000    -0.034545   106.532949
	   51 B(18,15,19)     =    107.721580    -0.000002    -0.000963   107.720617
	   52 B(18,15,20)     =    107.707256    -0.000002    -0.013009   107.694247
	   53 B(19,15,20)     =    107.691392    -0.000002    -0.015564   107.675828
	   54 D(1,2,3,5)      =   -120.656474    -0.000001    -0.503246  -121.159721
	   55 D(1,2,3,6)      =      0.301646    -0.000002    -0.561352    -0.259705
	   56 D(1,2,3,7)      =    121.266825    -0.000001    -0.494506   120.772319
	   57 D(1,2,4,8)      =     -0.068072    -0.000012    -2.256062    -2.324134
	   58 D(2,4,8,9)      =   -158.517580    -0.000023    -1.798821  -160.316400
	   59 *D(2,4,8,10)    =     79.999994     0.000000    -0.000000    79.999994
	   60 D(2,4,8,11)     =    -37.456024    -0.000010    -0.770254   -38.226278
	   61 D(3,2,4,8)      =   -179.787601    -0.000015    -3.721014  -183.508615
	   62 D(4,2,3,5)      =     59.058258     0.000002     0.974873    60.033132
	   63 D(4,2,3,6)      =   -179.983621     0.000001     0.916768  -179.066853
	   64 D(4,2,3,7)      =    -59.018442     0.000003     0.983613   -58.034829
	   65 D(4,8,9,12)     =    -64.501642     0.000016     2.299528   -62.202114
	   66 D(4,8,9,13)     =    173.842076     0.000015     2.078264   175.920340
	   67 D(4,8,9,14)     =     58.600206     0.000017     2.117047    60.717253
	   68 D(8,9,12,15)    =   -178.898874    -0.000003    -0.701240  -179.600114
	   69 D(8,9,12,16)    =    -57.163297    -0.000003    -0.724852   -57.888149
	   70 D(8,9,12,17)    =     59.083997    -0.000004    -0.791460    58.292537
	   71 D(9,12,15,18)   =   -179.944960    -0.000000    -0.192791  -180.137751
	   72 D(9,12,15,19)   =     60.011217    -0.000001    -0.215604    59.795613
	   73 D(9,12,15,20)   =    -59.999454    -0.000000    -0.196581   -60.196035
	   74 D(10,8,9,12)    =     55.309388    -0.000007     0.520535    55.829923
	   75 D(10,8,9,13)    =    -66.346894    -0.000008     0.299272   -66.047622
	   76 D(10,8,9,14)    =    178.411236    -0.000007     0.338054   178.749290
	   77 D(11,8,9,12)    =    176.035044    -0.000005     0.882121   176.917165
	   78 D(11,8,9,13)    =     54.378762    -0.000006     0.660858    55.039620
	   79 D(11,8,9,14)    =    -60.863108    -0.000005     0.699640   -60.163468
	   80 D(13,9,12,15)   =    -58.429627     0.000002    -0.387441   -58.817068
	   81 D(13,9,12,16)   =     63.305950     0.000002    -0.411053    62.894897
	   82 D(13,9,12,17)   =    179.553244     0.000001    -0.477661   179.075583
	   83 D(14,9,12,15)   =     58.599524     0.000002    -0.387076    58.212448
	   84 D(14,9,12,16)   =   -179.664899     0.000002    -0.410688  -180.075587
	   85 D(14,9,12,17)   =    -63.417605     0.000000    -0.477296   -63.894901
	   86 D(16,12,15,18)  =     58.424248     0.000000    -0.148191    58.276057
	   87 D(16,12,15,19)  =    -61.619575    -0.000000    -0.171005   -61.790579
	   88 D(16,12,15,20)  =    178.369755     0.000000    -0.151982   178.217773
	   89 D(17,12,15,18)  =    -58.079141     0.000000    -0.117842   -58.196984
	   90 D(17,12,15,19)  =   -178.122964     0.000000    -0.140656  -178.263620
	   91 D(17,12,15,20)  =     61.866365     0.000000    -0.121633    61.744732
	 ---------------------------------------------------------------------------

  ==> Convergence Check <==

  Measures of convergence in internal coordinates in au.
  Criteria marked as inactive (o), active & met (*), and active & unmet ( ).
  --------------------------------------------------------------------------------------------- ~
   Step     Total Energy     Delta E     MAX Force     RMS Force      MAX Disp      RMS Disp    ~
  --------------------------------------------------------------------------------------------- ~
    Convergence Criteria    1.00e-06 *    3.00e-04 *             o    1.20e-03 *             o  ~
  --------------------------------------------------------------------------------------------- ~
      1    -383.94486399   -3.84e+02      5.40e-03      8.09e-04 o    6.49e-02      1.31e-02 o  ~
  ---------------------------------------------------------------------------------------------

	Writing optimization data to binary file.
	Structure for next step:
	Cartesian Geometry (in Angstrom)
	    O    -2.5112373749  -1.0148263900   0.1401484406
	    C    -1.9405271473   0.0276705726   0.1479747724
	    C    -2.6035923991   1.3661383355   0.3288327400
	    O    -0.6259205915   0.1575855012   0.0228056913
	    H    -2.4001055046   1.9926685712  -0.5318669294
	    H    -3.6685241235   1.2305021261   0.4443904283
	    H    -2.1952827620   1.8635453337   1.2010809938
	    C     0.1734823020  -1.0191797363  -0.0814116884
	    C     1.6033524361  -0.6551570846   0.2754911785
	    H     0.1149412922  -1.3731172329  -1.1039266496
	    H    -0.2178451039  -1.7841229003   0.5712099007
	    C     2.2389381169   0.3727443788  -0.6627599903
	    H     2.1897213839  -1.5719366881   0.2641385958
	    H     1.6212733633  -0.2845000909   1.2968701157
	    C     3.6798387810   0.7069430762  -0.2786327564
	    H     2.2160263592  -0.0105117259  -1.6808958641
	    H     1.6416908815   1.2787791963  -0.6603452281
	    H     4.1081611639   1.4353018284  -0.9599165514
	    H     4.3094860890  -0.1781511704  -0.3021716450
	    H     3.7317624595   1.1221048677   0.7238900192
			--------------------------
			 OPTKING Finished Execution 
			--------------------------

    Structure for next step:
    Molecular point group: c1
    Full point group: C1

    Geometry (in Angstrom), charge = 0, multiplicity = 1:

    O           -2.504175415228    -1.011622550385     0.152061774815
    C           -1.933465231302     0.030874332603     0.159888106015
    C           -2.596530432415     1.369341993286     0.340746059800
    O           -0.618858775804     0.160789251346     0.034719034433
    H           -2.393043553433     1.995872181125    -0.519953543874
    H           -3.661462075500     1.233705794255     0.456303739293
    H           -2.188220826552     1.866748953562     1.212994246955
    C            0.180544056594    -1.015975896349    -0.069498337286
    C            1.610414081547    -0.651953272384     0.287404502371
    H            0.122003051328    -1.369913365924    -1.092013220383
    H           -0.210783319398    -1.780919001968     0.583123201946
    C            2.245999713744     0.375948112431    -0.650846594809
    H            2.196782984522    -1.568732805933     0.276051920538
    H            1.628335007321    -0.281296307015     1.308783361552
    C            3.686900267882     0.710146784341    -0.266719390220
    H            2.223087957812    -0.007307962953    -1.668982390868
    H            1.648752523960     1.281982860744    -0.648431832760
    H            4.115222618058     1.438505480907    -0.948003133193
    H            4.316547527816    -0.174947394615    -0.290258276969
    H            3.738823942339     1.125308544142     0.735803308873

gradient() will perform analytic gradient computation.

*** tstart() called on cx1-5-7-2.cx1.hpc.ic.ac.uk
*** at Fri Sep  2 14:08:04 2016


         ---------------------------------------------------------
                                   SCF
            by Justin Turney, Rob Parrish, and Andy Simmonett
                              RHF Reference
                        4 Threads,   2000 MiB Core
         ---------------------------------------------------------

  ==> Geometry <==

    Molecular point group: c1
    Full point group: C1

    Geometry (in Angstrom), charge = 0, multiplicity = 1:

       Center              X                  Y                   Z               Mass       
    ------------   -----------------  -----------------  -----------------  -----------------
           O         -2.504175415228    -1.011622550385     0.152061774815    15.994914619560
           C         -1.933465231302     0.030874332603     0.159888106015    12.000000000000
           C         -2.596530432415     1.369341993286     0.340746059800    12.000000000000
           O         -0.618858775804     0.160789251346     0.034719034433    15.994914619560
           H         -2.393043553433     1.995872181125    -0.519953543874     1.007825032070
           H         -3.661462075500     1.233705794255     0.456303739293     1.007825032070
           H         -2.188220826552     1.866748953562     1.212994246955     1.007825032070
           C          0.180544056594    -1.015975896349    -0.069498337286    12.000000000000
           C          1.610414081547    -0.651953272384     0.287404502371    12.000000000000
           H          0.122003051328    -1.369913365924    -1.092013220383     1.007825032070
           H         -0.210783319398    -1.780919001968     0.583123201946     1.007825032070
           C          2.245999713744     0.375948112431    -0.650846594809    12.000000000000
           H          2.196782984522    -1.568732805933     0.276051920538     1.007825032070
           H          1.628335007321    -0.281296307015     1.308783361552     1.007825032070
           C          3.686900267882     0.710146784341    -0.266719390220    12.000000000000
           H          2.223087957812    -0.007307962953    -1.668982390868     1.007825032070
           H          1.648752523960     1.281982860744    -0.648431832760     1.007825032070
           H          4.115222618058     1.438505480907    -0.948003133193     1.007825032070
           H          4.316547527816    -0.174947394615    -0.290258276969     1.007825032070
           H          3.738823942339     1.125308544142     0.735803308873     1.007825032070

  Running in c1 symmetry.

  Rotational constants: A =      0.16864  B =      0.02827  C =      0.02524 [cm^-1]
  Rotational constants: A =   5055.79496  B =    847.37100  C =    756.61516 [MHz]
  Nuclear repulsion =  384.544241211186090

  Charge       = 0
  Multiplicity = 1
  Electrons    = 64
  Nalpha       = 32
  Nbeta        = 32

  ==> Algorithm <==

  SCF Algorithm Type is DF.
  DIIS enabled.
  MOM disabled.
  Fractional occupation disabled.
  Guess Type is READ.
  Energy threshold   = 1.00e-08
  Density threshold  = 1.00e-08
  Integral threshold = 0.00e+00

  ==> Primary Basis <==

  Basis Set: 6-31G*
    Number of shells: 72
    Number of basis function: 144
    Number of Cartesian functions: 144
    Spherical Harmonics?: false
    Max angular momentum: 2

  ==> Pre-Iterations <==

   -------------------------------------------------------
    Irrep   Nso     Nmo     Nalpha   Nbeta   Ndocc  Nsocc
   -------------------------------------------------------
     A        144     144       0       0       0       0
   -------------------------------------------------------
    Total     144     144      32      32      32       0
   -------------------------------------------------------

 OEINTS: Overlap, kinetic, potential, dipole, and quadrupole integrals
         stored in file 35.

  ==> Integral Setup <==

  ==> DFJK: Density-Fitted J/K Matrices <==

    J tasked:                  Yes
    K tasked:                  Yes
    wK tasked:                  No
    OpenMP threads:              4
    Integrals threads:           4
    Memory (MB):              1430
    Algorithm:                Core
    Integral Cache:           NONE
    Schwarz Cutoff:          1E-12
    Fitting Condition:       1E-12

   => Auxiliary Basis Set <=

  Basis Set: 
    Number of shells: 300
    Number of basis function: 948
    Number of Cartesian functions: 948
    Spherical Harmonics?: false
    Max angular momentum: 3

  Minimum eigenvalue in the overlap matrix is 3.6946965129E-03.
  Using Symmetric Orthogonalization.
  SCF Guess: Reading in previously saved MOs, projecting if necessary.

  Using orbitals from previous SCF, no projection.
  Recomputing DOCC and SOCC from number of alpha and beta electrons from previous calculation.
              A 
    DOCC [    32 ]

  ==> Iterations <==

                           Total Energy        Delta E     RMS |[F,P]|

   @DF-RHF iter   0:  -383.94056210744213   -3.83941e+02   8.31350e-04 
   @DF-RHF iter   1:  -383.94462284413203   -4.06074e-03   1.13517e-04 
   @DF-RHF iter   2:  -383.94485530131112   -2.32457e-04   3.85273e-05 DIIS
   @DF-RHF iter   3:  -383.94488684800456   -3.15467e-05   1.54802e-05 DIIS
   @DF-RHF iter   4:  -383.94488989681849   -3.04881e-06   4.11825e-06 DIIS
   @DF-RHF iter   5:  -383.94489033990760   -4.43089e-07   1.79438e-06 DIIS
   @DF-RHF iter   6:  -383.94489041459167   -7.46841e-08   6.29569e-07 DIIS
   @DF-RHF iter   7:  -383.94489042390649   -9.31482e-09   2.13657e-07 DIIS
   @DF-RHF iter   8:  -383.94489042493922   -1.03273e-09   8.03118e-08 DIIS
   @DF-RHF iter   9:  -383.94489042508371   -1.44496e-10   2.38370e-08 DIIS
   @DF-RHF iter  10:  -383.94489042510668   -2.29647e-11   8.67038e-09 DIIS

  ==> Post-Iterations <==

    Orbital Energies (a.u.)
    -----------------------

    Doubly Occupied:                                                      

       1A    -20.601576     2A    -20.544139     3A    -11.375198  
       4A    -11.282797     5A    -11.233001     6A    -11.225791  
       7A    -11.220505     8A    -11.213493     9A     -1.466117  
      10A     -1.362523    11A     -1.086180    12A     -1.028061  
      13A     -0.981503    14A     -0.880737    15A     -0.813752  
      16A     -0.771533    17A     -0.690980    18A     -0.684327  
      19A     -0.665027    20A     -0.631049    21A     -0.600265  
      22A     -0.592873    23A     -0.571809    24A     -0.553735  
      25A     -0.543838    26A     -0.530307    27A     -0.513431  
      28A     -0.486092    29A     -0.474824    30A     -0.467606  
      31A     -0.449532    32A     -0.438212  

    Virtual:                                                              

      33A      0.198632    34A      0.233036    35A      0.253422  
      36A      0.260960    37A      0.280057    38A      0.295638  
      39A      0.302953    40A      0.316753    41A      0.327233  
      42A      0.331527    43A      0.334496    44A      0.342682  
      45A      0.350634    46A      0.367248    47A      0.405529  
      48A      0.424789    49A      0.426571    50A      0.444170  
      51A      0.505325    52A      0.553834    53A      0.700147  
      54A      0.707844    55A      0.733971    56A      0.740276  
      57A      0.747313    58A      0.769510    59A      0.792915  
      60A      0.807730    61A      0.819021    62A      0.839772  
      63A      0.905455    64A      0.913521    65A      0.945345  
      66A      0.962616    67A      0.983576    68A      1.002737  
      69A      1.042385    70A      1.096361    71A      1.106947  
      72A      1.123874    73A      1.131525    74A      1.138222  
      75A      1.161124    76A      1.177657    77A      1.187842  
      78A      1.190519    79A      1.198938    80A      1.203398  
      81A      1.215309    82A      1.224264    83A      1.231071  
      84A      1.258645    85A      1.274620    86A      1.302533  
      87A      1.365963    88A      1.411525    89A      1.455783  
      90A      1.491197    91A      1.577491    92A      1.625423  
      93A      1.658106    94A      1.682901    95A      1.727104  
      96A      1.774435    97A      1.798637    98A      1.857262  
      99A      1.904342   100A      1.938361   101A      2.006997  
     102A      2.029822   103A      2.071798   104A      2.101699  
     105A      2.124488   106A      2.160018   107A      2.180300  
     108A      2.201710   109A      2.240089   110A      2.273824  
     111A      2.285142   112A      2.310828   113A      2.358770  
     114A      2.376795   115A      2.442743   116A      2.449081  
     117A      2.519340   118A      2.526407   119A      2.582960  
     120A      2.597045   121A      2.627135   122A      2.669117  
     123A      2.705847   124A      2.738911   125A      2.750189  
     126A      2.761224   127A      2.834951   128A      2.912286  
     129A      2.979314   130A      3.051582   131A      3.068323  
     132A      3.103970   133A      3.180845   134A      3.350832  
     135A      3.425728   136A      3.566576   137A      4.421250  
     138A      4.530132   139A      4.569808   140A      4.617704  
     141A      4.717640   142A      4.819091   143A      4.892503  
     144A      4.958179  

    Final Occupation by Irrep:
              A 
    DOCC [    32 ]

  Energy converged.

  @DF-RHF Final Energy:  -383.94489042510668

   => Energetics <=

    Nuclear Repulsion Energy =            384.5442412111860904
    One-Electron Energy =               -1285.0166330070658205
    Two-Electron Energy =                 516.5275013707729386
    DFT Exchange-Correlation Energy =       0.0000000000000000
    Empirical Dispersion Energy =           0.0000000000000000
    PCM Polarization Energy =               0.0000000000000000
    EFP Energy =                            0.0000000000000000
    Total Energy =                       -383.9448904251067916

    Alert: EFP and PCM quantities not currently incorporated into SCF psivars.

Properties will be evaluated at   0.000000,   0.000000,   0.000000 Bohr
  ==> Properties <==


Properties computed using the SCF density matrix

  Nuclear Dipole Moment: (a.u.)
     X:    10.7997      Y:     3.5199      Z:    -0.5565

  Electronic Dipole Moment: (a.u.)
     X:   -10.1417      Y:    -2.9362      Z:     0.5754

  Dipole Moment: (a.u.)
     X:     0.6580      Y:     0.5836      Z:     0.0189     Total:     0.8798

  Dipole Moment: (Debye)
     X:     1.6725      Y:     1.4835      Z:     0.0481     Total:     2.2362


  Saving occupied orbitals to File 180.

*** tstop() called on cx1-5-7-2.cx1.hpc.ic.ac.uk at Fri Sep  2 14:08:10 2016
Module time:
	user time   =      17.67 seconds =       0.29 minutes
	system time =       0.26 seconds =       0.00 minutes
	total time  =          6 seconds =       0.10 minutes
Total time:
	user time   =      64.77 seconds =       1.08 minutes
	system time =       0.88 seconds =       0.01 minutes
	total time  =         21 seconds =       0.35 minutes

*** tstart() called on cx1-5-7-2.cx1.hpc.ic.ac.uk
*** at Fri Sep  2 14:08:10 2016


         ------------------------------------------------------------
                                   SCF GRAD                          
                          Rob Parrish, Justin Turney,                
                       Andy Simmonett, and Alex Sokolov              
         ------------------------------------------------------------

  ==> Geometry <==

    Molecular point group: c1
    Full point group: C1

    Geometry (in Angstrom), charge = 0, multiplicity = 1:

       Center              X                  Y                   Z               Mass       
    ------------   -----------------  -----------------  -----------------  -----------------
           O         -2.504175415228    -1.011622550385     0.152061774815    15.994914619560
           C         -1.933465231302     0.030874332603     0.159888106015    12.000000000000
           C         -2.596530432415     1.369341993286     0.340746059800    12.000000000000
           O         -0.618858775804     0.160789251346     0.034719034433    15.994914619560
           H         -2.393043553433     1.995872181125    -0.519953543874     1.007825032070
           H         -3.661462075500     1.233705794255     0.456303739293     1.007825032070
           H         -2.188220826552     1.866748953562     1.212994246955     1.007825032070
           C          0.180544056594    -1.015975896349    -0.069498337286    12.000000000000
           C          1.610414081547    -0.651953272384     0.287404502371    12.000000000000
           H          0.122003051328    -1.369913365924    -1.092013220383     1.007825032070
           H         -0.210783319398    -1.780919001968     0.583123201946     1.007825032070
           C          2.245999713744     0.375948112431    -0.650846594809    12.000000000000
           H          2.196782984522    -1.568732805933     0.276051920538     1.007825032070
           H          1.628335007321    -0.281296307015     1.308783361552     1.007825032070
           C          3.686900267882     0.710146784341    -0.266719390220    12.000000000000
           H          2.223087957812    -0.007307962953    -1.668982390868     1.007825032070
           H          1.648752523960     1.281982860744    -0.648431832760     1.007825032070
           H          4.115222618058     1.438505480907    -0.948003133193     1.007825032070
           H          4.316547527816    -0.174947394615    -0.290258276969     1.007825032070
           H          3.738823942339     1.125308544142     0.735803308873     1.007825032070

  Nuclear repulsion =  384.544241211186090

  ==> Basis Set <==

  Basis Set: 6-31G*
    Number of shells: 72
    Number of basis function: 144
    Number of Cartesian functions: 144
    Spherical Harmonics?: false
    Max angular momentum: 2

  ==> DFJKGrad: Density-Fitted SCF Gradients <==

    Gradient:                    1
    J tasked:                  Yes
    K tasked:                  Yes
    wK tasked:                  No
    OpenMP threads:              4
    Integrals threads:           4
    Memory (MB):              1430
    Schwarz Cutoff:          0E+00
    Fitting Condition:       1E-12

   => Auxiliary Basis Set <=

  Basis Set: 
    Number of shells: 300
    Number of basis function: 948
    Number of Cartesian functions: 948
    Spherical Harmonics?: false
    Max angular momentum: 3


  -Total Gradient:
     Atom            X                  Y                   Z
    ------   -----------------  -----------------  -----------------
       1       -0.001638426337    -0.000022465402     0.001374993056
       2       -0.000569428929     0.000638014661    -0.002706178991
       3        0.000110948659    -0.000500801406     0.001414228938
       4        0.000706831203     0.000936028597    -0.002820006437
       5        0.000188012402    -0.000413438298    -0.000018696095
       6       -0.000001140627     0.000011651850     0.000156961516
       7       -0.000117263331     0.000292029061     0.000108558714
       8       -0.001061950188    -0.001865355393     0.004825836194
       9        0.000169478004    -0.000666497333    -0.001093380670
      10        0.001300278673     0.001824334417    -0.000585834141
      11        0.000806265628    -0.000425930434    -0.000513794196
      12        0.000256382319    -0.000057090949     0.000165839150
      13        0.000326308299     0.000041650846     0.000017245339
      14       -0.000449923512    -0.000152197146    -0.000272571133
      15        0.000056708160     0.000188438000    -0.000123399790
      16        0.000015671652    -0.000006908716     0.000074927283
      17       -0.000140001138     0.000155045726    -0.000027987097
      18        0.000079185934     0.000033102918     0.000021941994
      19       -0.000032958328    -0.000012026840    -0.000000456588
      20       -0.000004978539     0.000002415841     0.000001772953


*** tstop() called on cx1-5-7-2.cx1.hpc.ic.ac.uk at Fri Sep  2 14:08:17 2016
Module time:
	user time   =      24.39 seconds =       0.41 minutes
	system time =       0.27 seconds =       0.00 minutes
	total time  =          7 seconds =       0.12 minutes
Total time:
	user time   =      89.18 seconds =       1.49 minutes
	system time =       1.15 seconds =       0.02 minutes
	total time  =         28 seconds =       0.47 minutes
CURRENT ENERGY: -383.9448904251

			-----------------------------------------
			 OPTKING 2.0: for geometry optimizations 
			  - R.A. King,  Bethel University        
			-----------------------------------------

	Previous internal coordinate definitions found.
	---Fragment 1 Geometry and Gradient---
	 O          -4.7322057235       -1.9116895701        0.2873551097
	 C          -3.6537197746        0.0583440332        0.3021447323
	 C          -4.9067314130        2.5876813496        0.6439167339
	 O          -1.1694736012        0.3038476502        0.0656094667
	 H          -4.5221969401        3.7716518186       -0.9825697997
	 H          -6.9191605686        2.3313660797        0.8622891007
	 H          -4.1351380805        3.5276442811        2.2922269275
	 C           0.3411788219       -1.9199162017       -0.1313328242
	 C           3.0432415747       -1.2320131362        0.5431157988
	 H           0.2305523544       -2.5887610874       -2.0636059200
	 H          -0.3983227470       -3.3654491786        1.1019431534
	 C           4.2443243535        0.7104389727       -1.2299218187
	 H           4.1513182141       -2.9644753789        0.5216625283
	 H           3.0771072164       -0.5315729825        2.4732421206
	 C           6.9672317856        1.3419829366       -0.5040266018
	 H           4.2010274096       -0.0138100486       -3.1539196393
	 H           3.1156907312        2.4225965139       -1.2253585798
	 H           7.7766437240        2.7183813996       -1.7914662949
	 H           8.1570926672       -0.3306026635       -0.5485086513
	 H           7.0653533101        2.1265249634        1.3904667414
	            -0.0016384263       -0.0000224654        0.0013749931
	            -0.0005694289        0.0006380147       -0.0027061790
	             0.0001109487       -0.0005008014        0.0014142289
	             0.0007068312        0.0009360286       -0.0028200064
	             0.0001880124       -0.0004134383       -0.0000186961
	            -0.0000011406        0.0000116519        0.0001569615
	            -0.0001172633        0.0002920291        0.0001085587
	            -0.0010619502       -0.0018653554        0.0048258362
	             0.0001694780       -0.0006664973       -0.0010933807
	             0.0013002787        0.0018243344       -0.0005858341
	             0.0008062656       -0.0004259304       -0.0005137942
	             0.0002563823       -0.0000570909        0.0001658392
	             0.0003263083        0.0000416508        0.0000172453
	            -0.0004499235       -0.0001521971       -0.0002725711
	             0.0000567082        0.0001884380       -0.0001233998
	             0.0000156717       -0.0000069087        0.0000749273
	            -0.0001400011        0.0001550457       -0.0000279871
	             0.0000791859        0.0000331029        0.0000219420
	            -0.0000329583       -0.0000120268       -0.0000004566
	            -0.0000049785        0.0000024158        0.0000017730

	---Fragment 1 Intrafragment Coordinates---
	 - Coordinate -           - BOHR/RAD -       - ANG/DEG -
	 R(1,2)           =         2.245970	       1.188516
	 R(2,3)           =         2.843307	       1.504613
	 R(2,4)           =         2.507529	       1.326927
	 R(3,5)           =         2.048197	       1.083859
	 R(3,6)           =         2.040406	       1.079736
	 R(3,7)           =         2.048368	       1.083950
	 R(4,8)           =         2.695549	       1.426423
	 R(8,9)           =         2.868664	       1.518032
	 R(8,10)          =         2.047748	       1.083622
	 R(8,11)          =         2.038970	       1.078976
	 R(9,12)          =         2.891260	       1.529989
	 R(9,13)          =         2.056628	       1.088321
	 R(9,14)          =         2.053570	       1.086703
	 R(12,15)         =         2.887905	       1.528214
	 R(12,16)         =         2.056254	       1.088123
	 R(12,17)         =         2.050687	       1.085177
	 R(15,18)         =         2.051127	       1.085410
	 R(15,19)         =         2.053117	       1.086463
	 R(15,20)         =         2.052861	       1.086327
	 B(1,2,3)         =         2.176648	     124.712763
	 B(1,2,4)         =         2.166372	     124.123965
	 B(2,3,5)         =         1.913499	     109.635445
	 B(2,3,6)         =         1.913210	     109.618881
	 B(2,3,7)         =         1.916583	     109.812100
	 B(2,4,8)         =         2.072982	     118.773125
	 B(3,2,4)         =         1.939964	     111.151773
	 B(4,8,9)         =         1.889011	     108.232354
	 B(4,8,10)        =         1.884016	     107.946180
	 B(4,8,11)        =         1.914971	     109.719782
	 B(5,3,6)         =         1.920663	     110.045868
	 B(5,3,7)         =         1.878670	     107.639839
	 B(6,3,7)         =         1.920953	     110.062515
	 B(8,9,12)        =         1.991299	     114.093056
	 B(8,9,13)        =         1.878675	     107.640176
	 B(8,9,14)        =         1.894733	     108.560215
	 B(9,8,10)        =         1.929501	     110.552236
	 B(9,8,11)        =         1.949182	     111.679884
	 B(9,12,15)       =         1.965422	     112.610385
	 B(9,12,16)       =         1.905424	     109.172779
	 B(9,12,17)       =         1.908086	     109.325273
	 B(10,8,11)       =         1.896092	     108.638094
	 B(12,9,13)       =         1.913170	     109.616551
	 B(12,9,14)       =         1.918111	     109.899676
	 B(12,15,18)      =         1.940190	     111.164677
	 B(12,15,19)      =         1.942097	     111.273952
	 B(12,15,20)      =         1.939716	     111.137531
	 B(13,9,14)       =         1.863186	     106.752706
	 B(15,12,16)      =         1.909292	     109.394359
	 B(15,12,17)      =         1.913229	     109.619941
	 B(16,12,17)      =         1.859351	     106.532949
	 B(18,15,19)      =         1.880079	     107.720617
	 B(18,15,20)      =         1.879619	     107.694247
	 B(19,15,20)      =         1.879298	     107.675828
	 D(1,2,3,5)       =        -2.114636	    -121.159721
	 D(1,2,3,6)       =        -0.004533	      -0.259705
	 D(1,2,3,7)       =         2.107875	     120.772319
	 D(1,2,4,8)       =        -0.040564	      -2.324134
	 D(2,4,8,9)       =        -2.798049	    -160.316400
	*D(2,4,8,10)      =         1.396263	      79.999994
	 D(2,4,8,11)      =        -0.667174	     -38.226278
	 D(3,2,4,8)       =         3.080356	     176.491385
	 D(4,2,3,5)       =         1.047776	      60.033132
	 D(4,2,3,6)       =        -3.125306	    -179.066853
	 D(4,2,3,7)       =        -1.012899	     -58.034829
	 D(4,8,9,12)      =        -1.085632	     -62.202114
	 D(4,8,9,13)      =         3.070389	     175.920340
	 D(4,8,9,14)      =         1.059716	      60.717253
	 D(8,9,12,15)     =        -3.134613	    -179.600114
	 D(8,9,12,16)     =        -1.010339	     -57.888149
	 D(8,9,12,17)     =         1.017397	      58.292537
	 D(9,12,15,18)    =         3.139188	     179.862249
	 D(9,12,15,19)    =         1.043630	      59.795613
	 D(9,12,15,20)    =        -1.050619	     -60.196035
	 D(10,8,9,12)     =         0.974416	      55.829923
	 D(10,8,9,13)     =        -1.152748	     -66.047622
	 D(10,8,9,14)     =         3.119764	     178.749290
	 D(11,8,9,12)     =         3.087787	     176.917165
	 D(11,8,9,13)     =         0.960623	      55.039620
	 D(11,8,9,14)     =        -1.050051	     -60.163468
	 D(13,9,12,15)    =        -1.026551	     -58.817068
	 D(13,9,12,16)    =         1.097723	      62.894897
	 D(13,9,12,17)    =         3.125459	     179.075583
	 D(14,9,12,15)    =         1.015999	      58.212448
	 D(14,9,12,16)    =         3.140273	     179.924413
	 D(14,9,12,17)    =        -1.115176	     -63.894901
	 D(16,12,15,18)   =         1.017109	      58.276057
	 D(16,12,15,19)   =        -1.078449	     -61.790579
	 D(16,12,15,20)   =         3.110487	     178.217773
	 D(17,12,15,18)   =        -1.015729	     -58.196984
	 D(17,12,15,19)   =        -3.111287	    -178.263620
	 D(17,12,15,20)   =         1.077649	      61.744732

	Current energy   :      -383.9448904251

	Energy change for the previous step:
		Projected    :        -0.0006196515
		Actual       :        -0.0000264371
	Energy ratio indicates iffy step: Trust radius decreased to 1.250e-01.


	Performing BFGS update.
	Previous computed or guess Hessian on step 1.
	Steps to be used in Hessian update: 1
	Taking RFO optimization step.
	Going to follow RFO solution 1.
	Using RFO vector 1.

	Determining step-restricting scale parameter for RS-RFO.
	Maximum step size allowed    0.12500

	 Iter      |step|        alpha        rfo_root  
	------------------------------------------------
	    0     0.14550       1.00000           1
	    1     0.12962       4.31928           1
	    2     0.12527       5.51851           1
	    3     0.12500       5.59738           1
	------------------------------------------------
	Norm of target step-size    0.12500
	Projected energy change by RFO approximation:        -0.0003226590

	Back-transformation to cartesian coordinates...
	Successfully converged to displaced geometry.

	Back-transformation to cartesian coordinates to adjust frozen coordinates...
	Successfully converged to displaced geometry.

	--- Internal Coordinate Step in ANG or DEG, aJ/ANG or AJ/DEG ---
	 ---------------------------------------------------------------------------
	   Coordinate                Previous        Force       Change         New 
	   ----------                --------       ------       ------       ------
	    1 R(1,2)          =      1.188516    -0.006570    -0.000174     1.188342
	    2 R(2,3)          =      1.504613     0.003485     0.000340     1.504953
	    3 R(2,4)          =      1.326927    -0.016800    -0.000589     1.326338
	    4 R(3,5)          =      1.083859     0.001556     0.000129     1.083988
	    5 R(3,6)          =      1.079736    -0.000136    -0.000014     1.079722
	    6 R(3,7)          =      1.083950    -0.001460    -0.000120     1.083830
	    7 R(4,8)          =      1.426423    -0.010994    -0.000497     1.425926
	    8 R(8,9)          =      1.518032     0.001190     0.000341     1.518373
	    9 R(8,10)         =      1.083622     0.000934     0.000484     1.084105
	   10 R(8,11)         =      1.078976     0.002482    -0.000483     1.078493
	   11 R(9,12)         =      1.529989    -0.001895    -0.000184     1.529804
	   12 R(9,13)         =      1.088321    -0.001158    -0.000053     1.088268
	   13 R(9,14)         =      1.086703     0.002599     0.000217     1.086920
	   14 R(12,15)        =      1.528214    -0.000935    -0.000072     1.528142
	   15 R(12,16)        =      1.088123     0.000560     0.000045     1.088168
	   16 R(12,17)        =      1.085177    -0.001701    -0.000137     1.085040
	   17 R(15,18)        =      1.085410    -0.000327    -0.000022     1.085387
	   18 R(15,19)        =      1.086463     0.000077     0.000023     1.086486
	   19 R(15,20)        =      1.086327    -0.000019     0.000002     1.086329
	   20 B(1,2,3)        =    124.712763     0.000104     0.059495   124.772258
	   21 B(1,2,4)        =    124.123965    -0.000171    -0.165861   123.958104
	   22 B(2,3,5)        =    109.635445     0.000053     0.113155   109.748600
	   23 B(2,3,6)        =    109.618881    -0.000005    -0.015938   109.602944
	   24 B(2,3,7)        =    109.812100    -0.000039    -0.086821   109.725279
	   25 B(2,4,8)        =    118.773125    -0.000266    -0.102907   118.670218
	   26 B(3,2,4)        =    111.151773     0.000069     0.002282   111.154055
	   27 B(4,8,9)        =    108.232354    -0.000020     0.022914   108.255268
	   28 B(4,8,10)       =    107.946180     0.000066     0.153345   108.099525
	   29 B(4,8,11)       =    109.719782    -0.000071    -0.266191   109.453591
	   30 B(5,3,6)        =    110.045868    -0.000018    -0.029582   110.016286
	   31 B(5,3,7)        =    107.639839    -0.000005    -0.006533   107.633305
	   32 B(6,3,7)        =    110.062515     0.000015     0.026222   110.088737
	   33 B(8,9,12)       =    114.093056    -0.000017     0.007594   114.100650
	   34 B(8,9,13)       =    107.640176    -0.000022    -0.114838   107.525338
	   35 B(8,9,14)       =    108.560215     0.000039     0.127248   108.687462
	   36 B(9,8,10)       =    110.552236     0.000025     0.030361   110.582597
	   37 B(9,8,11)       =    111.679884     0.000014    -0.030915   111.648969
	   38 B(9,12,15)      =    112.610385    -0.000023    -0.033475   112.576910
	   39 B(9,12,16)      =    109.172779     0.000008    -0.000031   109.172749
	   40 B(9,12,17)      =    109.325273     0.000007     0.016314   109.341587
	   41 B(10,8,11)      =    108.638094    -0.000013     0.092255   108.730349
	   42 B(12,9,13)      =    109.616551     0.000015    -0.036233   109.580318
	   43 B(12,9,14)      =    109.899676    -0.000009     0.025865   109.925542
	   44 B(12,15,18)     =    111.164677    -0.000010    -0.021517   111.143161
	   45 B(12,15,19)     =    111.273952     0.000005     0.017068   111.291020
	   46 B(12,15,20)     =    111.137531     0.000002     0.004280   111.141811
	   47 B(13,9,14)      =    106.752706    -0.000005    -0.012856   106.739850
	   48 B(15,12,16)     =    109.394359     0.000005    -0.003411   109.390947
	   49 B(15,12,17)     =    109.619941     0.000007     0.022680   109.642622
	   50 B(16,12,17)     =    106.532949    -0.000004    -0.000355   106.532593
	   51 B(18,15,19)     =    107.720617     0.000001    -0.000532   107.720084
	   52 B(18,15,20)     =    107.694247     0.000003     0.001529   107.695776
	   53 B(19,15,20)     =    107.675828    -0.000002    -0.000823   107.675005
	   54 D(1,2,3,5)      =   -121.159721     0.000011     2.315386  -118.844335
	   55 D(1,2,3,6)      =     -0.259705     0.000013     2.340054     2.080349
	   56 D(1,2,3,7)      =    120.772319     0.000011     2.307518   123.079836
	   57 D(1,2,4,8)      =     -2.324134    -0.000003    -2.097584    -4.421718
	   58 D(2,4,8,9)      =   -160.316400     0.000013     0.135898  -160.180503
	   59 *D(2,4,8,10)    =     79.999994    -0.000000    -0.000000    79.999994
	   60 D(2,4,8,11)     =    -38.226278     0.000004    -0.050274   -38.276552
	   61 D(3,2,4,8)      =    176.491385     0.000023     2.836532   179.327917
	   62 D(4,2,3,5)      =     60.033132    -0.000014    -2.663768    57.369364
	   63 D(4,2,3,6)      =   -179.066853    -0.000012    -2.639099  -181.705952
	   64 D(4,2,3,7)      =    -58.034829    -0.000014    -2.671636   -60.706465
	   65 D(4,8,9,12)     =    -62.202114    -0.000015    -0.458424   -62.660538
	   66 D(4,8,9,13)     =    175.920340    -0.000014    -0.334182   175.586158
	   67 D(4,8,9,14)     =     60.717253    -0.000014    -0.323970    60.393283
	   68 D(8,9,12,15)    =   -179.600114     0.000005     0.394391  -179.205723
	   69 D(8,9,12,16)    =    -57.888149     0.000005     0.367749   -57.520400
	   70 D(8,9,12,17)    =     58.292537     0.000006     0.376442    58.668979
	   71 D(9,12,15,18)   =    179.862249    -0.000000    -0.041961   179.820289
	   72 D(9,12,15,19)   =     59.795613     0.000000    -0.038262    59.757350
	   73 D(9,12,15,20)   =    -60.196035    -0.000000    -0.051560   -60.247595
	   74 D(10,8,9,12)    =     55.829923     0.000003    -0.241215    55.588708
	   75 D(10,8,9,13)    =    -66.047622     0.000005    -0.116973   -66.164595
	   76 D(10,8,9,14)    =    178.749290     0.000005    -0.106760   178.642530
	   77 D(11,8,9,12)    =    176.917165     0.000006    -0.123860   176.793305
	   78 D(11,8,9,13)    =     55.039620     0.000008     0.000382    55.040002
	   79 D(11,8,9,14)    =    -60.163468     0.000007     0.010594   -60.152874
	   80 D(13,9,12,15)   =    -58.817068    -0.000001     0.225002   -58.592066
	   81 D(13,9,12,16)   =     62.894897    -0.000002     0.198360    63.093257
	   82 D(13,9,12,17)   =    179.075583    -0.000001     0.207053   179.282636
	   83 D(14,9,12,15)   =     58.212448    -0.000002     0.203205    58.415653
	   84 D(14,9,12,16)   =    179.924413    -0.000003     0.176563   180.100976
	   85 D(14,9,12,17)   =    -63.894901    -0.000002     0.185256   -63.709645
	   86 D(16,12,15,18)  =     58.276057     0.000000    -0.017125    58.258932
	   87 D(16,12,15,19)  =    -61.790579     0.000001    -0.013427   -61.804006
	   88 D(16,12,15,20)  =    178.217773     0.000000    -0.026724   178.191048
	   89 D(17,12,15,18)  =    -58.196984    -0.000000    -0.027689   -58.224672
	   90 D(17,12,15,19)  =   -178.263620    -0.000000    -0.023990  -178.287610
	   91 D(17,12,15,20)  =     61.744732    -0.000001    -0.037288    61.707444
	 ---------------------------------------------------------------------------

  ==> Convergence Check <==

  Measures of convergence in internal coordinates in au.
  Criteria marked as inactive (o), active & met (*), and active & unmet ( ).
  ---------------------------------------------------------------------------------------------
   Step     Total Energy     Delta E     MAX Force     RMS Force      MAX Disp      RMS Disp   
  ---------------------------------------------------------------------------------------------
    Convergence Criteria    1.00e-06 *    3.00e-04 *             o    1.20e-03 *             o
  ---------------------------------------------------------------------------------------------
      2    -383.94489043   -2.64e-05      3.49e-03      6.55e-04 o    4.95e-02      1.31e-02 o  ~
  ---------------------------------------------------------------------------------------------

	Writing optimization data to binary file.
	Structure for next step:
	Cartesian Geometry (in Angstrom)
	    O    -2.4995630139  -1.0143622687   0.1471451806
	    C    -1.9308536727   0.0277621239   0.1991393767
	    C    -2.6038797501   1.3670203440   0.3344422122
	    O    -0.6184377666   0.1631433568   0.0634574119
	    H    -2.3715132325   1.9824250724  -0.5271339625
	    H    -3.6719061203   1.2294170968   0.4130886459
	    H    -2.2286106398   1.8778490363   1.2135974016
	    C     0.1809568090  -1.0108386872  -0.0630302471
	    C     1.6136029752  -0.6508667788   0.2882540233
	    H     0.1149360363  -1.3543119976  -1.0891646185
	    H    -0.2063049236  -1.7806726921   0.5854542107
	    C     2.2453555440   0.3821306470  -0.6466826280
	    H     2.1973323127  -1.5690418035   0.2649728209
	    H     1.6404997428  -0.2886860558   1.3127035448
	    C     3.6918143164   0.7041430717  -0.2734781513
	    H     2.2104036994   0.0083500543  -1.6680421547
	    H     1.6533647553   1.2912983520  -0.6301906710
	    H     4.1177321374   1.4359071245  -0.9525812533
	    H     4.3160346620  -0.1843416562  -0.3108324516
	    H     3.7559111186   1.1102316760   0.7320537994
			--------------------------
			 OPTKING Finished Execution 
			--------------------------

    Structure for next step:
    Molecular point group: c1
    Full point group: C1

    Geometry (in Angstrom), charge = 0, multiplicity = 1:

    O           -2.500509415311    -1.014404133606     0.140502576420
    C           -1.931800117529     0.027720179450     0.192496768538
    C           -2.604826143532     1.366978297295     0.327799593740
    O           -0.619384311680     0.163101402002     0.056814814082
    H           -2.372459643665     1.982382978699    -0.533776515143
    H           -3.672852432132     1.229375060545     0.406446021430
    H           -2.229557061907     1.877806950515     1.206954716045
    C            0.180010202935    -1.010880552420    -0.069672835194
    C            1.612656259740    -0.650908671433     0.281611408327
    H            0.113989435275    -1.354353836529    -1.095807128268
    H           -0.207251500075    -1.780714498436     0.578811573089
    C            2.244408780280     0.382088675440    -0.653325171571
    H            2.196385552598    -1.569083626087     0.258330207695
    H            1.639553025268    -0.288727976156     1.306060851607
    C            3.690867442248     0.704101075537    -0.280120723306
    H            2.209456938291     0.008308111252    -1.674684620200
    H            1.652418036765     1.291256311062    -0.636833215831
    H            4.116785230667     1.435865072473    -0.959223773521
    H            4.315087740103    -0.184383584530    -0.317475020815
    H            3.754964239520     1.110189648861     0.725411150595

gradient() will perform analytic gradient computation.

*** tstart() called on cx1-5-7-2.cx1.hpc.ic.ac.uk
*** at Fri Sep  2 14:08:17 2016


         ---------------------------------------------------------
                                   SCF
            by Justin Turney, Rob Parrish, and Andy Simmonett
                              RHF Reference
                        4 Threads,   2000 MiB Core
         ---------------------------------------------------------

  ==> Geometry <==

    Molecular point group: c1
    Full point group: C1

    Geometry (in Angstrom), charge = 0, multiplicity = 1:

       Center              X                  Y                   Z               Mass       
    ------------   -----------------  -----------------  -----------------  -----------------
           O         -2.500509415311    -1.014404133606     0.140502576420    15.994914619560
           C         -1.931800117529     0.027720179450     0.192496768538    12.000000000000
           C         -2.604826143532     1.366978297295     0.327799593740    12.000000000000
           O         -0.619384311680     0.163101402002     0.056814814082    15.994914619560
           H         -2.372459643665     1.982382978699    -0.533776515143     1.007825032070
           H         -3.672852432132     1.229375060545     0.406446021430     1.007825032070
           H         -2.229557061907     1.877806950515     1.206954716045     1.007825032070
           C          0.180010202935    -1.010880552420    -0.069672835194    12.000000000000
           C          1.612656259740    -0.650908671433     0.281611408327    12.000000000000
           H          0.113989435275    -1.354353836529    -1.095807128268     1.007825032070
           H         -0.207251500075    -1.780714498436     0.578811573089     1.007825032070
           C          2.244408780280     0.382088675440    -0.653325171571    12.000000000000
           H          2.196385552598    -1.569083626087     0.258330207695     1.007825032070
           H          1.639553025268    -0.288727976156     1.306060851607     1.007825032070
           C          3.690867442248     0.704101075537    -0.280120723306    12.000000000000
           H          2.209456938291     0.008308111252    -1.674684620200     1.007825032070
           H          1.652418036765     1.291256311062    -0.636833215831     1.007825032070
           H          4.116785230667     1.435865072473    -0.959223773521     1.007825032070
           H          4.315087740103    -0.184383584530    -0.317475020815     1.007825032070
           H          3.754964239520     1.110189648861     0.725411150595     1.007825032070

  Running in c1 symmetry.

  Rotational constants: A =      0.16920  B =      0.02823  C =      0.02521 [cm^-1]
  Rotational constants: A =   5072.47284  B =    846.18248  C =    755.80616 [MHz]
  Nuclear repulsion =  384.546378484498803

  Charge       = 0
  Multiplicity = 1
  Electrons    = 64
  Nalpha       = 32
  Nbeta        = 32

  ==> Algorithm <==

  SCF Algorithm Type is DF.
  DIIS enabled.
  MOM disabled.
  Fractional occupation disabled.
  Guess Type is READ.
  Energy threshold   = 1.00e-08
  Density threshold  = 1.00e-08
  Integral threshold = 0.00e+00

  ==> Primary Basis <==

  Basis Set: 6-31G*
    Number of shells: 72
    Number of basis function: 144
    Number of Cartesian functions: 144
    Spherical Harmonics?: false
    Max angular momentum: 2

  ==> Pre-Iterations <==

   -------------------------------------------------------
    Irrep   Nso     Nmo     Nalpha   Nbeta   Ndocc  Nsocc
   -------------------------------------------------------
[...]
	 R(4,8)           =         2.693576	       1.425379
	 R(8,9)           =         2.868993	       1.518206
	 R(8,10)          =         2.047899	       1.083701
	 R(8,11)          =         2.039341	       1.079173
	 R(9,12)          =         2.890724	       1.529706
	 R(9,13)          =         2.056478	       1.088241
	 R(9,14)          =         2.054091	       1.086978
	 R(12,15)         =         2.887666	       1.528087
	 R(12,16)         =         2.056378	       1.088189
	 R(12,17)         =         2.050374	       1.085011
	 R(15,18)         =         2.051077	       1.085383
	 R(15,19)         =         2.053118	       1.086464
	 R(15,20)         =         2.052850	       1.086322
	 B(1,2,3)         =         2.179861	     124.896808
	 B(1,2,4)         =         2.161220	     123.828803
	 B(2,3,5)         =         1.914590	     109.697910
	 B(2,3,6)         =         1.913033	     109.608700
	 B(2,3,7)         =         1.915882	     109.771939
	 B(2,4,8)         =         2.063928	     118.254373
	 B(3,2,4)         =         1.942102	     111.274229
	 B(4,8,9)         =         1.888873	     108.224476
	 B(4,8,10)        =         1.891965	     108.401607
	 B(4,8,11)        =         1.905785	     109.193435
	 B(5,3,6)         =         1.920187	     110.018594
	 B(5,3,7)         =         1.878608	     107.636315
	 B(6,3,7)         =         1.921285	     110.081529
	 B(8,9,12)        =         1.990556	     114.050435
	 B(8,9,13)        =         1.875458	     107.455837
	 B(8,9,14)        =         1.898825	     108.794648
	 B(9,8,10)        =         1.934936	     110.863663
	 B(9,8,11)        =         1.946837	     111.545522
	 B(9,12,15)       =         1.964511	     112.558203
	 B(9,12,16)       =         1.905680	     109.187442
	 B(9,12,17)       =         1.908489	     109.348376
	 B(10,8,11)       =         1.894549	     108.549677
	 B(12,9,13)       =         1.912661	     109.587427
	 B(12,9,14)       =         1.918761	     109.936914
	 B(12,15,18)      =         1.939750	     111.139498
	 B(12,15,19)      =         1.942296	     111.285382
	 B(12,15,20)      =         1.939826	     111.143869
	 B(13,9,14)       =         1.862883	     106.735355
	 B(15,12,16)      =         1.909238	     109.391292
	 B(15,12,17)      =         1.913459	     109.633099
	 B(16,12,17)      =         1.859484	     106.540574
	 B(18,15,19)      =         1.880077	     107.720496
	 B(18,15,20)      =         1.879706	     107.699196
	 B(19,15,20)      =         1.879351	     107.678866
	 D(1,2,3,5)       =        -2.105135	    -120.615377
	 D(1,2,3,6)       =         0.004954	       0.283865
	 D(1,2,3,7)       =         2.117216	     121.307550
	 D(1,2,4,8)       =        -0.029577	      -1.694616
	 D(2,4,8,9)       =        -2.787093	    -159.688654
	*D(2,4,8,10)      =         1.396263	      79.999994
	 D(2,4,8,11)      =        -0.664747	     -38.087176
	 D(3,2,4,8)       =         3.114443	     178.444427
	 D(4,2,3,5)       =         1.033999	      59.243797
	 D(4,2,3,6)       =        -3.139096	    -179.856962
	 D(4,2,3,7)       =        -1.026834	     -58.833277
	 D(4,8,9,12)      =        -1.106217	     -63.381540
	 D(4,8,9,13)      =         3.053255	     174.938622
	 D(4,8,9,14)      =         1.042536	      59.732940
	 D(8,9,12,15)     =        -3.112750	    -178.347450
	 D(8,9,12,16)     =        -0.988970	     -56.663802
	 D(8,9,12,17)     =         1.039295	      59.547212
	 D(9,12,15,18)    =         3.136450	     179.705330
	 D(9,12,15,19)    =         1.041056	      59.648129
	 D(9,12,15,20)    =        -1.053469	     -60.359304
	 D(10,8,9,12)     =         0.966556	      55.379603
	 D(10,8,9,13)     =        -1.157157	     -66.300234
	 D(10,8,9,14)     =         3.115309	     178.494083
	 D(11,8,9,12)     =         3.080122	     176.477977
	 D(11,8,9,13)     =         0.956408	      54.798139
	 D(11,8,9,14)     =        -1.054311	     -60.407544
	 D(13,9,12,15)    =        -1.009709	     -57.852088
	 D(13,9,12,16)    =         1.114071	      63.831559
	 D(13,9,12,17)    =        -3.140850	    -179.957426
	 D(14,9,12,15)    =         1.032554	      59.161001
	 D(14,9,12,16)    =        -3.126851	    -179.155351
	 D(14,9,12,17)    =        -1.098586	     -62.944336
	 D(16,12,15,18)   =         1.014691	      58.137536
	 D(16,12,15,19)   =        -1.080702	     -61.919665
	 D(16,12,15,20)   =         3.107958	     178.072902
	 D(17,12,15,18)   =        -1.018407	     -58.350449
	 D(17,12,15,19)   =        -3.113801	    -178.407650
	 D(17,12,15,20)   =         1.074860	      61.584916

	Current energy   :      -383.9449978919

	Energy change for the previous step:
		Projected    :         0.0000057314
		Actual       :         0.0000008020

	Performing BFGS update.
	Previous computed or guess Hessian on step 1.
	Steps to be used in Hessian update: 5 4
	Taking RFO optimization step.
	Going to follow RFO solution 1.
	Using RFO vector 1.
	Norm of target step-size    0.03385
	Projected energy change by RFO approximation:        -0.0000079583

	Back-transformation to cartesian coordinates...
	Successfully converged to displaced geometry.

	Back-transformation to cartesian coordinates to adjust frozen coordinates...
	Successfully converged to displaced geometry.

	--- Internal Coordinate Step in ANG or DEG, aJ/ANG or AJ/DEG ---
	 ---------------------------------------------------------------------------
	   Coordinate                Previous        Force       Change         New 
	   ----------                --------       ------       ------       ------
	    1 R(1,2)          =      1.188315     0.000600     0.000022     1.188338
	    2 R(2,3)          =      1.505000    -0.000129    -0.000025     1.504975
	    3 R(2,4)          =      1.325684     0.000809     0.000083     1.325767
	    4 R(3,5)          =      1.083954    -0.000087    -0.000011     1.083943
	    5 R(3,6)          =      1.079740     0.000001    -0.000000     1.079740
	    6 R(3,7)          =      1.083838     0.000086     0.000013     1.083850
	    7 R(4,8)          =      1.425379     0.000466     0.000056     1.425435
	    8 R(8,9)          =      1.518206    -0.000459    -0.000059     1.518147
	    9 R(8,10)         =      1.083701    -0.000578    -0.000077     1.083624
	   10 R(8,11)         =      1.079173     0.000543     0.000090     1.079263
	   11 R(9,12)         =      1.529706     0.000149     0.000026     1.529732
	   12 R(9,13)         =      1.088241     0.000060     0.000002     1.088243
	   13 R(9,14)         =      1.086978    -0.000205    -0.000026     1.086952
	   14 R(12,15)        =      1.528087     0.000142     0.000015     1.528102
	   15 R(12,16)        =      1.088189    -0.000007    -0.000003     1.088185
	   16 R(12,17)        =      1.085011     0.000223     0.000020     1.085031
	   17 R(15,18)        =      1.085383     0.000015     0.000002     1.085385
	   18 R(15,19)        =      1.086464    -0.000113    -0.000008     1.086456
	   19 R(15,20)        =      1.086322     0.000107     0.000006     1.086328
	   20 B(1,2,3)        =    124.896808    -0.000005    -0.010439   124.886369
	   21 B(1,2,4)        =    123.828803     0.000007     0.011852   123.840655
	   22 B(2,3,5)        =    109.697910    -0.000002    -0.005109   109.692801
	   23 B(2,3,6)        =    109.608700     0.000001     0.001515   109.610214
	   24 B(2,3,7)        =    109.771939     0.000001     0.004015   109.775954
	   25 B(2,4,8)        =    118.254373     0.000008     0.013571   118.267945
	   26 B(3,2,4)        =    111.274229    -0.000001    -0.001387   111.272842
	   27 B(4,8,9)        =    108.224476    -0.000004    -0.006107   108.218369
	   28 B(4,8,10)       =    108.401607    -0.000002    -0.015348   108.386258
	   29 B(4,8,11)       =    109.193435     0.000006     0.030098   109.223532
	   30 B(5,3,6)        =    110.018594     0.000001     0.002514   110.021108
	   31 B(5,3,7)        =    107.636315     0.000000    -0.000032   107.636283
	   32 B(6,3,7)        =    110.081529    -0.000001    -0.002946   110.078583
	   33 B(8,9,12)       =    114.050435    -0.000001    -0.001521   114.048914
	   34 B(8,9,13)       =    107.455837     0.000002     0.017477   107.473315
	   35 B(8,9,14)       =    108.794648    -0.000002    -0.018966   108.775682
	   36 B(9,8,10)       =    110.863663     0.000001     0.002487   110.866150
	   37 B(9,8,11)       =    111.545522     0.000001     0.004691   111.550213
	   38 B(9,12,15)      =    112.558203     0.000002     0.004762   112.562965
	   39 B(9,12,16)      =    109.187442     0.000001     0.009080   109.196522
	   40 B(9,12,17)      =    109.348376    -0.000002    -0.010415   109.337961
	   41 B(10,8,11)      =    108.549677    -0.000002    -0.015713   108.533963
	   42 B(12,9,13)      =    109.587427     0.000000     0.007832   109.595259
	   43 B(12,9,14)      =    109.936914     0.000000    -0.006063   109.930851
	   44 B(12,15,18)     =    111.139498     0.000001     0.002125   111.141623
	   45 B(12,15,19)     =    111.285382    -0.000002    -0.004936   111.280447
	   46 B(12,15,20)     =    111.143869     0.000002     0.003172   111.147040
	   47 B(13,9,14)      =    106.735355     0.000000     0.001859   106.737214
	   48 B(15,12,16)     =    109.391292     0.000001     0.008803   109.400095
	   49 B(15,12,17)     =    109.633099    -0.000001    -0.009969   109.623130
	   50 B(16,12,17)     =    106.540574    -0.000000    -0.002590   106.537984
	   51 B(18,15,19)     =    107.720496     0.000001     0.000512   107.721008
	   52 B(18,15,20)     =    107.699196    -0.000001    -0.001036   107.698160
	   53 B(19,15,20)     =    107.678866     0.000000     0.000145   107.679011
	   54 D(1,2,3,5)      =   -120.615377    -0.000000    -0.004950  -120.620327
	   55 D(1,2,3,6)      =      0.283865    -0.000000    -0.004107     0.279757
	   56 D(1,2,3,7)      =    121.307550    -0.000000    -0.004252   121.303298
	   57 D(1,2,4,8)      =     -1.694616    -0.000000    -0.021925    -1.716541
	   58 D(2,4,8,9)      =   -159.688654    -0.000001    -0.009377  -159.698031
	   59 *D(2,4,8,10)    =     79.999994     0.000000    -0.000000    79.999994
	   60 D(2,4,8,11)     =    -38.087176    -0.000000     0.010688   -38.076487
	   61 D(3,2,4,8)      =    178.444427    -0.000000    -0.033351   178.411076
	   62 D(4,2,3,5)      =     59.243797     0.000000     0.006656    59.250453
	   63 D(4,2,3,6)      =   -179.856962     0.000000     0.007499  -179.849463
	   64 D(4,2,3,7)      =    -58.833277     0.000000     0.007354   -58.825922
	   65 D(4,8,9,12)     =    -63.381540     0.000001     0.119590   -63.261950
	   66 D(4,8,9,13)     =    174.938622     0.000001     0.098056   175.036678
	   67 D(4,8,9,14)     =     59.732940     0.000001     0.096350    59.829290
	   68 D(8,9,12,15)    =   -178.347450    -0.000001    -0.635158  -178.982608
	   69 D(8,9,12,16)    =    -56.663802    -0.000001    -0.614414   -57.278217
	   70 D(8,9,12,17)    =     59.547212    -0.000001    -0.618251    58.928961
	   71 D(9,12,15,18)   =    179.705330     0.000001     0.223964   179.929295
	   72 D(9,12,15,19)   =     59.648129     0.000001     0.225202    59.873331
	   73 D(9,12,15,20)   =    -60.359304     0.000001     0.226199   -60.133106
	   74 D(10,8,9,12)    =     55.379603     0.000000     0.098569    55.478173
	   75 D(10,8,9,13)    =    -66.300234    -0.000000     0.077035   -66.223199
	   76 D(10,8,9,14)    =    178.494083    -0.000000     0.075330   178.569412
	   77 D(11,8,9,12)    =    176.477977     0.000000     0.083477   176.561453
	   78 D(11,8,9,13)    =     54.798139    -0.000000     0.061942    54.860082
	   79 D(11,8,9,14)    =    -60.407544    -0.000000     0.060237   -60.347307
	   80 D(13,9,12,15)   =    -57.852088    -0.000001    -0.607995   -58.460083
	   81 D(13,9,12,16)   =     63.831559    -0.000000    -0.587251    63.244308
	   82 D(13,9,12,17)   =   -179.957426    -0.000000    -0.591088  -180.548513
	   83 D(14,9,12,15)   =     59.161001    -0.000001    -0.604672    58.556329
	   84 D(14,9,12,16)   =   -179.155351     0.000000    -0.583928  -179.739280
	   85 D(14,9,12,17)   =    -62.944336    -0.000000    -0.587765   -63.532102
	   86 D(16,12,15,18)  =     58.137536    -0.000000     0.203026    58.340563
	   87 D(16,12,15,19)  =    -61.919665    -0.000000     0.204264   -61.715401
	   88 D(16,12,15,20)  =    178.072902     0.000000     0.205261   178.278162
	   89 D(17,12,15,18)  =    -58.350449     0.000000     0.206790   -58.143659
	   90 D(17,12,15,19)  =   -178.407650     0.000000     0.208027  -178.199623
	   91 D(17,12,15,20)  =     61.584916     0.000000     0.209024    61.793940
	 ---------------------------------------------------------------------------

  ==> Convergence Check <==

  Measures of convergence in internal coordinates in au.
  Criteria marked as inactive (o), active & met (*), and active & unmet ( ).
  ---------------------------------------------------------------------------------------------
   Step     Total Energy     Delta E     MAX Force     RMS Force      MAX Disp      RMS Disp   
  ---------------------------------------------------------------------------------------------
    Convergence Criteria    1.00e-06 *    3.00e-04 *             o    1.20e-03 *             o
  ---------------------------------------------------------------------------------------------
      6    -383.94499789    8.02e-07 *    1.06e-04 *    3.41e-05 o    1.11e-02      3.55e-03 o  ~
  ---------------------------------------------------------------------------------------------


  **** Optimization is complete! (in 6 steps) ****

  ==> Optimization Summary <==

  Measures of convergence in internal coordinates in au.
  --------------------------------------------------------------------------------------------------------------- ~
   Step         Total Energy             Delta E       MAX Force       RMS Force        MAX Disp        RMS Disp  ~
  --------------------------------------------------------------------------------------------------------------- ~
      1    -383.944863987960   -383.944863987960      0.00540467      0.00080899      0.06494395      0.01313384  ~
      2    -383.944890425107     -0.000026437146      0.00349222      0.00065485      0.04950683      0.01309852  ~
      3    -383.944715156192      0.000175268914      0.00294876      0.00075533      0.04484520      0.01094973  ~
      4    -383.944988521919     -0.000273365726      0.00101746      0.00022517      0.01033217      0.00367493  ~
      5    -383.944998693937     -0.000010172018      0.00015870      0.00003428      0.01975656      0.00632017  ~
      6    -383.944997891932      0.000000802005      0.00010644      0.00003407      0.01108560      0.00354795  ~
  --------------------------------------------------------------------------------------------------------------- ~

	Writing optimization data to binary file.
	Final energy is   -383.9449978919324
	Final (previous) structure:
	Cartesian Geometry (in Angstrom)
	    O    -2.4866420236  -1.0247260188   0.1677069673
	    C    -1.9340995320   0.0272885683   0.1751484241
	    C    -2.6188376395   1.3583902728   0.3311174554
	    O    -0.6231888263   0.1733525586   0.0424191373
	    H    -2.4177988088   1.9765364988  -0.5363122716
	    H    -3.6825793984   1.2081885555   0.4394296843
	    H    -2.2253913145   1.8735402978   1.1997515237
	    C     0.1772555512  -0.9994742298  -0.0819687098
	    C     1.6062250098  -0.6400592421   0.2838400563
	    H     0.1170380646  -1.3476834690  -1.1064359090
	    H    -0.2162829082  -1.7679178269   0.5655158840
	    C     2.2504323635   0.3843913795  -0.6518398827
	    H     2.1872590110  -1.5601406353   0.2729460498
	    H     1.6237577556  -0.2708883414   1.3060565963
	    C     3.6997281753   0.6908880940  -0.2768045817
	    H     2.2129427713   0.0095562787  -1.6727452912
	    H     1.6686675074   1.3001381221  -0.6374469891
	    H     4.1353973512   1.4153286731  -0.9575651975
	    H     4.3136000264  -0.2049153391  -0.3099803487
	    H     3.7665655116   1.0996069450   0.7274744159
	Saving final (previous) structure.
			--------------------------
			 OPTKING Finished Execution 
			--------------------------

    Final optimized geometry and variables:
    Molecular point group: c1
    Full point group: C1

    Geometry (in Angstrom), charge = 0, multiplicity = 1:

    O           -2.486641833725    -1.024725940537     0.167706954468
    C           -1.934099384324     0.027288566257     0.175148410761
    C           -2.618837439503     1.358390169093     0.331117430114
    O           -0.623188778734     0.173352545408     0.042419134072
    H           -2.417798624201     1.976536347825    -0.536312230695
    H           -3.682579117233     1.208188463242     0.439429650789
    H           -2.225391144603     1.873540154764     1.199751432046
    C            0.177255537699    -0.999474153455    -0.081968703518
    C            1.606224887109    -0.640059193242     0.283840034587
    H            0.117038055710    -1.347683366036    -1.106435824466
    H           -0.216282891693    -1.767917691934     0.565515840797
    C            2.250432191693     0.384391350178    -0.651839832940
    H            2.187258843963    -1.560140516133     0.272946028980
    H            1.623757631561    -0.270888320689     1.306056496520
    C            3.699727892759     0.690888041246    -0.276804560600
    H            2.212942602294     0.009556277926    -1.672745163432
    H            1.668667379972     1.300138022809    -0.637446940416
    H            4.135397035374     1.415328564974    -0.957565124341
    H            4.313599697037    -0.204915323476    -0.309980324982
    H            3.766565223978     1.099606860985     0.727474360375

	Cleaning optimization helper files.


Properties will be evaluated at   0.000000,   0.000000,   0.000000 Bohr

Properties computed using the  density matrix

  Nuclear Dipole Moment: (a.u.)
     X:    10.7502      Y:     3.4939      Z:    -0.6639

  Electronic Dipole Moment: (a.u.)
     X:   -10.1148      Y:    -2.9013      Z:     0.6692

  Dipole Moment: (a.u.)
     X:     0.6354      Y:     0.5926      Z:     0.0052     Total:     0.8689

  Dipole Moment: (Debye)
     X:     1.6150      Y:     1.5063      Z:     0.0133     Total:     2.2085

  Quadrupole Moment: (Debye Ang)
    XX:   -53.9530     YY:   -50.2643     ZZ:   -48.8268
    XY:    -8.0963     XZ:    -0.2529     YZ:     0.6722

  Traceless Quadrupole Moment: (Debye Ang)
    XX:    -2.9383     YY:     0.7504     ZZ:     2.1879
    XY:    -8.0963     XZ:    -0.2529     YZ:     0.6722

  Mulliken Charges: (a.u.)
   Center  Symbol    Alpha    Beta     Spin     Total
       1     O     4.28316  4.28316  0.00000 -0.56633
       2     C     2.61930  2.61930  0.00000  0.76140
       3     C     3.28184  3.28184  0.00000 -0.56367
       4     O     4.30901  4.30901  0.00000 -0.61803
       5     H     0.40049  0.40049  0.00000  0.19901
       6     H     0.39692  0.39692  0.00000  0.20616
       7     H     0.40095  0.40095  0.00000  0.19810
       8     C     3.00482  3.00482  0.00000 -0.00964
       9     C     3.16391  3.16391  0.00000 -0.32782
      10     H     0.41498  0.41498  0.00000  0.17004
      11     H     0.40093  0.40093  0.00000  0.19815
      12     C     3.15492  3.15492  0.00000 -0.30983
      13     H     0.41863  0.41863  0.00000  0.16273
      14     H     0.41543  0.41543  0.00000  0.16915
      15     C     3.24037  3.24037  0.00000 -0.48073
      16     H     0.42313  0.42313  0.00000  0.15375
      17     H     0.41121  0.41121  0.00000  0.17757
      18     H     0.41759  0.41759  0.00000  0.16481
      19     H     0.42173  0.42173  0.00000  0.15653
      20     H     0.42068  0.42068  0.00000  0.15865

   Total alpha = 32.00000, Total beta = 32.00000, Total charge = -0.00000


*** PSI4 exiting successfully. Buy a developer a beer!
