    -----------------------------------------------------------------------
          Psi4: An Open-Source Ab Initio Electronic Structure Package
                              Psi4 (no tag) Driver

                          Git: Rev {detached?}  

    J. M. Turney, A. C. Simmonett, R. M. Parrish, E. G. Hohenstein,
    F. A. Evangelista, J. T. Fermann, B. J. Mintz, L. A. Burns, J. J. Wilke,
    M. L. Abrams, N. J. Russ, M. L. Leininger, C. L. Janssen, E. T. Seidl,
    W. D. Allen, H. F. Schaefer, R. A. King, E. F. Valeev, C. D. Sherrill,
    and T. D. Crawford, WIREs Comput. Mol. Sci. 2, 556-565 (2012)
    (doi: 10.1002/wcms.93)

                         Additional Contributions by
    A. E. DePrince, M. Saitow, U. Bozkaya, A. Yu. Sokolov
    -----------------------------------------------------------------------


    Psi4 started on: Fri Sep  2 12:54:31 2016

    Process ID:  12180
    PSI4DATADIR: /export131/home/mjharvey/miniconda3/share
    Memory level set to 256.000 MB

  ==> Input File <==

--------------------------------------------------------------------------
set {
	reference rhf
	basis 6-31G*
}


set_num_threads( 4 )
memory 2 gb

molecule MOL {
0 1

O	 -2.324811	 1.361668	 -0.277141
C	 -2.105949	 0.203097	 -0.092081
C	 -0.889235	 -0.467034	 -0.705952
C	 -3.002726	 -0.644460	 0.782455
C	 -0.100563	 -1.250060	 0.356126
H	 -0.259998	 0.311889	 -1.122657
H	 -1.185093	 -1.130978	 -1.513214
C	 1.152083	 -1.911805	 -0.223172
H	 0.163664	 -0.565368	 1.154102
H	 -0.738583	 -2.014794	 0.796421
C	 1.939111	 -2.764180	 0.778875
H	 1.805722	 -1.143853	 -0.632722
H	 0.860292	 -2.542294	 -1.060544
C	 2.577497	 -1.972421	 1.921494
H	 2.721679	 -3.291024	 0.238768
H	 1.285630	 -3.531191	 1.189659
H	 3.228540	 -1.191161	 1.538740
H	 3.177374	 -2.622333	 2.550907
H	 1.834062	 -1.501856	 2.556051
H	 -3.496582	 -1.399307	 0.176174
H	 -3.747939	 -0.023774	 1.260148
H	 -2.421318	 -1.168775	 1.535358

	symmetry c1
}
set optking {
	frozen_dihedral = ("
		6 3 2 1
	")
}

ee = optimize('scf')
oeprop('DIPOLE', 'QUADRUPOLE', 'MULLIKEN_CHARGES')
f=open( 'psi4out.xyz', 'w' )
f.write( "22  " )
f.write( str(ee) + "\n" )
f.write( MOL.save_string_xyz() )
f.close()
--------------------------------------------------------------------------

  Memory set to   2.000 GiB by Python script.
gradient() will perform analytic gradient computation.

*** tstart() called on cx1-5-5-4.cx1.hpc.ic.ac.uk
*** at Fri Sep  2 12:54:32 2016


         ---------------------------------------------------------
                                   SCF
            by Justin Turney, Rob Parrish, and Andy Simmonett
                              RHF Reference
                        4 Threads,   2000 MiB Core
         ---------------------------------------------------------

  ==> Geometry <==

    Molecular point group: c1
    Full point group: C1

    Geometry (in Angstrom), charge = 0, multiplicity = 1:

       Center              X                  Y                   Z               Mass       
    ------------   -----------------  -----------------  -----------------  -----------------
           O         -1.982231658093     2.289660723111    -0.611177931789    15.994914619560
           C         -1.763369658093     1.131089723111    -0.426117931789    12.000000000000
           C         -0.546655658093     0.460958723111    -1.039988931789    12.000000000000
           C         -2.660146658093     0.283532723111     0.448418068211    12.000000000000
           C          0.242016341907    -0.322067276889     0.022089068211    12.000000000000
           H          0.082581341907     1.239881723111    -1.456693931789     1.007825032070
           H         -0.842513658093    -0.202985276889    -1.847250931789     1.007825032070
           C          1.494662341907    -0.983812276889    -0.557208931789    12.000000000000
           H          0.506243341907     0.362624723111     0.820065068211     1.007825032070
           H         -0.396003658093    -1.086801276889     0.462384068211     1.007825032070
           C          2.281690341907    -1.836187276889     0.444838068211    12.000000000000
           H          2.148301341907    -0.215860276889    -0.966758931789     1.007825032070
           H          1.202871341907    -1.614301276889    -1.394580931789     1.007825032070
           C          2.920076341907    -1.044428276889     1.587457068211    12.000000000000
           H          3.064258341907    -2.363031276889    -0.095268931789     1.007825032070
           H          1.628209341907    -2.603198276889     0.855622068211     1.007825032070
           H          3.571119341907    -0.263168276889     1.204703068211     1.007825032070
           H          3.519953341907    -1.694340276889     2.216870068211     1.007825032070
           H          2.176641341907    -0.573863276889     2.222014068211     1.007825032070
           H         -3.154002658093    -0.471314276889    -0.157862931789     1.007825032070
           H         -3.405359658093     0.904218723111     0.926111068211     1.007825032070
           H         -2.078738658093    -0.240782276889     1.201321068211     1.007825032070

  Running in c1 symmetry.

  Rotational constants: A =      0.14700  B =      0.02532  C =      0.02467 [cm^-1]
  Rotational constants: A =   4406.82146  B =    759.10962  C =    739.63331 [MHz]
  Nuclear repulsion =  374.446949294746503

  Charge       = 0
  Multiplicity = 1
  Electrons    = 64
  Nalpha       = 32
  Nbeta        = 32

  ==> Algorithm <==

  SCF Algorithm Type is DF.
  DIIS enabled.
  MOM disabled.
  Fractional occupation disabled.
  Guess Type is CORE.
  Energy threshold   = 1.00e-08
  Density threshold  = 1.00e-08
  Integral threshold = 0.00e+00

  ==> Primary Basis <==

  Basis Set: 6-31G*
    Number of shells: 76
    Number of basis function: 148
    Number of Cartesian functions: 148
    Spherical Harmonics?: false
    Max angular momentum: 2

  ==> Pre-Iterations <==

   -------------------------------------------------------
    Irrep   Nso     Nmo     Nalpha   Nbeta   Ndocc  Nsocc
   -------------------------------------------------------
     A        148     148       0       0       0       0
   -------------------------------------------------------
    Total     148     148      32      32      32       0
   -------------------------------------------------------

 OEINTS: Overlap, kinetic, potential, dipole, and quadrupole integrals
         stored in file 35.

  ==> Integral Setup <==

  ==> DFJK: Density-Fitted J/K Matrices <==

    J tasked:                  Yes
    K tasked:                  Yes
    wK tasked:                  No
    OpenMP threads:              4
    Integrals threads:           4
    Memory (MB):              1430
    Algorithm:                Core
    Integral Cache:           NONE
    Schwarz Cutoff:          1E-12
    Fitting Condition:       1E-12

   => Auxiliary Basis Set <=

  Basis Set: 
    Number of shells: 318
    Number of basis function: 998
    Number of Cartesian functions: 998
    Spherical Harmonics?: false
    Max angular momentum: 3

  Minimum eigenvalue in the overlap matrix is 3.0923927962E-03.
  Using Symmetric Orthogonalization.
  SCF Guess: Core (One-Electron) Hamiltonian.

  ==> Iterations <==

                           Total Energy        Delta E     RMS |[F,P]|

   @DF-RHF iter   1:  -264.48631627858771   -2.64486e+02   6.24721e-02 
   @DF-RHF iter   2:  -175.99658103752250    8.84897e+01   6.96348e-02 DIIS
   @DF-RHF iter   3:  -289.53994478106216   -1.13543e+02   3.52812e-02 DIIS
   @DF-RHF iter   4:  -181.40071337604780    1.08139e+02   7.36505e-02 DIIS
   @DF-RHF iter   5:  -264.81069576189128   -8.34100e+01   5.31777e-02 DIIS
   @DF-RHF iter   6:  -331.72931380447716   -6.69186e+01   2.47960e-02 DIIS
   @DF-RHF iter   7:  -347.31769946815433   -1.55884e+01   8.25661e-03 DIIS
   @DF-RHF iter   8:  -347.99204870171928   -6.74349e-01   3.26257e-03 DIIS
   @DF-RHF iter   9:  -348.08700313301796   -9.49544e-02   7.17582e-04 DIIS
   @DF-RHF iter  10:  -348.09341784598945   -6.41471e-03   2.97291e-04 DIIS
   @DF-RHF iter  11:  -348.09470052027558   -1.28267e-03   6.32043e-05 DIIS
   @DF-RHF iter  12:  -348.09479977162908   -9.92514e-05   1.77681e-05 DIIS
   @DF-RHF iter  13:  -348.09480923500684   -9.46338e-06   7.78691e-06 DIIS
   @DF-RHF iter  14:  -348.09481166879976   -2.43379e-06   3.47957e-06 DIIS
   @DF-RHF iter  15:  -348.09481235225570   -6.83456e-07   1.71913e-06 DIIS
   @DF-RHF iter  16:  -348.09481257137526   -2.19120e-07   5.67469e-07 DIIS
   @DF-RHF iter  17:  -348.09481259325338   -2.18781e-08   1.85654e-07 DIIS
   @DF-RHF iter  18:  -348.09481259449768   -1.24430e-09   7.43623e-08 DIIS
   @DF-RHF iter  19:  -348.09481259467731   -1.79625e-10   2.53289e-08 DIIS
   @DF-RHF iter  20:  -348.09481259469629   -1.89857e-11   6.60250e-09 DIIS

  ==> Post-Iterations <==

    Orbital Energies (a.u.)
    -----------------------

    Doubly Occupied:                                                      

       1A    -20.547589     2A    -11.324025     3A    -11.231346  
       4A    -11.229498     5A    -11.227023     6A    -11.224494  
       7A    -11.222914     8A    -11.214228     9A     -1.392677  
      10A     -1.100005    11A     -1.047620    12A     -0.995722  
      13A     -0.940138    14A     -0.861689    15A     -0.789734  
      16A     -0.733275    17A     -0.662417    18A     -0.647684  
      19A     -0.632694    20A     -0.616588    21A     -0.602775  
      22A     -0.587349    23A     -0.557981    24A     -0.540115  
      25A     -0.532390    26A     -0.526749    27A     -0.497949  
      28A     -0.487005    29A     -0.472832    30A     -0.469057  
      31A     -0.463555    32A     -0.396255  

    Virtual:                                                              

      33A      0.169711    34A      0.218904    35A      0.239309  
      36A      0.258045    37A      0.263003    38A      0.290294  
      39A      0.300459    40A      0.305602    41A      0.307348  
      42A      0.316585    43A      0.333149    44A      0.335352  
      45A      0.354422    46A      0.358444    47A      0.366863  
      48A      0.379339    49A      0.406370    50A      0.429737  
      51A      0.440152    52A      0.444974    53A      0.522230  
      54A      0.529404    55A      0.696129    56A      0.715996  
      57A      0.723087    58A      0.724051    59A      0.749485  
      60A      0.774861    61A      0.798616    62A      0.810667  
      63A      0.830859    64A      0.867873    65A      0.906189  
      66A      0.924050    67A      0.940600    68A      0.961799  
      69A      0.984575    70A      0.998560    71A      0.999439  
      72A      1.048339    73A      1.079576    74A      1.097972  
      75A      1.117003    76A      1.123611    77A      1.139378  
      78A      1.150203    79A      1.152485    80A      1.171321  
      81A      1.178183    82A      1.194384    83A      1.199371  
      84A      1.207641    85A      1.211391    86A      1.225306  
      87A      1.251353    88A      1.261639    89A      1.270038  
      90A      1.301096    91A      1.306965    92A      1.379991  
      93A      1.389143    94A      1.464495    95A      1.482708  
      96A      1.565938    97A      1.651115    98A      1.708011  
      99A      1.726007   100A      1.786676   101A      1.833829  
     102A      1.845276   103A      1.923245   104A      1.949103  
     105A      1.985787   106A      2.023951   107A      2.085857  
     108A      2.097165   109A      2.130212   110A      2.158744  
     111A      2.201215   112A      2.216441   113A      2.233919  
     114A      2.262730   115A      2.282658   116A      2.312618  
     117A      2.322795   118A      2.347233   119A      2.376762  
     120A      2.416991   121A      2.458314   122A      2.515446  
     123A      2.546923   124A      2.585720   125A      2.648758  
     126A      2.672685   127A      2.680479   128A      2.723429  
     129A      2.752495   130A      2.777914   131A      2.785214  
     132A      2.868103   133A      2.934882   134A      2.956751  
     135A      2.998276   136A      3.043684   137A      3.097966  
     138A      3.157708   139A      3.371417   140A      3.398121  
     141A      4.411874   142A      4.537965   143A      4.597438  
     144A      4.697449   145A      4.780127   146A      4.832638  
     147A      4.904744   148A      5.015455  

    Final Occupation by Irrep:
              A 
    DOCC [    32 ]

  Energy converged.

  @DF-RHF Final Energy:  -348.09481259469629

   => Energetics <=

    Nuclear Repulsion Energy =            374.4469492947465028
    One-Electron Energy =               -1213.5327816127953611
    Two-Electron Energy =                 490.9910197233525651
    DFT Exchange-Correlation Energy =       0.0000000000000000
    Empirical Dispersion Energy =           0.0000000000000000
    PCM Polarization Energy =               0.0000000000000000
    EFP Energy =                            0.0000000000000000
    Total Energy =                       -348.0948125946963501

    Alert: EFP and PCM quantities not currently incorporated into SCF psivars.

Properties will be evaluated at   0.000000,   0.000000,   0.000000 Bohr
  ==> Properties <==


Properties computed using the SCF density matrix

  Nuclear Dipole Moment: (a.u.)
     X:     7.5123      Y:    -8.2602      Z:     3.7382

  Electronic Dipole Moment: (a.u.)
     X:    -7.1706      Y:     7.0135      Z:    -3.5377

  Dipole Moment: (a.u.)
     X:     0.3417      Y:    -1.2468      Z:     0.2005     Total:     1.3082

  Dipole Moment: (Debye)
     X:     0.8685      Y:    -3.1689      Z:     0.5096     Total:     3.3251


  Saving occupied orbitals to File 180.

*** tstop() called on cx1-5-5-4.cx1.hpc.ic.ac.uk at Fri Sep  2 12:54:39 2016
Module time:
	user time   =      22.82 seconds =       0.38 minutes
	system time =       0.32 seconds =       0.01 minutes
	total time  =          7 seconds =       0.12 minutes
Total time:
	user time   =      22.82 seconds =       0.38 minutes
	system time =       0.32 seconds =       0.01 minutes
	total time  =          7 seconds =       0.12 minutes

*** tstart() called on cx1-5-5-4.cx1.hpc.ic.ac.uk
*** at Fri Sep  2 12:54:39 2016


         ------------------------------------------------------------
                                   SCF GRAD                          
                          Rob Parrish, Justin Turney,                
                       Andy Simmonett, and Alex Sokolov              
         ------------------------------------------------------------

  ==> Geometry <==

    Molecular point group: c1
    Full point group: C1

    Geometry (in Angstrom), charge = 0, multiplicity = 1:

       Center              X                  Y                   Z               Mass       
    ------------   -----------------  -----------------  -----------------  -----------------
           O         -1.982231658093     2.289660723111    -0.611177931789    15.994914619560
           C         -1.763369658093     1.131089723111    -0.426117931789    12.000000000000
           C         -0.546655658093     0.460958723111    -1.039988931789    12.000000000000
           C         -2.660146658093     0.283532723111     0.448418068211    12.000000000000
           C          0.242016341907    -0.322067276889     0.022089068211    12.000000000000
           H          0.082581341907     1.239881723111    -1.456693931789     1.007825032070
           H         -0.842513658093    -0.202985276889    -1.847250931789     1.007825032070
           C          1.494662341907    -0.983812276889    -0.557208931789    12.000000000000
           H          0.506243341907     0.362624723111     0.820065068211     1.007825032070
           H         -0.396003658093    -1.086801276889     0.462384068211     1.007825032070
           C          2.281690341907    -1.836187276889     0.444838068211    12.000000000000
           H          2.148301341907    -0.215860276889    -0.966758931789     1.007825032070
           H          1.202871341907    -1.614301276889    -1.394580931789     1.007825032070
           C          2.920076341907    -1.044428276889     1.587457068211    12.000000000000
           H          3.064258341907    -2.363031276889    -0.095268931789     1.007825032070
           H          1.628209341907    -2.603198276889     0.855622068211     1.007825032070
           H          3.571119341907    -0.263168276889     1.204703068211     1.007825032070
           H          3.519953341907    -1.694340276889     2.216870068211     1.007825032070
           H          2.176641341907    -0.573863276889     2.222014068211     1.007825032070
           H         -3.154002658093    -0.471314276889    -0.157862931789     1.007825032070
           H         -3.405359658093     0.904218723111     0.926111068211     1.007825032070
           H         -2.078738658093    -0.240782276889     1.201321068211     1.007825032070

  Nuclear repulsion =  374.446949294746446

  ==> Basis Set <==

  Basis Set: 6-31G*
    Number of shells: 76
    Number of basis function: 148
    Number of Cartesian functions: 148
    Spherical Harmonics?: false
    Max angular momentum: 2

  ==> DFJKGrad: Density-Fitted SCF Gradients <==

    Gradient:                    1
    J tasked:                  Yes
    K tasked:                  Yes
    wK tasked:                  No
    OpenMP threads:              4
    Integrals threads:           4
    Memory (MB):              1430
    Schwarz Cutoff:          0E+00
    Fitting Condition:       1E-12

   => Auxiliary Basis Set <=

  Basis Set: 
    Number of shells: 318
    Number of basis function: 998
    Number of Cartesian functions: 998
    Spherical Harmonics?: false
    Max angular momentum: 3


  -Total Gradient:
     Atom            X                  Y                   Z
    ------   -----------------  -----------------  -----------------
       1        0.002121351123     0.000280339120    -0.000573459078
       2       -0.002320317495    -0.003842765432     0.002694008048
       3       -0.004200674984     0.000608104957    -0.008308566830
       4        0.001275975395     0.001287426034    -0.001109254635
       5       -0.000856321281     0.004835944873     0.005160281159
       6        0.002867361712     0.000152307512     0.001869953349
       7        0.002640069028     0.000360156125     0.000157316613
       8       -0.000902252056    -0.000958743961    -0.001283108276
       9       -0.001375719644    -0.000031125625    -0.001872560386
      10       -0.004579743481    -0.000169289159     0.001842801396
      11       -0.000153264269    -0.000021059103     0.000330630005
      12       -0.000170927755     0.000234072186     0.000184182728
      13        0.000416132792    -0.000241796806    -0.000110930148
      14       -0.000163708933     0.000147791359     0.000110652554
      15       -0.000037917424     0.000020822107    -0.000132880652
      16       -0.000026871669     0.000034431053    -0.000024266856
      17        0.000018239135     0.000031023304    -0.000002314259
      18        0.000035944244    -0.000063345656    -0.000026343274
      19        0.000064841082    -0.000030172313    -0.000131010951
      20        0.000330266852     0.000453481057    -0.000053167359
      21        0.000111962693    -0.000355149968     0.001000084053
      22        0.004905574937    -0.002732451661     0.000277952800


*** tstop() called on cx1-5-5-4.cx1.hpc.ic.ac.uk at Fri Sep  2 12:54:47 2016
Module time:
	user time   =      27.34 seconds =       0.46 minutes
	system time =       0.24 seconds =       0.00 minutes
	total time  =          8 seconds =       0.13 minutes
Total time:
	user time   =      50.18 seconds =       0.84 minutes
	system time =       0.56 seconds =       0.01 minutes
	total time  =         15 seconds =       0.25 minutes
CURRENT ENERGY: -348.0948125947

			-----------------------------------------
			 OPTKING 2.0: for geometry optimizations 
			  - R.A. King,  Bethel University        
			-----------------------------------------

	Internal coordinates to be generated automatically.
	Detected frag with atoms:  1 2 3 4 5 6 7 8 9 10 11 12 13 14 15 16 17 18 19 20
	 21 22
	---Fragment 1 Bond Connectivity---
	 1 : 2
	 2 : 1 3 4
	 3 : 2 5 6 7
	 4 : 2 20 21 22
	 5 : 3 8 9 10
	 6 : 3
	 7 : 3
	 8 : 5 11 12 13
	 9 : 5
	 10 : 5
	 11 : 8 14 15 16
	 12 : 8
	 13 : 8
	 14 : 11 17 18 19
	 15 : 11
	 16 : 11
	 17 : 14
	 18 : 14
	 19 : 14
	 20 : 4
	 21 : 4
	 22 : 4

	Assuming in current code that numbering for constraints corresponds to unified fragment.
	Frozen dihedral atom list: 
	     6     3     2     1
	---Fragment 1 Geometry and Gradient---
	 O          -3.7458749657        4.3268317039       -1.1549589095
	 C          -3.3322857248        2.1374498084       -0.8052461914
	 C          -1.0330294828        0.8710857452       -1.9652942623
	 C          -5.0269486571        0.5357991964        0.8473873420
	 C           0.4573446059       -0.6086189497        0.0417422894
	 H           0.1560561199        2.3430368939       -2.7527525905
	 H          -1.5921200770       -0.3835865823       -3.4907983598
	 C           2.8245024873       -1.8591357695       -1.0529722799
	 H           0.9566612728        0.6852614157        1.5496983901
	 H          -0.7483384614       -2.0537567742        0.8737792571
	 C           4.3117698663       -3.4698910820        0.8406221224
	 H           4.0597011871       -0.4079168063       -1.8269096176
	 H           2.2730974093       -3.0505873093       -2.6353760312
	 C           5.5181445733       -1.9736834088        2.9998591066
	 H           5.7906090666       -4.4654819568       -0.1800321901
	 H           3.0768697432       -4.9193318129        1.6168913822
	 H           6.7484375441       -0.4973159702        2.2765588704
	 H           6.6517478167       -3.2018390992        4.1892773011
	 H           4.1132560257       -1.0844444310        4.1989980523
	 H          -5.9602012462       -0.8906549058       -0.2983177076
	 H          -6.4351971378        1.7087257509        1.7500962876
	 H          -3.9282467656       -0.4550125610        2.2701678166
	             0.0021213511        0.0002803391       -0.0005734591
	            -0.0023203175       -0.0038427654        0.0026940080
	            -0.0042006750        0.0006081050       -0.0083085668
	             0.0012759754        0.0012874260       -0.0011092546
	            -0.0008563213        0.0048359449        0.0051602812
	             0.0028673617        0.0001523075        0.0018699533
	             0.0026400690        0.0003601561        0.0001573166
	            -0.0009022521       -0.0009587440       -0.0012831083
	            -0.0013757196       -0.0000311256       -0.0018725604
	            -0.0045797435       -0.0001692892        0.0018428014
	            -0.0001532643       -0.0000210591        0.0003306300
	            -0.0001709278        0.0002340722        0.0001841827
	             0.0004161328       -0.0002417968       -0.0001109301
	            -0.0001637089        0.0001477914        0.0001106526
	            -0.0000379174        0.0000208221       -0.0001328807
	            -0.0000268717        0.0000344311       -0.0000242669
	             0.0000182391        0.0000310233       -0.0000023143
	             0.0000359442       -0.0000633457       -0.0000263433
	             0.0000648411       -0.0000301723       -0.0001310110
	             0.0003302669        0.0004534811       -0.0000531674
	             0.0001119627       -0.0003551500        0.0010000841
	             0.0049055749       -0.0027324517        0.0002779528

	Previous optimization step data not found.  Starting new optimization.

	---Fragment 1 Intrafragment Coordinates---
	 - Coordinate -           - BOHR/RAD -       - ANG/DEG -
	 R(1,2)           =         2.255382	       1.193497
	 R(2,3)           =         2.869838	       1.518653
	 R(2,4)           =         2.858035	       1.512407
	 R(3,5)           =         2.904985	       1.537252
	 R(3,6)           =         2.049550	       1.084575
	 R(3,7)           =         2.052790	       1.086290
	 R(4,20)          =         2.053868	       1.086860
	 R(4,21)          =         2.042989	       1.081103
	 R(4,22)          =         2.052598	       1.086188
	 R(5,8)           =         2.892340	       1.530560
	 R(5,9)           =         2.048750	       1.084152
	 R(5,10)          =         2.057761	       1.088920
	 R(8,11)          =         2.896929	       1.532989
	 R(8,12)          =         2.056874	       1.088451
	 R(8,13)          =         2.056114	       1.088049
	 R(11,14)         =         2.890723	       1.529705
	 R(11,15)         =         2.054240	       1.087057
	 R(11,16)         =         2.056320	       1.088158
	 R(14,17)         =         2.053398	       1.086612
	 R(14,18)         =         2.051375	       1.085541
	 R(14,19)         =         2.049974	       1.084799
	 B(1,2,3)         =         2.109002	     120.836901
	 B(1,2,4)         =         2.123429	     121.663522
	 B(2,3,5)         =         1.935348	     110.887289
	 B(2,3,6)         =         1.878862	     107.650836
	 B(2,3,7)         =         1.930384	     110.602876
	 B(2,4,20)        =         1.913548	     109.638235
	 B(2,4,21)        =         1.920355	     110.028217
	 B(2,4,22)        =         1.932574	     110.728359
	 B(3,2,4)         =         2.050490	     117.484400
	 B(3,5,8)         =         1.959098	     112.248024
	 B(3,5,9)         =         1.887959	     108.172058
	 B(3,5,10)        =         1.913971	     109.662447
	 B(5,3,6)         =         1.910935	     109.488482
	 B(5,3,7)         =         1.919661	     109.988498
	 B(5,8,11)        =         1.996731	     114.404252
	 B(5,8,12)        =         1.905880	     109.198885
	 B(5,8,13)        =         1.898996	     108.804476
	 B(6,3,7)         =         1.887512	     108.146487
	 B(8,5,9)         =         1.930684	     110.620023
	 B(8,5,10)        =         1.905968	     109.203934
	 B(8,11,14)       =         1.998424	     114.501233
	 B(8,11,15)       =         1.890512	     108.318379
	 B(8,11,16)       =         1.907490	     109.291121
	 B(9,5,10)        =         1.863681	     106.781075
	 B(11,8,12)       =         1.907041	     109.265387
	 B(11,8,13)       =         1.894989	     108.574894
	 B(11,14,17)      =         1.938068	     111.043091
	 B(11,14,18)      =         1.932462	     110.721893
	 B(11,14,19)      =         1.955680	     112.052208
	 B(12,8,13)       =         1.854911	     106.278600
	 B(14,11,15)      =         1.898157	     108.756384
	 B(14,11,16)      =         1.910785	     109.479913
	 B(15,11,16)      =         1.852791	     106.157127
	 B(17,14,18)      =         1.879265	     107.673961
	 B(17,14,19)      =         1.880497	     107.744554
	 B(18,14,19)      =         1.874705	     107.412664
	 B(20,4,21)       =         1.909227	     109.390662
	 B(20,4,22)       =         1.869868	     107.135566
	 B(21,4,22)       =         1.917528	     109.866271
	 D(1,2,3,5)       =         2.264489	     129.745690
	*D(1,2,3,6)       =         0.174533	      10.000008
	 D(1,2,3,7)       =        -1.884180	    -107.955533
	 D(1,2,4,20)      =         1.992275	     114.148968
	 D(1,2,4,21)      =        -0.108227	      -6.200927
	 D(1,2,4,22)      =        -2.231366	    -127.847879
	 D(2,3,5,8)       =        -3.118156	    -178.657181
	 D(2,3,5,9)       =        -0.983156	     -56.330665
	 D(2,3,5,10)      =         1.043208	      59.771441
	 D(3,2,4,20)      =        -1.173862	     -67.257346
	 D(3,2,4,21)      =         3.008821	     172.392759
	 D(3,2,4,22)      =         0.885681	      50.745807
	 D(3,5,8,11)      =        -3.091113	    -177.107717
	 D(3,5,8,12)      =         1.048887	      60.096777
	 D(3,5,8,13)      =        -0.968757	     -55.505709
	 D(4,2,3,5)       =        -0.852772	     -48.860257
	 D(4,2,3,6)       =        -2.942729	    -168.605939
	 D(4,2,3,7)       =         1.281744	      73.438520
	 D(5,8,11,14)     =        -1.152907	     -66.056710
	 D(5,8,11,15)     =         3.008980	     172.401844
	 D(5,8,11,16)     =         0.997622	      57.159542
	 D(6,3,5,8)       =        -1.047485	     -60.016492
	 D(6,3,5,9)       =         1.087515	      62.310025
	 D(6,3,5,10)      =         3.113879	     178.412131
	 D(7,3,5,8)       =         1.024283	      58.687075
	 D(7,3,5,9)       =        -3.123902	    -178.986409
	 D(7,3,5,10)      =        -1.097538	     -62.884303
	 D(8,11,14,17)    =        -0.982452	     -56.290358
	 D(8,11,14,18)    =        -3.069170	    -175.850516
	 D(8,11,14,19)    =         1.121408	      64.251955
	 D(9,5,8,11)      =         1.081500	      61.965406
	 D(9,5,8,12)      =        -1.061686	     -60.830101
	 D(9,5,8,13)      =        -3.079330	    -176.432586
	 D(10,5,8,11)     =        -0.964721	     -55.274439
	 D(10,5,8,12)     =        -3.107907	    -178.069946
	 D(10,5,8,13)     =         1.157634	      66.327569
	 D(12,8,11,14)    =         0.989650	      56.702766
	 D(12,8,11,15)    =        -1.131648	     -64.838680
	 D(12,8,11,16)    =         3.140179	     179.919018
	 D(13,8,11,14)    =         3.005725	     172.215363
	 D(13,8,11,15)    =         0.884427	      50.673917
	 D(13,8,11,16)    =        -1.126931	     -64.568385
	 D(15,11,14,17)   =         1.134650	      65.010672
	 D(15,11,14,18)   =        -0.952068	     -54.549486
	 D(15,11,14,19)   =        -3.044675	    -174.447015
	 D(16,11,14,17)   =        -3.131207	    -179.404960
	 D(16,11,14,18)   =         1.065260	      61.034882
	 D(16,11,14,19)   =        -1.027347	     -58.862646

	Current energy   :      -348.0948125947

	Generating empirical Hessian (Schlegel '84) for each fragment.
	Taking RFO optimization step.
	Going to follow RFO solution 1.
	Using RFO vector 1.

	Determining step-restricting scale parameter for RS-RFO.
	Maximum step size allowed    0.50000

	 Iter      |step|        alpha        rfo_root  
	------------------------------------------------
	    0     0.59214       1.00000           1
	    1     0.51598       1.28499           1
	    2     0.50066       1.35715           1
	    3     0.50000       1.36037           1
	------------------------------------------------
	Norm of target step-size    0.50000
	Projected energy change by RFO approximation:        -0.0155896640

	Back-transformation to cartesian coordinates...
	Successfully converged to displaced geometry.

	Back-transformation to cartesian coordinates to adjust frozen coordinates...
	Successfully converged to displaced geometry.

	--- Internal Coordinate Step in ANG or DEG, aJ/ANG or AJ/DEG ---
	 ---------------------------------------------------------------------------
	   Coordinate                Previous        Force       Change         New 
	   ----------                --------       ------       ------       ------
	    1 R(1,2)          =      1.193497     0.000230     0.000014     1.193510
	    2 R(2,3)          =      1.518653     0.052808     0.010716     1.529369
	    3 R(2,4)          =      1.512407     0.025590     0.005094     1.517501
	    4 R(3,5)          =      1.537252     0.025553     0.005486     1.542738
	    5 R(3,6)          =      1.084575    -0.008688    -0.001524     1.083051
	    6 R(3,7)          =      1.086290     0.008701     0.001535     1.087825
	    7 R(4,20)         =      1.086860     0.003587     0.000634     1.087494
	    8 R(4,21)         =      1.081103    -0.001325    -0.000230     1.080873
	    9 R(4,22)         =      1.086188    -0.034088    -0.006013     1.080175
	   10 R(5,8)          =      1.530560    -0.000200    -0.000042     1.530518
	   11 R(5,9)          =      1.084152     0.014280     0.002502     1.086654
	   12 R(5,10)         =      1.088920    -0.029226    -0.005201     1.083719
	   13 R(8,11)         =      1.532989     0.000988     0.000209     1.533198
	   14 R(8,12)         =      1.088451     0.000056     0.000010     1.088461
	   15 R(8,13)         =      1.088049    -0.000938    -0.000167     1.087882
	   16 R(11,14)        =      1.529705     0.000092     0.000019     1.529724
	   17 R(11,15)        =      1.087057    -0.000236    -0.000042     1.087015
	   18 R(11,16)        =      1.088158     0.000142     0.000025     1.088183
	   19 R(14,17)        =      1.086612    -0.000281    -0.000050     1.086562
	   20 R(14,18)        =      1.085541    -0.000350    -0.000062     1.085479
	   21 R(14,19)        =      1.084799     0.001105     0.000194     1.084994
	   22 B(1,2,3)        =    120.836901    -0.000297    -1.120848   119.716052
	   23 B(1,2,4)        =    121.663522    -0.000650    -2.116509   119.547012
	   24 B(2,3,5)        =    110.887289     0.001731     6.209691   117.096980
	   25 B(2,3,6)        =    107.650836    -0.000614    -2.513158   105.137678
	   26 B(2,3,7)        =    110.602876    -0.000592    -1.990158   108.612718
	   27 B(2,4,20)       =    109.638235     0.000023     0.165689   109.803924
	   28 B(2,4,21)       =    110.028217    -0.000183    -1.050724   108.977493
	   29 B(2,4,22)       =    110.728359     0.000355     1.722102   112.450460
	   30 B(3,2,4)        =    117.484400     0.000954     2.493645   119.978044
	   31 B(3,5,8)        =    112.248024    -0.000073    -0.284931   111.963093
	   32 B(3,5,9)        =    108.172058     0.000095     0.622344   108.794401
	   33 B(3,5,10)       =    109.662447     0.000155     1.150097   110.812544
	   34 B(5,3,6)        =    109.488482    -0.000435    -0.552248   108.936234
	   35 B(5,3,7)        =    109.988498    -0.000409    -0.519738   109.468760
	   36 B(5,8,11)       =    114.404252     0.000046     0.168386   114.572638
	   37 B(5,8,12)       =    109.198885     0.000011     0.166585   109.365469
	   38 B(5,8,13)       =    108.804476    -0.000048    -0.314743   108.489734
	   39 B(6,3,7)        =    108.146487     0.000279    -1.044972   107.101515
	   40 B(8,5,9)        =    110.620023    -0.000074    -0.843943   109.776080
	   41 B(8,5,10)       =    109.203934    -0.000100    -0.812110   108.391825
	   42 B(8,11,14)      =    114.501233     0.000008     0.030868   114.532100
	   43 B(8,11,15)      =    108.318379     0.000005     0.046581   108.364960
	   44 B(8,11,16)      =    109.291121    -0.000001     0.007240   109.298361
	   45 B(9,5,10)       =    106.781075     0.000006     0.196951   106.978027
	   46 B(11,8,12)      =    109.265387    -0.000026    -0.018315   109.247073
	   47 B(11,8,13)      =    108.574894     0.000009     0.023090   108.597985
	   48 B(11,14,17)     =    111.043091    -0.000002    -0.005952   111.037139
	   49 B(11,14,18)     =    110.721893     0.000005     0.020200   110.742093
	   50 B(11,14,19)     =    112.052208     0.000003     0.012982   112.065190
	   51 B(12,8,13)      =    106.278600     0.000005    -0.043197   106.235403
	   52 B(14,11,15)     =    108.756384    -0.000008    -0.046143   108.710241
	   53 B(14,11,16)     =    109.479913    -0.000003    -0.021907   109.458005
	   54 B(15,11,16)     =    106.157127    -0.000000    -0.020107   106.137020
	   55 B(17,14,18)     =    107.673961    -0.000001    -0.002968   107.670993
	   56 B(17,14,19)     =    107.744554     0.000000     0.005006   107.749559
	   57 B(18,14,19)     =    107.412664    -0.000006    -0.030977   107.381687
	   58 B(20,4,21)      =    109.390662    -0.000013    -0.400189   108.990473
	   59 B(20,4,22)      =    107.135566    -0.000052     0.252684   107.388250
	   60 B(21,4,22)      =    109.866271    -0.000128    -0.697903   109.168368
	   61 D(1,2,3,5)      =    129.745690     0.000023     1.321851   131.067541
	   62 *D(1,2,3,6)     =     10.000008    -0.000000     0.000000    10.000008
	   63 D(1,2,3,7)      =   -107.955533     0.000082     3.589935  -104.365598
	   64 D(1,2,4,20)     =    114.148968    -0.000038    -2.431624   111.717345
	   65 D(1,2,4,21)     =     -6.200927    -0.000011    -1.394703    -7.595630
	   66 D(1,2,4,22)     =   -127.847879     0.000000    -0.931632  -128.779511
	   67 D(2,3,5,8)      =   -178.657181     0.000022     4.269326  -174.387855
	   68 D(2,3,5,9)      =    -56.330665     0.000005     3.450463   -52.880202
	   69 D(2,3,5,10)     =     59.771441     0.000038     4.693120    64.464562
	   70 D(3,2,4,20)     =    -67.257346     0.000032     8.979559   -58.277786
	   71 D(3,2,4,21)     =    172.392759     0.000059    10.016480   182.409239
	   72 D(3,2,4,22)     =     50.745807     0.000070    10.479551    61.225358
	   73 D(3,5,8,11)     =   -177.107717    -0.000005    -0.129078  -177.236795
	   74 D(3,5,8,12)     =     60.096777    -0.000006    -0.352993    59.743784
	   75 D(3,5,8,13)     =    -55.505709    -0.000003    -0.218974   -55.724682
	   76 D(4,2,3,5)      =    -48.860257    -0.000045   -10.094049   -58.954305
	   77 D(4,2,3,6)      =   -168.605939    -0.000068   -11.415899  -180.021838
	   78 D(4,2,3,7)      =     73.438520     0.000014    -7.825964    65.612556
	   79 D(5,8,11,14)    =    -66.056710    -0.000004    -0.174461   -66.231171
	   80 D(5,8,11,15)    =    172.401844    -0.000004    -0.170144   172.231700
	   81 D(5,8,11,16)    =     57.159542    -0.000004    -0.175470    56.984073
	   82 D(6,3,5,8)      =    -60.016492     0.000029     4.684510   -55.331981
	   83 D(6,3,5,9)      =     62.310025     0.000012     3.865647    66.175672
	   84 D(6,3,5,10)     =    178.412131     0.000045     5.108305   183.520435
	   85 D(7,3,5,8)      =     58.687075    -0.000010     2.790490    61.477565
	   86 D(7,3,5,9)      =   -178.986409    -0.000027     1.971627  -177.014781
	   87 D(7,3,5,10)     =    -62.884303     0.000006     3.214285   -59.670018
	   88 D(8,11,14,17)   =    -56.290358    -0.000000     0.001227   -56.289131
	   89 D(8,11,14,18)   =   -175.850516    -0.000000    -0.004430  -175.854946
	   90 D(8,11,14,19)   =     64.251955    -0.000000     0.012378    64.264333
	   91 D(9,5,8,11)     =     61.965406    -0.000009    -0.143210    61.822196
	   92 D(9,5,8,12)     =    -60.830101    -0.000011    -0.367125   -61.197225
	   93 D(9,5,8,13)     =   -176.432586    -0.000007    -0.233106  -176.665691
	   94 D(10,5,8,11)    =    -55.274439     0.000013     0.573507   -54.700932
	   95 D(10,5,8,12)    =   -178.069946     0.000012     0.349592  -177.720354
	   96 D(10,5,8,13)    =     66.327569     0.000015     0.483611    66.811180
	   97 D(12,8,11,14)   =     56.702766     0.000002     0.149228    56.851994
	   98 D(12,8,11,15)   =    -64.838680     0.000003     0.153546   -64.685135
	   99 D(12,8,11,16)   =    179.919018     0.000002     0.148220   180.067238
	  100 D(13,8,11,14)   =    172.215363     0.000002     0.100651   172.316014
	  101 D(13,8,11,15)   =     50.673917     0.000002     0.104969    50.778886
	  102 D(13,8,11,16)   =    -64.568385     0.000002     0.099643   -64.468742
	  103 D(15,11,14,17)  =     65.010672     0.000001     0.047960    65.058632
	  104 D(15,11,14,18)  =    -54.549486     0.000001     0.042303   -54.507183
	  105 D(15,11,14,19)  =   -174.447015     0.000001     0.059111  -174.387903
	  106 D(16,11,14,17)  =   -179.404960    -0.000001    -0.013516  -179.418476
	  107 D(16,11,14,18)  =     61.034882    -0.000001    -0.019173    61.015709
	  108 D(16,11,14,19)  =    -58.862646    -0.000000    -0.002365   -58.865012
	 ---------------------------------------------------------------------------

  ==> Convergence Check <==

  Measures of convergence in internal coordinates in au.
  Criteria marked as inactive (o), active & met (*), and active & unmet ( ).
  --------------------------------------------------------------------------------------------- ~
   Step     Total Energy     Delta E     MAX Force     RMS Force      MAX Disp      RMS Disp    ~
  --------------------------------------------------------------------------------------------- ~
    Convergence Criteria    1.00e-06 *    3.00e-04 *             o    1.20e-03 *             o  ~
  --------------------------------------------------------------------------------------------- ~
      1    -348.09481259   -3.48e+02      2.28e-02      3.34e-03 o    1.99e-01      4.81e-02 o  ~
  ---------------------------------------------------------------------------------------------

	Writing optimization data to binary file.
	Structure for next step:
	Cartesian Geometry (in Angstrom)
	    O    -1.9512075901   2.2940665597  -0.6582217000
	    C    -1.7821922716   1.1511711435  -0.3587370712
	    C    -0.5695251579   0.3958114389  -0.9044838384
	    C    -2.8808212533   0.3976325739   0.3679017582
	    C     0.2816195208  -0.3942673115   0.1110788566
	    H     0.0501486357   1.1532472740  -1.3684821670
	    H    -0.9037281044  -0.2724927132  -1.6950795225
	    C     1.5360699284  -0.9889059994  -0.5333165371
	    H     0.5650326424   0.2705411963   0.9225735528
	    H    -0.2930778282  -1.2016972546   0.5495165463
	    C     2.3926412110  -1.8434122783   0.4083849794
	    H     2.1459485948  -0.1862955533  -0.9439401533
	    H     1.2319212073  -1.6026621677  -1.3784703854
	    C     3.0480736123  -1.0663111136   1.5514416153
	    H     3.1715213536  -2.3237379541  -0.1783306863
	    H     1.7839959075  -2.6468495888   0.8184842269
	    H     3.6551357967  -0.2497596333   1.1702113866
	    H     3.6953323618  -1.7135938661   2.1348336115
	    H     2.3146394548  -0.6441631174   2.2304676450
	    H    -3.2954301215  -0.3680877323  -0.2835698048
	    H    -3.6641451661   1.0918732889   0.6375696231
	    H    -2.5223496002  -0.0962819586   1.2591508595
			--------------------------
			 OPTKING Finished Execution 
			--------------------------

    Structure for next step:
    Molecular point group: c1
    Full point group: C1

    Geometry (in Angstrom), charge = 0, multiplicity = 1:

    O           -1.960830417000     2.297087486897    -0.667724287501
    C           -1.791815111439     1.154192158015    -0.368239681570
    C           -0.579148090341     0.398832511098    -0.913986407097
    C           -2.890444009207     0.400653645911     0.358399092375
    C            0.271996523424    -0.391246178992     0.101576210369
    H            0.040525655921     1.156268288403    -1.377984700283
    H           -0.913351011320    -0.269471589942    -1.704582030828
    C            1.526446835237    -0.985884821442    -0.542819134184
    H            0.555409623322     0.273562278081     0.913070844541
    H           -0.302700781737    -1.198676060388     0.540013866567
    C            2.383018052391    -1.840391035115     0.398882310449
    H            2.136325454982    -0.183274436651    -0.953442718968
    H            1.222298137289    -1.599640942931    -1.387972917905
    C            3.038450403588    -1.063289929708     1.541938859016
    H            3.161898135537    -2.320716674193    -0.187833310469
    H            1.774372795364    -2.643828284267     0.808981526637
    H            3.645512541670    -0.246738511778     1.160708659496
    H            3.685709103688    -1.710572632817     2.125330810743
    H            2.305016302192    -0.641141965823     2.220964836898
    H           -3.305052845727    -0.365066601822    -0.293072420908
    H           -3.673767862201     1.094894307919     0.628066936608
    H           -2.531972383524    -0.093260848787     1.249648125565

gradient() will perform analytic gradient computation.

*** tstart() called on cx1-5-5-4.cx1.hpc.ic.ac.uk
*** at Fri Sep  2 12:54:48 2016


         ---------------------------------------------------------
                                   SCF
            by Justin Turney, Rob Parrish, and Andy Simmonett
                              RHF Reference
                        4 Threads,   2000 MiB Core
         ---------------------------------------------------------

  ==> Geometry <==

    Molecular point group: c1
    Full point group: C1

    Geometry (in Angstrom), charge = 0, multiplicity = 1:

       Center              X                  Y                   Z               Mass       
    ------------   -----------------  -----------------  -----------------  -----------------
           O         -1.960830417000     2.297087486897    -0.667724287501    15.994914619560
           C         -1.791815111439     1.154192158015    -0.368239681570    12.000000000000
           C         -0.579148090341     0.398832511098    -0.913986407097    12.000000000000
           C         -2.890444009207     0.400653645911     0.358399092375    12.000000000000
           C          0.271996523424    -0.391246178992     0.101576210369    12.000000000000
           H          0.040525655921     1.156268288403    -1.377984700283     1.007825032070
           H         -0.913351011320    -0.269471589942    -1.704582030828     1.007825032070
           C          1.526446835237    -0.985884821442    -0.542819134184    12.000000000000
           H          0.555409623322     0.273562278081     0.913070844541     1.007825032070
           H         -0.302700781737    -1.198676060388     0.540013866567     1.007825032070
           C          2.383018052391    -1.840391035115     0.398882310449    12.000000000000
           H          2.136325454982    -0.183274436651    -0.953442718968     1.007825032070
           H          1.222298137289    -1.599640942931    -1.387972917905     1.007825032070
           C          3.038450403588    -1.063289929708     1.541938859016    12.000000000000
           H          3.161898135537    -2.320716674193    -0.187833310469     1.007825032070
           H          1.774372795364    -2.643828284267     0.808981526637     1.007825032070
           H          3.645512541670    -0.246738511778     1.160708659496     1.007825032070
           H          3.685709103688    -1.710572632817     2.125330810743     1.007825032070
           H          2.305016302192    -0.641141965823     2.220964836898     1.007825032070
           H         -3.305052845727    -0.365066601822    -0.293072420908     1.007825032070
           H         -3.673767862201     1.094894307919     0.628066936608     1.007825032070
           H         -2.531972383524    -0.093260848787     1.249648125565     1.007825032070

  Running in c1 symmetry.

  Rotational constants: A =      0.15309  B =      0.02389  C =      0.02342 [cm^-1]
  Rotational constants: A =   4589.48046  B =    716.14290  C =    702.07024 [MHz]
  Nuclear repulsion =  370.637344469263269

  Charge       = 0
  Multiplicity = 1
  Electrons    = 64
  Nalpha       = 32
  Nbeta        = 32

  ==> Algorithm <==

  SCF Algorithm Type is DF.
  DIIS enabled.
  MOM disabled.
  Fractional occupation disabled.
  Guess Type is READ.
  Energy threshold   = 1.00e-08
  Density threshold  = 1.00e-08
  Integral threshold = 0.00e+00

  ==> Primary Basis <==

  Basis Set: 6-31G*
    Number of shells: 76
    Number of basis function: 148
    Number of Cartesian functions: 148
    Spherical Harmonics?: false
    Max angular momentum: 2

  ==> Pre-Iterations <==

   -------------------------------------------------------
    Irrep   Nso     Nmo     Nalpha   Nbeta   Ndocc  Nsocc
   -------------------------------------------------------
     A        148     148       0       0       0       0
   -------------------------------------------------------
    Total     148     148      32      32      32       0
   -------------------------------------------------------

 OEINTS: Overlap, kinetic, potential, dipole, and quadrupole integrals
         stored in file 35.

  ==> Integral Setup <==

  ==> DFJK: Density-Fitted J/K Matrices <==

    J tasked:                  Yes
    K tasked:                  Yes
    wK tasked:                  No
    OpenMP threads:              4
    Integrals threads:           4
    Memory (MB):              1430
    Algorithm:                Core
    Integral Cache:           NONE
    Schwarz Cutoff:          1E-12
    Fitting Condition:       1E-12

   => Auxiliary Basis Set <=

  Basis Set: 
    Number of shells: 318
    Number of basis function: 998
    Number of Cartesian functions: 998
    Spherical Harmonics?: false
    Max angular momentum: 3

  Minimum eigenvalue in the overlap matrix is 3.2008802115E-03.
  Using Symmetric Orthogonalization.
  SCF Guess: Reading in previously saved MOs, projecting if necessary.

  Using orbitals from previous SCF, no projection.
  Recomputing DOCC and SOCC from number of alpha and beta electrons from previous calculation.
              A 
    DOCC [    32 ]

  ==> Iterations <==

                           Total Energy        Delta E     RMS |[F,P]|

   @DF-RHF iter   0:  -348.02997733513683   -3.48030e+02   2.14971e-03 
   @DF-RHF iter   1:  -348.09194109093283   -6.19638e-02   3.97288e-04 
   @DF-RHF iter   2:  -348.09495399519193   -3.01290e-03   1.42668e-04 DIIS
   @DF-RHF iter   3:  -348.09541603096665   -4.62036e-04   6.06378e-05 DIIS
   @DF-RHF iter   4:  -348.09552025996612   -1.04229e-04   2.13646e-05 DIIS
   @DF-RHF iter   5:  -348.09554680708737   -2.65471e-05   1.26045e-05 DIIS
   @DF-RHF iter   6:  -348.09555638729097   -9.58020e-06   5.00677e-06 DIIS
   @DF-RHF iter   7:  -348.09555783238881   -1.44510e-06   1.92648e-06 DIIS
   @DF-RHF iter   8:  -348.09555797915874   -1.46770e-07   6.36186e-07 DIIS
   @DF-RHF iter   9:  -348.09555799554693   -1.63882e-08   2.19003e-07 DIIS
   @DF-RHF iter  10:  -348.09555799767219   -2.12526e-09   6.11402e-08 DIIS
   @DF-RHF iter  11:  -348.09555799780270   -1.30512e-10   1.76295e-08 DIIS
   @DF-RHF iter  12:  -348.09555799781089   -8.18545e-12   4.92631e-09 DIIS

  ==> Post-Iterations <==

    Orbital Energies (a.u.)
    -----------------------

    Doubly Occupied:                                                      

       1A    -20.548342     2A    -11.325673     3A    -11.231637  
       4A    -11.230950     5A    -11.227013     6A    -11.224257  
       7A    -11.222828     8A    -11.213937     9A     -1.394099  
      10A     -1.096357    11A     -1.042134    12A     -0.996871  
      13A     -0.940117    14A     -0.862036    15A     -0.788485  
      16A     -0.733147    17A     -0.662191    18A     -0.643389  
      19A     -0.630681    20A     -0.616036    21A     -0.602955  
      22A     -0.585623    23A     -0.558504    24A     -0.538917  
      25A     -0.532995    26A     -0.524221    27A     -0.496178  
      28A     -0.487955    29A     -0.472411    30A     -0.469240  
      31A     -0.463401    32A     -0.396966  

    Virtual:                                                              

      33A      0.165870    34A      0.221158    35A      0.236567  
      36A      0.260405    37A      0.265686    38A      0.287196  
      39A      0.298011    40A      0.306275    41A      0.307529  
      42A      0.317835    43A      0.333248    44A      0.334918  
      45A      0.350727    46A      0.357640    47A      0.358436  
      48A      0.376823    49A      0.410517    50A      0.426830  
      51A      0.438316    52A      0.441688    53A      0.526156  
      54A      0.530509    55A      0.697467    56A      0.703771  
      57A      0.721350    58A      0.726543    59A      0.742148  
      60A      0.774648    61A      0.785446    62A      0.806864  
      63A      0.820894    64A      0.872721    65A      0.901796  
      66A      0.923691    67A      0.936642    68A      0.958933  
      69A      0.983709    70A      0.990570    71A      1.008891  
      72A      1.043554    73A      1.084563    74A      1.095712  
      75A      1.117038    76A      1.122070    77A      1.139885  
      78A      1.145359    79A      1.152994    80A      1.171943  
      81A      1.177767    82A      1.182084    83A      1.200457  
      84A      1.202390    85A      1.212073    86A      1.222360  
      87A      1.252726    88A      1.260611    89A      1.265095  
      90A      1.284769    91A      1.319854    92A      1.357488  
      93A      1.393630    94A      1.457478    95A      1.484427  
      96A      1.540444    97A      1.668524    98A      1.700525  
      99A      1.729420   100A      1.771357   101A      1.823749  
     102A      1.844656   103A      1.910502   104A      1.936230  
     105A      1.983774   106A      2.029752   107A      2.084934  
     108A      2.097620   109A      2.125834   110A      2.163116  
     111A      2.192540   112A      2.211240   113A      2.240418  
     114A      2.260516   115A      2.277244   116A      2.297390  
     117A      2.315608   118A      2.350037   119A      2.380528  
     120A      2.410767   121A      2.461472   122A      2.517688  
     123A      2.538002   124A      2.588365   125A      2.644822  
     126A      2.670418   127A      2.686714   128A      2.717402  
     129A      2.739452   130A      2.777062   131A      2.785215  
     132A      2.872777   133A      2.939611   134A      2.955086  
     135A      2.992190   136A      3.046925   137A      3.077055  
     138A      3.160632   139A      3.367520   140A      3.380827  
     141A      4.398252   142A      4.515749   143A      4.587007  
     144A      4.689345   145A      4.783109   146A      4.844543  
     147A      4.900985   148A      4.994829  

    Final Occupation by Irrep:
              A 
    DOCC [    32 ]

  Energy converged.

  @DF-RHF Final Energy:  -348.09555799781089

   => Energetics <=

    Nuclear Repulsion Energy =            370.6373444692632688
    One-Electron Energy =               -1205.9467124441139276
    Two-Electron Energy =                 487.2138099770402277
    DFT Exchange-Correlation Energy =       0.0000000000000000
    Empirical Dispersion Energy =           0.0000000000000000
    PCM Polarization Energy =               0.0000000000000000
    EFP Energy =                            0.0000000000000000
    Total Energy =                       -348.0955579978103742

    Alert: EFP and PCM quantities not currently incorporated into SCF psivars.

Properties will be evaluated at   0.000000,   0.000000,   0.000000 Bohr
  ==> Properties <==


Properties computed using the SCF density matrix

  Nuclear Dipole Moment: (a.u.)
     X:     7.3030      Y:    -8.1896      Z:     3.5047

  Electronic Dipole Moment: (a.u.)
     X:    -7.0354      Y:     6.9671      Z:    -3.2365

  Dipole Moment: (a.u.)
     X:     0.2677      Y:    -1.2225      Z:     0.2682     Total:     1.2799

  Dipole Moment: (Debye)
     X:     0.6803      Y:    -3.1073      Z:     0.6816     Total:     3.2531


  Saving occupied orbitals to File 180.

*** tstop() called on cx1-5-5-4.cx1.hpc.ic.ac.uk at Fri Sep  2 12:54:55 2016
Module time:
	user time   =      20.76 seconds =       0.35 minutes
	system time =       0.30 seconds =       0.00 minutes
	total time  =          7 seconds =       0.12 minutes
Total time:
	user time   =      72.63 seconds =       1.21 minutes
	system time =       0.91 seconds =       0.02 minutes
	total time  =         23 seconds =       0.38 minutes

*** tstart() called on cx1-5-5-4.cx1.hpc.ic.ac.uk
*** at Fri Sep  2 12:54:55 2016


         ------------------------------------------------------------
                                   SCF GRAD                          
                          Rob Parrish, Justin Turney,                
                       Andy Simmonett, and Alex Sokolov              
         ------------------------------------------------------------

  ==> Geometry <==

    Molecular point group: c1
    Full point group: C1

    Geometry (in Angstrom), charge = 0, multiplicity = 1:

       Center              X                  Y                   Z               Mass       
    ------------   -----------------  -----------------  -----------------  -----------------
           O         -1.960830417000     2.297087486897    -0.667724287501    15.994914619560
           C         -1.791815111439     1.154192158015    -0.368239681570    12.000000000000
           C         -0.579148090341     0.398832511098    -0.913986407097    12.000000000000
           C         -2.890444009207     0.400653645911     0.358399092375    12.000000000000
           C          0.271996523424    -0.391246178992     0.101576210369    12.000000000000
           H          0.040525655921     1.156268288403    -1.377984700283     1.007825032070
           H         -0.913351011320    -0.269471589942    -1.704582030828     1.007825032070
           C          1.526446835237    -0.985884821442    -0.542819134184    12.000000000000
           H          0.555409623322     0.273562278081     0.913070844541     1.007825032070
           H         -0.302700781737    -1.198676060388     0.540013866567     1.007825032070
           C          2.383018052391    -1.840391035115     0.398882310449    12.000000000000
           H          2.136325454982    -0.183274436651    -0.953442718968     1.007825032070
           H          1.222298137289    -1.599640942931    -1.387972917905     1.007825032070
           C          3.038450403588    -1.063289929708     1.541938859016    12.000000000000
           H          3.161898135537    -2.320716674193    -0.187833310469     1.007825032070
           H          1.774372795364    -2.643828284267     0.808981526637     1.007825032070
           H          3.645512541670    -0.246738511778     1.160708659496     1.007825032070
           H          3.685709103688    -1.710572632817     2.125330810743     1.007825032070
           H          2.305016302192    -0.641141965823     2.220964836898     1.007825032070
           H         -3.305052845727    -0.365066601822    -0.293072420908     1.007825032070
           H         -3.673767862201     1.094894307919     0.628066936608     1.007825032070
           H         -2.531972383524    -0.093260848787     1.249648125565     1.007825032070

  Nuclear repulsion =  370.637344469263269

  ==> Basis Set <==

  Basis Set: 6-31G*
    Number of shells: 76
    Number of basis function: 148
    Number of Cartesian functions: 148
    Spherical Harmonics?: false
    Max angular momentum: 2

  ==> DFJKGrad: Density-Fitted SCF Gradients <==

    Gradient:                    1
    J tasked:                  Yes
    K tasked:                  Yes
    wK tasked:                  No
    OpenMP threads:              4
    Integrals threads:           4
    Memory (MB):              1430
    Schwarz Cutoff:          0E+00
    Fitting Condition:       1E-12

   => Auxiliary Basis Set <=

  Basis Set: 
    Number of shells: 318
    Number of basis function: 998
    Number of Cartesian functions: 998
    Spherical Harmonics?: false
    Max angular momentum: 3


  -Total Gradient:
     Atom            X                  Y                   Z
    ------   -----------------  -----------------  -----------------
       1       -0.004674909239    -0.003436969790    -0.005311409357
       2        0.008515538419     0.006870552908     0.016105496607
       3       -0.006670493692    -0.002415568119    -0.008206833028
       4       -0.002938023241     0.000076805045    -0.002015060827
       5        0.002665219423    -0.003694572174     0.000801700763
       6        0.000145505928     0.000148100586     0.001629759296
       7        0.003016400209     0.000118629585    -0.000822564429
       8       -0.000353700651    -0.000552875378     0.001447606951
       9        0.000590486011     0.000344707599    -0.000296960170
      10        0.003071762909     0.000907948796    -0.001424496106
      11        0.000443267303    -0.000036888945    -0.000141985930
      12        0.000063676998     0.000066646445    -0.000011219622
      13       -0.000249782652     0.000201511106     0.000247884833
      14        0.000014672305    -0.000070295256    -0.000021048440
      15        0.000112400959    -0.000107855295     0.000103074804
      16       -0.000052331120     0.000034012410    -0.000026412877
      17       -0.000000581253    -0.000006809936     0.000001022960
      18        0.000001116344     0.000023016053     0.000014757354
      19       -0.000018070764     0.000020097442    -0.000012752938
      20       -0.001419639460    -0.000235728725     0.000293007993
      21       -0.000195346096    -0.000429936725     0.000331943876
      22       -0.002067168635     0.002175472364    -0.002685511713


*** tstop() called on cx1-5-5-4.cx1.hpc.ic.ac.uk at Fri Sep  2 12:55:03 2016
Module time:
	user time   =      27.38 seconds =       0.46 minutes
	system time =       0.25 seconds =       0.00 minutes
	total time  =          8 seconds =       0.13 minutes
Total time:
	user time   =     100.03 seconds =       1.67 minutes
	system time =       1.16 seconds =       0.02 minutes
	total time  =         31 seconds =       0.52 minutes
CURRENT ENERGY: -348.0955579978

			-----------------------------------------
			 OPTKING 2.0: for geometry optimizations 
			  - R.A. King,  Bethel University        
			-----------------------------------------

	Previous internal coordinate definitions found.
	---Fragment 1 Geometry and Gradient---
	 O          -3.7054324812        4.3408662535       -1.2618160357
	 C          -3.3860398414        2.1811070834       -0.6958721494
	 C          -1.0944312811        0.7536842189       -1.7271839986
	 C          -5.4621475798        0.7571256649        0.6772761309
	 C           0.5139989384       -0.7393481288        0.1919512192
	 H           0.0765823910        2.1850304012       -2.6040136988
	 H          -1.7259832746       -0.5092275056       -3.2211932093
	 C           2.8845664750       -1.8630523111       -1.0257795033
	 H           1.0495720796        0.5169577859        1.7254538361
	 H          -0.5720215777       -2.2651694762        1.0204783158
	 C           4.5032514887       -3.4778350338        0.7537783260
	 H           4.0370700406       -0.3463384924       -1.8017456222
	 H           2.3098087322       -3.0228832931       -2.6228886947
	 C           5.7418391311       -2.0093267670        2.9138421572
	 H           5.9751215362       -4.3855189462       -0.3549535154
	 H           3.3530786409       -4.9961113996        1.5287535319
	 H           6.8890203178       -0.4662682137        2.1934214865
	 H           6.9649808115       -3.2325138064        4.0162931741
	 H           4.3558495430       -1.2115827277        4.1970152925
	 H          -6.2456447331       -0.6898758977       -0.5538266126
	 H          -6.9424151354        2.0690503864        1.1868745033
	 H          -4.7847343809       -0.1762374631        2.3614927198
	            -0.0046749092       -0.0034369698       -0.0053114094
	             0.0085155384        0.0068705529        0.0161054966
	            -0.0066704937       -0.0024155681       -0.0082068330
	            -0.0029380232        0.0000768050       -0.0020150608
	             0.0026652194       -0.0036945722        0.0008017008
	             0.0001455059        0.0001481006        0.0016297593
	             0.0030164002        0.0001186296       -0.0008225644
	            -0.0003537007       -0.0005528754        0.0014476070
	             0.0005904860        0.0003447076       -0.0002969602
	             0.0030717629        0.0009079488       -0.0014244961
	             0.0004432673       -0.0000368889       -0.0001419859
	             0.0000636770        0.0000666464       -0.0000112196
	            -0.0002497827        0.0002015111        0.0002478848
	             0.0000146723       -0.0000702953       -0.0000210484
	             0.0001124010       -0.0001078553        0.0001030748
	            -0.0000523311        0.0000340124       -0.0000264129
	            -0.0000005813       -0.0000068099        0.0000010230
	             0.0000011163        0.0000230161        0.0000147574
	            -0.0000180708        0.0000200974       -0.0000127529
	            -0.0014196395       -0.0002357287        0.0002930080
	            -0.0001953461       -0.0004299367        0.0003319439
	            -0.0020671686        0.0021754724       -0.0026855117

	---Fragment 1 Intrafragment Coordinates---
	 - Coordinate -           - BOHR/RAD -       - ANG/DEG -
	 R(1,2)           =         2.255408	       1.193510
	 R(2,3)           =         2.890088	       1.529369
	 R(2,4)           =         2.867662	       1.517501
	 R(3,5)           =         2.915351	       1.542738
	 R(3,6)           =         2.046669	       1.083051
	 R(3,7)           =         2.055691	       1.087825
	 R(4,20)          =         2.055066	       1.087494
	 R(4,21)          =         2.042555	       1.080873
	 R(4,22)          =         2.041235	       1.080175
	 R(5,8)           =         2.892260	       1.530518
	 R(5,9)           =         2.053478	       1.086654
	 R(5,10)          =         2.047933	       1.083719
	 R(8,11)          =         2.897325	       1.533198
	 R(8,12)          =         2.056893	       1.088461
	 R(8,13)          =         2.055800	       1.087882
	 R(11,14)         =         2.890760	       1.529724
	 R(11,15)         =         2.054161	       1.087015
	 R(11,16)         =         2.056367	       1.088183
	 R(14,17)         =         2.053305	       1.086562
	 R(14,18)         =         2.051258	       1.085479
	 R(14,19)         =         2.050340	       1.084994
	 B(1,2,3)         =         2.089439	     119.716052
	 B(1,2,4)         =         2.086489	     119.547012
	 B(2,3,5)         =         2.043728	     117.096980
	 B(2,3,6)         =         1.834999	     105.137678
	 B(2,3,7)         =         1.895650	     108.612718
	 B(2,4,20)        =         1.916440	     109.803924
	 B(2,4,21)        =         1.902016	     108.977493
	 B(2,4,22)        =         1.962631	     112.450460
	 B(3,2,4)         =         2.094012	     119.978044
	 B(3,5,8)         =         1.954125	     111.963093
	 B(3,5,9)         =         1.898821	     108.794401
	 B(3,5,10)        =         1.934044	     110.812544
	 B(5,3,6)         =         1.901296	     108.936234
	 B(5,3,7)         =         1.910590	     109.468760
	 B(5,8,11)        =         1.999670	     114.572638
	 B(5,8,12)        =         1.908788	     109.365469
	 B(5,8,13)        =         1.893503	     108.489734
	 B(6,3,7)         =         1.869274	     107.101515
	 B(8,5,9)         =         1.915954	     109.776080
	 B(8,5,10)        =         1.891794	     108.391825
	 B(8,11,14)       =         1.998962	     114.532100
	 B(8,11,15)       =         1.891325	     108.364960
	 B(8,11,16)       =         1.907616	     109.298361
	 B(9,5,10)        =         1.867119	     106.978027
	 B(11,8,12)       =         1.906721	     109.247073
	 B(11,8,13)       =         1.895392	     108.597985
	 B(11,14,17)      =         1.937964	     111.037139
	 B(11,14,18)      =         1.932814	     110.742093
	 B(11,14,19)      =         1.955907	     112.065190
	 B(12,8,13)       =         1.854158	     106.235403
	 B(14,11,15)      =         1.897352	     108.710241
	 B(14,11,16)      =         1.910403	     109.458005
	 B(15,11,16)      =         1.852440	     106.137020
	 B(17,14,18)      =         1.879213	     107.670993
	 B(17,14,19)      =         1.880585	     107.749559
	 B(18,14,19)      =         1.874164	     107.381687
	 B(20,4,21)       =         1.902243	     108.990473
	 B(20,4,22)       =         1.874279	     107.388250
	 B(21,4,22)       =         1.905347	     109.168368
	 D(1,2,3,5)       =         2.287560	     131.067541
	*D(1,2,3,6)       =         0.174533	      10.000008
	 D(1,2,3,7)       =        -1.821523	    -104.365598
	 D(1,2,4,20)      =         1.949835	     111.717345
	 D(1,2,4,21)      =        -0.132569	      -7.595630
	 D(1,2,4,22)      =        -2.247626	    -128.779511
	 D(2,3,5,8)       =        -3.043642	    -174.387855
	 D(2,3,5,9)       =        -0.922934	     -52.880202
	 D(2,3,5,10)      =         1.125119	      64.464562
	 D(3,2,4,20)      =        -1.017139	     -58.277786
	 D(3,2,4,21)      =        -3.099543	    -177.590761
	 D(3,2,4,22)      =         1.068584	      61.225358
	 D(3,5,8,11)      =        -3.093366	    -177.236795
	 D(3,5,8,12)      =         1.042726	      59.743784
	 D(3,5,8,13)      =        -0.972579	     -55.724682
	 D(4,2,3,5)       =        -1.028947	     -58.954305
	 D(4,2,3,6)       =         3.141212	     179.978162
	 D(4,2,3,7)       =         1.145155	      65.612556
	 D(5,8,11,14)     =        -1.155952	     -66.231171
	 D(5,8,11,15)     =         3.006010	     172.231700
	 D(5,8,11,16)     =         0.994560	      56.984073
	 D(6,3,5,8)       =        -0.965725	     -55.331981
	 D(6,3,5,9)       =         1.154983	      66.175672
	 D(6,3,5,10)      =        -3.080149	    -176.479565
	 D(7,3,5,8)       =         1.072986	      61.477565
	 D(7,3,5,9)       =        -3.089491	    -177.014781
	 D(7,3,5,10)      =        -1.041438	     -59.670018
	 D(8,11,14,17)    =        -0.982431	     -56.289131
	 D(8,11,14,18)    =        -3.069248	    -175.854946
	 D(8,11,14,19)    =         1.121624	      64.264333
	 D(9,5,8,11)      =         1.079001	      61.822196
	 D(9,5,8,12)      =        -1.068093	     -61.197225
	 D(9,5,8,13)      =        -3.083398	    -176.665691
	 D(10,5,8,11)     =        -0.954711	     -54.700932
	 D(10,5,8,12)     =        -3.101805	    -177.720354
	 D(10,5,8,13)     =         1.166075	      66.811180
	 D(12,8,11,14)    =         0.992254	      56.851994
	 D(12,8,11,15)    =        -1.128969	     -64.685135
	 D(12,8,11,16)    =        -3.140419	    -179.932762
	 D(13,8,11,14)    =         3.007482	     172.316014
	 D(13,8,11,15)    =         0.886259	      50.778886
	 D(13,8,11,16)    =        -1.125192	     -64.468742
	 D(15,11,14,17)   =         1.135487	      65.058632
	 D(15,11,14,18)   =        -0.951330	     -54.507183
	 D(15,11,14,19)   =        -3.043643	    -174.387903
	 D(16,11,14,17)   =        -3.131443	    -179.418476
	 D(16,11,14,18)   =         1.064925	      61.015709
	 D(16,11,14,19)   =        -1.027388	     -58.865012

	Current energy   :      -348.0955579978

	Energy change for the previous step:
		Projected    :        -0.0155896640
		Actual       :        -0.0007454031
	Energy ratio indicates iffy step: Trust radius decreased to 1.250e-01.


	Performing BFGS update.
	Previous computed or guess Hessian on step 1.
	Steps to be used in Hessian update: 1
	Taking RFO optimization step.
	Going to follow RFO solution 1.
	Using RFO vector 1.

	Determining step-restricting scale parameter for RS-RFO.
	Maximum step size allowed    0.12500

	 Iter      |step|        alpha        rfo_root  
	------------------------------------------------
	    0     0.49507       1.00000           1
	    1     0.31691       2.81787           1
	    2     0.21216       6.55582           1
	    3     0.15746      12.06923           1
	    4     0.13293      17.21155           1
	    5     0.12572      19.39851           1
	    6     0.12501      19.63767           1
	------------------------------------------------
	Norm of target step-size    0.12501
	Projected energy change by RFO approximation:        -0.0010265921

	Back-transformation to cartesian coordinates...
	Successfully converged to displaced geometry.

	Back-transformation to cartesian coordinates to adjust frozen coordinates...
	Successfully converged to displaced geometry.

	--- Internal Coordinate Step in ANG or DEG, aJ/ANG or AJ/DEG ---
	 ---------------------------------------------------------------------------
	   Coordinate                Previous        Force       Change         New 
	   ----------                --------       ------       ------       ------
	    1 R(1,2)          =      1.193510     0.010681     0.000453     1.193963
	    2 R(2,3)          =      1.529369    -0.058338    -0.007889     1.521480
	    3 R(2,4)          =      1.517501    -0.016917    -0.002197     1.515304
	    4 R(3,5)          =      1.542738    -0.044391    -0.006402     1.536336
	    5 R(3,6)          =      1.083051     0.004213     0.000478     1.083528
	    6 R(3,7)          =      1.087825     0.003310     0.000442     1.088267
	    7 R(4,20)         =      1.087494    -0.004380    -0.000523     1.086971
	    8 R(4,21)         =      1.080873     0.000426     0.000046     1.080919
	    9 R(4,22)         =      1.080175     0.032103     0.003790     1.083965
	   10 R(5,8)          =      1.530518     0.004444     0.000641     1.531160
	   11 R(5,9)          =      1.086654    -0.001179    -0.000084     1.086570
	   12 R(5,10)         =      1.083719     0.023742     0.002809     1.086529
	   13 R(8,11)         =      1.533198    -0.002546    -0.000365     1.532833
	   14 R(8,12)         =      1.088461    -0.000734    -0.000090     1.088371
	   15 R(8,13)         =      1.087882     0.001948     0.000236     1.088118
	   16 R(11,14)        =      1.529724     0.000263     0.000038     1.529763
	   17 R(11,15)        =      1.087015    -0.000598    -0.000074     1.086941
	   18 R(11,16)        =      1.088183     0.000048     0.000006     1.088189
	   19 R(14,17)        =      1.086562     0.000048     0.000005     1.086567
	   20 R(14,18)        =      1.085479     0.000042     0.000004     1.085483
	   21 R(14,19)        =      1.084994    -0.000099    -0.000008     1.084986
	   22 B(1,2,3)        =    119.716052     0.000213     0.492996   120.209048
	   23 B(1,2,4)        =    119.547012     0.000448     0.936412   120.483424
	   24 B(2,3,5)        =    117.096980    -0.000529    -1.177724   115.919256
	   25 B(2,3,6)        =    105.137678     0.000258     0.784685   105.922363
	   26 B(2,3,7)        =    108.612718     0.000006    -0.574787   108.037932
	   27 B(2,4,20)       =    109.803924    -0.000125    -0.395854   109.408070
	   28 B(2,4,21)       =    108.977493    -0.000008    -0.004100   108.973393
	   29 B(2,4,22)       =    112.450460    -0.000049    -0.095978   112.354482
	   30 B(3,2,4)        =    119.978044    -0.000624    -1.045965   118.932079
	   31 B(3,5,8)        =    111.963093    -0.000124    -0.266567   111.696525
	   32 B(3,5,9)        =    108.794401     0.000053     0.133105   108.927507
	   33 B(3,5,10)       =    110.812544    -0.000066    -0.334322   110.478223
	   34 B(5,3,6)        =    108.936234     0.000103     0.291987   109.228222
	   35 B(5,3,7)        =    109.468760     0.000182     0.192179   109.660939
	   36 B(5,8,11)       =    114.572638    -0.000047    -0.098800   114.473839
	   37 B(5,8,12)       =    109.365469     0.000009     0.018918   109.384388
	   38 B(5,8,13)       =    108.489734     0.000034     0.100956   108.590690
	   39 B(6,3,7)        =    107.101515     0.000020     0.640302   107.741817
	   40 B(8,5,9)        =    109.776080     0.000046     0.173121   109.949202
	   41 B(8,5,10)       =    108.391825     0.000137     0.438497   108.830321
	   42 B(8,11,14)      =    114.532100     0.000004     0.010329   114.542429
	   43 B(8,11,15)      =    108.364960    -0.000013    -0.056959   108.308001
	   44 B(8,11,16)      =    109.298361     0.000006     0.030118   109.328479
	   45 B(9,5,10)       =    106.978027    -0.000044    -0.137027   106.841000
	   46 B(11,8,12)      =    109.247073     0.000019     0.035819   109.282892
	   47 B(11,8,13)      =    108.597985    -0.000002    -0.031007   108.566978
	   48 B(11,14,17)     =    111.037139     0.000001     0.002694   111.039833
	   49 B(11,14,18)     =    110.742093    -0.000004    -0.011235   110.730859
	   50 B(11,14,19)     =    112.065190     0.000002     0.006514   112.071704
	   51 B(12,8,13)      =    106.235403    -0.000011    -0.020915   106.214488
	   52 B(14,11,15)     =    108.710241     0.000006     0.014433   108.724673
	   53 B(14,11,16)     =    109.458005    -0.000005    -0.002350   109.455655
	   54 B(15,11,16)     =    106.137020     0.000001     0.003274   106.140294
	   55 B(17,14,18)     =    107.670993     0.000001     0.001884   107.672877
	   56 B(17,14,19)     =    107.749559    -0.000000     0.002775   107.752334
	   57 B(18,14,19)     =    107.381687     0.000000    -0.002603   107.379084
	   58 B(20,4,21)      =    108.990473     0.000081     0.235939   109.226412
	   59 B(20,4,22)      =    107.388250     0.000035     0.009425   107.397675
	   60 B(21,4,22)      =    109.168368     0.000072     0.263061   109.431429
	   61 D(1,2,3,5)      =    131.067541    -0.000000     0.225503   131.293044
	   62 *D(1,2,3,6)     =     10.000008    -0.000000     0.000000    10.000008
	   63 D(1,2,3,7)      =   -104.365598    -0.000035    -0.858947  -105.224545
	   64 D(1,2,4,20)     =    111.717345     0.000037     1.997458   113.714803
	   65 D(1,2,4,21)     =     -7.595630     0.000033     1.948236    -5.647394
	   66 D(1,2,4,22)     =   -128.779511     0.000021     1.681367  -127.098144
	   67 D(2,3,5,8)      =   -174.387855    -0.000022    -0.404553  -174.792408
	   68 D(2,3,5,9)      =    -52.880202    -0.000019    -0.268976   -53.149178
	   69 D(2,3,5,10)     =     64.464562    -0.000033    -0.548844    63.915717
	   70 D(3,2,4,20)     =    -58.277786    -0.000023    -0.988599   -59.266385
	   71 D(3,2,4,21)     =   -177.590761    -0.000027    -1.037821  -178.628582
	   72 D(3,2,4,22)     =     61.225358    -0.000039    -1.304690    59.920668
	   73 D(3,5,8,11)     =   -177.236795     0.000008     0.174067  -177.062727
	   74 D(3,5,8,12)     =     59.743784     0.000008     0.183190    59.926974
	   75 D(3,5,8,13)     =    -55.724682     0.000005     0.142391   -55.582291
	   76 D(4,2,3,5)      =    -58.954305     0.000065     3.248286   -55.706020
	   77 D(4,2,3,6)      =    179.978162     0.000066     3.022782   183.000945
	   78 D(4,2,3,7)      =     65.612556     0.000031     2.163836    67.776392
	   79 D(5,8,11,14)    =    -66.231171     0.000001     0.012713   -66.218458
	   80 D(5,8,11,15)    =    172.231700     0.000001     0.029320   172.261020
	   81 D(5,8,11,16)    =     56.984073     0.000002     0.040396    57.024469
	   82 D(6,3,5,8)      =    -55.331981    -0.000009     0.047535   -55.284446
	   83 D(6,3,5,9)      =     66.175672    -0.000005     0.183112    66.358784
	   84 D(6,3,5,10)     =   -176.479565    -0.000019    -0.096756  -176.576321
	   85 D(7,3,5,8)      =     61.477565     0.000034     1.099019    62.576584
	   86 D(7,3,5,9)      =   -177.014781     0.000037     1.234596  -175.780186
	   87 D(7,3,5,10)     =    -59.670018     0.000023     0.954728   -58.715290
	   88 D(8,11,14,17)   =    -56.289131     0.000001     0.038521   -56.250610
	   89 D(8,11,14,18)   =   -175.854946     0.000001     0.041778  -175.813168
	   90 D(8,11,14,19)   =     64.264333     0.000002     0.048418    64.312751
	   91 D(9,5,8,11)     =     61.822196     0.000004     0.063780    61.885977
	   92 D(9,5,8,12)     =    -61.197225     0.000004     0.072903   -61.124322
	   93 D(9,5,8,13)     =   -176.665691     0.000001     0.032104  -176.633587
	   94 D(10,5,8,11)    =    -54.700932    -0.000008    -0.119425   -54.820357
	   95 D(10,5,8,12)    =   -177.720354    -0.000008    -0.110302  -177.830656
	   96 D(10,5,8,13)    =     66.811180    -0.000010    -0.151101    66.660079
	   97 D(12,8,11,14)   =     56.851994    -0.000000    -0.005397    56.846597
	   98 D(12,8,11,15)   =    -64.685135    -0.000000     0.011210   -64.673925
	   99 D(12,8,11,16)   =   -179.932762     0.000000     0.022286  -179.910476
	  100 D(13,8,11,14)   =    172.316014    -0.000001    -0.027921   172.288093
	  101 D(13,8,11,15)   =     50.778886    -0.000001    -0.011314    50.767571
	  102 D(13,8,11,16)   =    -64.468742    -0.000001    -0.000238   -64.468980
	  103 D(15,11,14,17)  =     65.058632    -0.000001    -0.017282    65.041350
	  104 D(15,11,14,18)  =    -54.507183    -0.000001    -0.014026   -54.521208
	  105 D(15,11,14,19)  =   -174.387903    -0.000001    -0.007386  -174.395289
	  106 D(16,11,14,17)  =   -179.418476    -0.000000    -0.006673  -179.425150
	  107 D(16,11,14,18)  =     61.015709    -0.000000    -0.003417    61.012292
	  108 D(16,11,14,19)  =    -58.865012    -0.000000     0.003224   -58.861788
[...]
	 D(3,2,4,20)      =        -0.785162	     -44.986488
	 D(3,2,4,21)      =        -2.906567	    -166.534012
	 D(3,2,4,22)      =         1.290499	      73.940156
	 D(3,5,8,11)      =        -3.077501	    -176.327833
	 D(3,5,8,12)      =         1.059525	      60.706300
	 D(3,5,8,13)      =        -0.955903	     -54.769197
	 D(4,2,3,5)       =        -0.848116	     -48.593445
	 D(4,2,3,6)       =        -2.992894	    -171.480172
	 D(4,2,3,7)       =         1.281785	      73.440884
	 D(5,8,11,14)     =        -1.149507	     -65.861926
	 D(5,8,11,15)     =         3.012839	     172.622977
	 D(5,8,11,16)     =         1.001618	      57.388461
	 D(6,3,5,8)       =        -0.968550	     -55.493841
	 D(6,3,5,9)       =         1.158170	      66.358272
	 D(6,3,5,10)      =        -3.087639	    -176.908692
	 D(7,3,5,8)       =         1.092163	      62.576327
	 D(7,3,5,9)       =        -3.064302	    -175.571560
	 D(7,3,5,10)      =        -1.026926	     -58.838525
	 D(8,11,14,17)    =        -0.979591	     -56.126421
	 D(8,11,14,18)    =        -3.066443	    -175.694257
	 D(8,11,14,19)    =         1.124784	      64.445356
	 D(9,5,8,11)      =         1.087810	      62.326928
	 D(9,5,8,12)      =        -1.058349	     -60.638940
	 D(9,5,8,13)      =        -3.073777	    -176.114436
	 D(10,5,8,11)     =        -0.947340	     -54.278612
	 D(10,5,8,12)     =        -3.093500	    -177.244480
	 D(10,5,8,13)     =         1.174258	      67.280024
	 D(12,8,11,14)    =         0.996325	      57.085211
	 D(12,8,11,15)    =        -1.124514	     -64.429885
	 D(12,8,11,16)    =        -3.135735	    -179.664401
	 D(13,8,11,14)    =         3.011573	     172.550447
	 D(13,8,11,15)    =         0.890735	      51.035351
	 D(13,8,11,16)    =        -1.120487	     -64.199165
	 D(15,11,14,17)   =         1.137268	      65.160634
	 D(15,11,14,18)   =        -0.949585	     -54.407202
	 D(15,11,14,19)   =        -3.041543	    -174.267590
	 D(16,11,14,17)   =        -3.129471	    -179.305457
	 D(16,11,14,18)   =         1.066862	      61.126707
	 D(16,11,14,19)   =        -1.025096	     -58.733680

	Current energy   :      -348.0976027211

	Energy change for the previous step:
		Projected    :        -0.0000004519
		Actual       :        -0.0000004366

	Performing BFGS update.
	Previous computed or guess Hessian on step 1.
	Steps to be used in Hessian update: 12 11
	Taking RFO optimization step.
	Going to follow RFO solution 1.
	Using RFO vector 1.
	Norm of target step-size    0.00620
	Projected energy change by RFO approximation:        -0.0000002610

	Back-transformation to cartesian coordinates...
	Successfully converged to displaced geometry.

	Back-transformation to cartesian coordinates to adjust frozen coordinates...
	Successfully converged to displaced geometry.

	--- Internal Coordinate Step in ANG or DEG, aJ/ANG or AJ/DEG ---
	 ---------------------------------------------------------------------------
	   Coordinate                Previous        Force       Change         New 
	   ----------                --------       ------       ------       ------
	    1 R(1,2)          =      1.193418     0.000118     0.000006     1.193424
	    2 R(2,3)          =      1.518785    -0.000112    -0.000020     1.518765
	    3 R(2,4)          =      1.515091    -0.000023    -0.000006     1.515085
	    4 R(3,5)          =      1.534400     0.000244     0.000061     1.534461
	    5 R(3,6)          =      1.083433    -0.000088    -0.000015     1.083418
	    6 R(3,7)          =      1.089418     0.000024    -0.000001     1.089417
	    7 R(4,20)         =      1.085572     0.000047     0.000009     1.085581
	    8 R(4,21)         =      1.081123    -0.000034    -0.000005     1.081119
	    9 R(4,22)         =      1.086026    -0.000033    -0.000010     1.086015
	   10 R(5,8)          =      1.531217     0.000045    -0.000000     1.531217
	   11 R(5,9)          =      1.086616     0.000116     0.000016     1.086632
	   12 R(5,10)         =      1.087179    -0.000131    -0.000027     1.087153
	   13 R(8,11)         =      1.532770     0.000024     0.000013     1.532783
	   14 R(8,12)         =      1.088273    -0.000007    -0.000001     1.088272
	   15 R(8,13)         =      1.088071    -0.000017    -0.000002     1.088068
	   16 R(11,14)        =      1.529782    -0.000114    -0.000019     1.529763
	   17 R(11,15)        =      1.086969     0.000044     0.000007     1.086976
	   18 R(11,16)        =      1.088156    -0.000026    -0.000003     1.088152
	   19 R(14,17)        =      1.086577    -0.000022    -0.000003     1.086574
	   20 R(14,18)        =      1.085475     0.000011     0.000001     1.085476
	   21 R(14,19)        =      1.085012     0.000032     0.000002     1.085014
	   22 B(1,2,3)        =    120.967120    -0.000000    -0.001792   120.965328
	   23 B(1,2,4)        =    120.917926     0.000000     0.000037   120.917963
	   24 B(2,3,5)        =    115.033722    -0.000000    -0.004469   115.029252
	   25 B(2,3,6)        =    106.853129    -0.000000    -0.004965   106.848164
	   26 B(2,3,7)        =    107.394291    -0.000001    -0.000067   107.394224
	   27 B(2,4,20)       =    111.277097     0.000001     0.007455   111.284553
	   28 B(2,4,21)       =    109.276393    -0.000001    -0.005327   109.271066
	   29 B(2,4,22)       =    110.081139    -0.000000    -0.002421   110.078718
	   30 B(3,2,4)        =    118.098096    -0.000000     0.001955   118.100051
	   31 B(3,5,8)        =    111.838082     0.000001     0.003243   111.841325
	   32 B(3,5,9)        =    109.079700     0.000001     0.008633   109.088333
	   33 B(3,5,10)       =    110.138972    -0.000001    -0.005086   110.133886
	   34 B(5,3,6)        =    110.374954    -0.000000    -0.004607   110.370346
	   35 B(5,3,7)        =    109.397580     0.000001     0.009999   109.407579
	   36 B(5,8,11)       =    114.533352     0.000000     0.001204   114.534557
	   37 B(5,8,12)       =    109.256868    -0.000000    -0.000581   109.256287
	   38 B(5,8,13)       =    108.627988     0.000000    -0.000354   108.627634
	   39 B(6,3,7)        =    107.484090     0.000000     0.004526   107.488616
	   40 B(8,5,9)        =    109.959275    -0.000001     0.002977   109.962252
	   41 B(8,5,10)       =    109.036588    -0.000000    -0.008308   109.028280
	   42 B(8,11,14)      =    114.555137    -0.000001    -0.002125   114.553012
	   43 B(8,11,15)      =    108.301683     0.000001     0.005195   108.306878
	   44 B(8,11,16)      =    109.324186     0.000000    -0.000793   109.323393
	   45 B(9,5,10)       =    106.653622     0.000000    -0.001698   106.651924
	   46 B(11,8,12)      =    109.291592     0.000000     0.000191   109.291784
	   47 B(11,8,13)      =    108.575053    -0.000000    -0.000811   108.574241
	   48 B(11,14,17)     =    111.051282    -0.000000    -0.002257   111.049024
	   49 B(11,14,18)     =    110.727412    -0.000000    -0.000497   110.726915
	   50 B(11,14,19)     =    112.066770    -0.000000     0.000811   112.067581
	   51 B(12,8,13)      =    106.226799     0.000000     0.000287   106.227086
	   52 B(14,11,15)     =    108.717484     0.000000     0.000251   108.717735
	   53 B(14,11,16)     =    109.456918     0.000000    -0.002314   109.454604
	   54 B(15,11,16)     =    106.143397    -0.000000     0.000033   106.143430
	   55 B(17,14,18)     =    107.672927     0.000000     0.000646   107.673573
	   56 B(17,14,19)     =    107.755312     0.000000     0.000175   107.755487
	   57 B(18,14,19)     =    107.372760     0.000000     0.001248   107.374008
	   58 B(20,4,21)      =    109.902065     0.000000     0.000402   109.902467
	   59 B(20,4,22)      =    107.381000    -0.000000     0.001385   107.382386
	   60 B(21,4,22)      =    108.878262     0.000000    -0.001532   108.876730
	   61 D(1,2,3,5)      =    132.886735    -0.000000    -0.012625   132.874110
	   62 *D(1,2,3,6)     =     10.000008     0.000000    -0.000000    10.000008
	   63 D(1,2,3,7)      =   -105.078935     0.000000    -0.002766  -105.081701
	   64 D(1,2,4,20)     =    133.534094    -0.000000    -0.023964   133.510129
	   65 D(1,2,4,21)     =     11.986569    -0.000000    -0.025732    11.960837
	   66 D(1,2,4,22)     =   -107.539262     0.000000    -0.019086  -107.558348
	   67 D(2,3,5,8)      =   -176.477046     0.000000     0.023426  -176.453620
	   68 D(2,3,5,9)      =    -54.624933     0.000000     0.035240   -54.589693
	   69 D(2,3,5,10)     =     62.108103     0.000000     0.035326    62.143429
	   70 D(3,2,4,20)     =    -44.986488    -0.000000    -0.032766   -45.019253
	   71 D(3,2,4,21)     =   -166.534012    -0.000000    -0.034533  -166.568546
	   72 D(3,2,4,22)     =     73.940156     0.000000    -0.027887    73.912269
	   73 D(3,5,8,11)     =   -176.327833     0.000000    -0.069406  -176.397238
	   74 D(3,5,8,12)     =     60.706300     0.000000    -0.070067    60.636233
	   75 D(3,5,8,13)     =    -54.769197     0.000000    -0.069901   -54.839098
	   76 D(4,2,3,5)      =    -48.593445    -0.000000    -0.003791   -48.597236
	   77 D(4,2,3,6)      =   -171.480172     0.000000     0.008834  -171.471338
	   78 D(4,2,3,7)      =     73.440884     0.000000     0.006068    73.446953
	   79 D(5,8,11,14)    =    -65.861926     0.000000     0.040824   -65.821102
	   80 D(5,8,11,15)    =    172.622977     0.000000     0.038083   172.661061
	   81 D(5,8,11,16)    =     57.388461     0.000000     0.035641    57.424102
	   82 D(6,3,5,8)      =    -55.493841    -0.000000     0.010176   -55.483665
	   83 D(6,3,5,9)      =     66.358272    -0.000000     0.021990    66.380262
	   84 D(6,3,5,10)     =   -176.908692    -0.000000     0.022076  -176.886616
	   85 D(7,3,5,8)      =     62.576327     0.000000     0.019044    62.595370
	   86 D(7,3,5,9)      =   -175.571560     0.000000     0.030858  -175.540702
	   87 D(7,3,5,10)     =    -58.838525     0.000000     0.030944   -58.807581
	   88 D(8,11,14,17)   =    -56.126421    -0.000000     0.067739   -56.058681
	   89 D(8,11,14,18)   =   -175.694257    -0.000000     0.068731  -175.625527
	   90 D(8,11,14,19)   =     64.445356    -0.000000     0.066944    64.512299
	   91 D(9,5,8,11)     =     62.326928    -0.000000    -0.084583    62.242345
	   92 D(9,5,8,12)     =    -60.638940    -0.000000    -0.085244   -60.724184
	   93 D(9,5,8,13)     =   -176.114436    -0.000000    -0.085078  -176.199514
	   94 D(10,5,8,11)    =    -54.278612    -0.000000    -0.079415   -54.358028
	   95 D(10,5,8,12)    =   -177.244480    -0.000000    -0.080076  -177.324556
	   96 D(10,5,8,13)    =     67.280024    -0.000000    -0.079911    67.200113
	   97 D(12,8,11,14)   =     57.085211     0.000000     0.041070    57.126281
	   98 D(12,8,11,15)   =    -64.429885     0.000000     0.038329   -64.391556
	   99 D(12,8,11,16)   =   -179.664401    -0.000000     0.035887  -179.628514
	  100 D(13,8,11,14)   =    172.550447     0.000000     0.041070   172.591517
	  101 D(13,8,11,15)   =     51.035351     0.000000     0.038329    51.073679
	  102 D(13,8,11,16)   =    -64.199165    -0.000000     0.035887   -64.163279
	  103 D(15,11,14,17)  =     65.160634     0.000000     0.073193    65.233827
	  104 D(15,11,14,18)  =    -54.407202     0.000000     0.074184   -54.333019
	  105 D(15,11,14,19)  =   -174.267590     0.000000     0.072397  -174.195193
	  106 D(16,11,14,17)  =   -179.305457     0.000000     0.072112  -179.233345
	  107 D(16,11,14,18)  =     61.126707     0.000000     0.073103    61.199810
	  108 D(16,11,14,19)  =    -58.733680     0.000000     0.071316   -58.662364
	 ---------------------------------------------------------------------------

  ==> Convergence Check <==

  Measures of convergence in internal coordinates in au.
  Criteria marked as inactive (o), active & met (*), and active & unmet ( ).
  ---------------------------------------------------------------------------------------------
   Step     Total Energy     Delta E     MAX Force     RMS Force      MAX Disp      RMS Disp   
  ---------------------------------------------------------------------------------------------
    Convergence Criteria    1.00e-06 *    3.00e-04 *             o    1.20e-03 *             o
  ---------------------------------------------------------------------------------------------
     13    -348.09760272   -4.37e-07 *    2.96e-05 *    6.72e-06 o    1.49e-03      5.96e-04 o  ~
  ---------------------------------------------------------------------------------------------


  **** Optimization is complete! (in 13 steps) ****

  ==> Optimization Summary <==

  Measures of convergence in internal coordinates in au.
  --------------------------------------------------------------------------------------------------------------- ~
   Step         Total Energy             Delta E       MAX Force       RMS Force        MAX Disp        RMS Disp  ~
  --------------------------------------------------------------------------------------------------------------- ~
      1    -348.094812594696   -348.094812594696      0.02275475      0.00334060      0.19924503      0.04807856  ~
      2    -348.095557997811     -0.000745403115      0.00820069      0.00186110      0.05669328      0.01202809  ~
      3    -348.096792825128     -0.001234827317      0.00342649      0.00074490      0.16516223      0.03607169  ~
      4    -348.096729549469      0.000063275658      0.00696244      0.00137217      0.09749549      0.02075462  ~
      5    -348.097392680984     -0.000663131515      0.00266577      0.00042404      0.11406110      0.03608442  ~
      6    -348.097451200376     -0.000058519392      0.00162192      0.00034080      0.15920901      0.03608394  ~
      7    -348.097254796462      0.000196403914      0.00463433      0.00088955      0.05811452      0.01144207  ~
      8    -348.097577513088     -0.000322716626      0.00138333      0.00023323      0.05850366      0.02029003  ~
      9    -348.097558849325      0.000018663763      0.00157746      0.00029715      0.03553152      0.01398037  ~
     10    -348.097597713616     -0.000038864291      0.00024205      0.00005837      0.03359349      0.01066821  ~
     11    -348.097590811790      0.000006901827      0.00037618      0.00009157      0.01933016      0.00753919  ~
     12    -348.097602284470     -0.000011472680      0.00010681      0.00001929      0.00614280      0.00217549  ~
     13    -348.097602721104     -0.000000436634      0.00002957      0.00000672      0.00148779      0.00059639  ~
  --------------------------------------------------------------------------------------------------------------- ~

	Writing optimization data to binary file.
	Final energy is   -348.0976027211040
	Final (previous) structure:
	Cartesian Geometry (in Angstrom)
	    O    -2.0069439130   2.2871261428  -0.6891443364
	    C    -1.7814126680   1.1463850010  -0.4206456787
	    C    -0.5529349223   0.4423634794  -0.9701029348
	    C    -2.7307597544   0.3493265527   0.4505252309
	    C     0.2562295557  -0.3527365368   0.0630726182
	    H     0.0662359111   1.2036149443  -1.4293975262
	    H    -0.8880863019  -0.2279314969  -1.7608047127
	    C     1.5218220574  -0.9594646929  -0.5491214976
	    H     0.5209218202   0.3031208507   0.8880105770
	    H    -0.3524684072  -1.1502014156   0.4819946010
	    C     2.3318993383  -1.8413283532   0.4076828004
	    H     2.1569130245  -0.1601557909  -0.9260868300
	    H     1.2381297780  -1.5558438213  -1.4138463171
	    C     2.9544774765  -1.0935980643   1.5881613986
	    H     3.1257338564  -2.3206506888  -0.1593959719
	    H     1.6990158275  -2.6442469307   0.7803260286
	    H     3.5833949877  -0.2767408853   1.2448584471
	    H     3.5735931922  -1.7593708893   2.1812030624
	    H     2.2018768070  -0.6764988348   2.2491238630
	    H    -2.9312844878  -0.6280907413   0.0228425287
	    H    -3.6554555333   0.8976097785   0.5652008838
	    H    -2.2924377935   0.1905282065   1.4313966056
	Saving final (previous) structure.
			--------------------------
			 OPTKING Finished Execution 
			--------------------------

    Final optimized geometry and variables:
    Molecular point group: c1
    Full point group: C1

    Geometry (in Angstrom), charge = 0, multiplicity = 1:

    O           -2.006943759694     2.287125968162    -0.689144283738
    C           -1.781412531986     1.146384913465    -0.420645646584
    C           -0.552934880083     0.442363445627    -0.970102860726
    C           -2.730759545833     0.349326526050     0.450525196543
    C            0.256229536144    -0.352736509908     0.063072613423
    H            0.066235906002     1.203614852358    -1.429397417049
    H           -0.888086234120    -0.227931479510    -1.760804578224
    C            1.521821941172    -0.959464619606    -0.549121455663
    H            0.520921780440     0.303120827535     0.888010509227
    H           -0.352468380254    -1.150201327778     0.481994564209
    C            2.331899160179    -1.841328212606     0.407682769313
    H            2.156912859801    -0.160155778685    -0.926086759303
    H            1.238129683437    -1.555843702515    -1.413846209173
    C            2.954477250912    -1.093597980831     1.588161277339
    H            3.125733617682    -2.320650511547    -0.159395959768
    H            1.699015697775    -2.644246728787     0.780325968997
    H            3.583394714035    -0.276740864120     1.244858352010
    H            3.573592919314    -1.759370754950     2.181202895787
    H            2.201876638813    -0.676498783093     2.249123691276
    H           -2.931284263981    -0.628090693287     0.022842526945
    H           -3.655455254194     0.897609709924     0.565200840666
    H           -2.292437618434     0.190528191942     1.431396496331

	Cleaning optimization helper files.


Properties will be evaluated at   0.000000,   0.000000,   0.000000 Bohr

Properties computed using the  density matrix

  Nuclear Dipole Moment: (a.u.)
     X:     7.5333      Y:    -8.2433      Z:     3.8923

  Electronic Dipole Moment: (a.u.)
     X:    -7.1831      Y:     7.0187      Z:    -3.6061

  Dipole Moment: (a.u.)
     X:     0.3502      Y:    -1.2246      Z:     0.2862     Total:     1.3054

  Dipole Moment: (Debye)
     X:     0.8900      Y:    -3.1126      Z:     0.7274     Total:     3.3180

  Quadrupole Moment: (Debye Ang)
    XX:   -52.5604     YY:   -61.0913     ZZ:   -51.8656
    XY:     6.6336     XZ:    -2.1880     YZ:     2.9940

  Traceless Quadrupole Moment: (Debye Ang)
    XX:     2.6120     YY:    -5.9188     ZZ:     3.3068
    XY:     6.6336     XZ:    -2.1880     YZ:     2.9940

  Mulliken Charges: (a.u.)
   Center  Symbol    Alpha    Beta     Spin     Total
       1     O     4.26185  4.26185  0.00000 -0.52369
       2     C     2.73132  2.73132  0.00000  0.53735
       3     C     3.20641  3.20641  0.00000 -0.41282
       4     C     3.29126  3.29126  0.00000 -0.58252
       5     C     3.16631  3.16631  0.00000 -0.33262
       6     H     0.39901  0.39901  0.00000  0.20199
       7     H     0.40984  0.40984  0.00000  0.18031
       8     C     3.15279  3.15279  0.00000 -0.30559
       9     H     0.41394  0.41394  0.00000  0.17212
      10     H     0.41935  0.41935  0.00000  0.16130
      11     C     3.15328  3.15328  0.00000 -0.30656
      12     H     0.41976  0.41976  0.00000  0.16049
      13     H     0.42067  0.42067  0.00000  0.15866
      14     C     3.24185  3.24185  0.00000 -0.48369
      15     H     0.41872  0.41872  0.00000  0.16256
      16     H     0.42294  0.42294  0.00000  0.15412
      17     H     0.42045  0.42045  0.00000  0.15911
      18     H     0.41759  0.41759  0.00000  0.16483
      19     H     0.42047  0.42047  0.00000  0.15907
      20     H     0.41139  0.41139  0.00000  0.17722
      21     H     0.39599  0.39599  0.00000  0.20801
      22     H     0.40482  0.40482  0.00000  0.19036

   Total alpha = 32.00000, Total beta = 32.00000, Total charge =  0.00000


*** PSI4 exiting successfully. Buy a developer a beer!
