    -----------------------------------------------------------------------
          Psi4: An Open-Source Ab Initio Electronic Structure Package
                              Psi4 (no tag) Driver

                          Git: Rev {detached?}  

    J. M. Turney, A. C. Simmonett, R. M. Parrish, E. G. Hohenstein,
    F. A. Evangelista, J. T. Fermann, B. J. Mintz, L. A. Burns, J. J. Wilke,
    M. L. Abrams, N. J. Russ, M. L. Leininger, C. L. Janssen, E. T. Seidl,
    W. D. Allen, H. F. Schaefer, R. A. King, E. F. Valeev, C. D. Sherrill,
    and T. D. Crawford, WIREs Comput. Mol. Sci. 2, 556-565 (2012)
    (doi: 10.1002/wcms.93)

                         Additional Contributions by
    A. E. DePrince, M. Saitow, U. Bozkaya, A. Yu. Sokolov
    -----------------------------------------------------------------------


    Psi4 started on: Fri Sep  2 00:00:48 2016

    Process ID:  26705
    PSI4DATADIR: /export131/home/mjharvey/miniconda3/share
    Memory level set to 256.000 MB

  ==> Input File <==

--------------------------------------------------------------------------
set {
	reference rhf
	basis 6-31G*
}


set_num_threads( 1 )
memory 2 gb

molecule MOL {
0 1

H	 2.591676	 2.013956	 0.335017
O	 3.341076	 1.666752	 -0.126416
C	 3.569581	 0.339145	 0.272707
C	 2.570040	 -0.156663	 1.311851
H	 3.487392	 -0.256963	 -0.627056
H	 4.586600	 0.222985	 0.645481
C	 2.636035	 0.591580	 2.645509
H	 1.569561	 -0.072837	 0.895461
H	 2.755171	 -1.215983	 1.481956
C	 1.658663	 0.035153	 3.684717
H	 2.424789	 1.643647	 2.475521
H	 3.649729	 0.535295	 3.042492
C	 1.744137	 0.693676	 5.066521
H	 0.642534	 0.125859	 3.305111
H	 1.844957	 -1.030627	 3.799209
C	 1.316435	 2.163323	 5.107604
H	 1.115416	 0.130376	 5.752974
H	 2.761003	 0.603161	 5.445503
C	 1.318014	 2.745285	 6.522791
H	 0.318474	 2.258818	 4.682087
H	 1.973321	 2.761953	 4.481148
C	 0.897637	 4.213989	 6.565874
H	 0.651190	 2.160795	 7.153033
H	 2.311971	 2.641946	 6.953203
H	 -0.106096	 4.346210	 6.171843
H	 0.906874	 4.596560	 7.581841
H	 1.567663	 4.831530	 5.974204

	symmetry c1
}
set optking {
	frozen_dihedral = ("
		14 10 7 4,
		14 10 13 16,
		10 7 4 8,
		8 4 3 2,
		10 13 16 20,
		20 16 19 22
	")
}

ee = energy('scf')
oeprop('DIPOLE', 'QUADRUPOLE', 'MULLIKEN_CHARGES')
f=open( 'psi4out.xyz', 'w' )
f.write( "27  " )
f.write( str(ee) + "\n" )
f.write( MOL.save_string_xyz() )
f.close()
--------------------------------------------------------------------------

  Memory set to   2.000 GiB by Python script.

*** tstart() called on cx1-3-15-4.cx1.hpc.ic.ac.uk
*** at Fri Sep  2 00:00:48 2016


         ---------------------------------------------------------
                                   SCF
            by Justin Turney, Rob Parrish, and Andy Simmonett
                              RHF Reference
                        1 Threads,   2000 MiB Core
         ---------------------------------------------------------

  ==> Geometry <==

    Molecular point group: c1
    Full point group: C1

    Geometry (in Angstrom), charge = 0, multiplicity = 1:

       Center              X                  Y                   Z               Mass       
    ------------   -----------------  -----------------  -----------------  -----------------
           H          0.460876379136     0.625653060905    -3.062989117528     1.007825032070
           O          1.210276379136     0.278449060905    -3.524422117528    15.994914619560
           C          1.438781379136    -1.049157939095    -3.125299117528    12.000000000000
           C          0.439240379136    -1.544965939095    -2.086155117528    12.000000000000
           H          1.356592379136    -1.645265939095    -4.025062117528     1.007825032070
           H          2.455800379136    -1.165317939095    -2.752525117528     1.007825032070
           C          0.505235379136    -0.796722939095    -0.752497117528    12.000000000000
           H         -0.561238620864    -1.461139939095    -2.502545117528     1.007825032070
           H          0.624371379136    -2.604285939095    -1.916050117528     1.007825032070
           C         -0.472136620864    -1.353149939095     0.286710882472    12.000000000000
           H          0.293989379136     0.255344060905    -0.922485117528     1.007825032070
           H          1.518929379136    -0.853007939095    -0.355514117528     1.007825032070
           C         -0.386662620864    -0.694626939095     1.668514882472    12.000000000000
           H         -1.488265620864    -1.262443939095    -0.092895117528     1.007825032070
           H         -0.285842620864    -2.418929939095     0.401202882472     1.007825032070
           C         -0.814364620864     0.775020060905     1.709597882472    12.000000000000
           H         -1.015383620864    -1.257926939095     2.354967882472     1.007825032070
           H          0.630203379136    -0.785141939095     2.047496882472     1.007825032070
           C         -0.812785620864     1.356982060905     3.124784882472    12.000000000000
           H         -1.812325620864     0.870515060905     1.284080882472     1.007825032070
           H         -0.157478620864     1.373650060905     1.083141882472     1.007825032070
           C         -1.233162620864     2.825686060905     3.167867882472    12.000000000000
           H         -1.479609620864     0.772492060905     3.755026882472     1.007825032070
           H          0.181171379136     1.253643060905     3.555196882472     1.007825032070
           H         -2.236895620864     2.957907060905     2.773836882472     1.007825032070
           H         -1.223925620864     3.208257060905     4.183834882472     1.007825032070
           H         -0.563136620864     3.443227060905     2.576197882472     1.007825032070

  Running in c1 symmetry.

  Rotational constants: A =      0.09942  B =      0.01632  C =      0.01453 [cm^-1]
  Rotational constants: A =   2980.66953  B =    489.23669  C =    435.46333 [MHz]
  Nuclear repulsion =  460.107062947124064

  Charge       = 0
  Multiplicity = 1
  Electrons    = 74
  Nalpha       = 37
  Nbeta        = 37

  ==> Algorithm <==

  SCF Algorithm Type is DF.
  DIIS enabled.
  MOM disabled.
  Fractional occupation disabled.
  Guess Type is CORE.
  Energy threshold   = 1.00e-06
  Density threshold  = 1.00e-06
  Integral threshold = 0.00e+00

  ==> Primary Basis <==

  Basis Set: 6-31G*
    Number of shells: 90
    Number of basis function: 171
    Number of Cartesian functions: 171
    Spherical Harmonics?: false
    Max angular momentum: 2

  ==> Pre-Iterations <==

   -------------------------------------------------------
    Irrep   Nso     Nmo     Nalpha   Nbeta   Ndocc  Nsocc
   -------------------------------------------------------
     A        171     171       0       0       0       0
   -------------------------------------------------------
    Total     171     171      37      37      37       0
   -------------------------------------------------------

 OEINTS: Overlap, kinetic, potential, dipole, and quadrupole integrals
         stored in file 35.

  ==> Integral Setup <==

  ==> DFJK: Density-Fitted J/K Matrices <==

    J tasked:                  Yes
    K tasked:                  Yes
    wK tasked:                  No
    OpenMP threads:              1
    Integrals threads:           1
    Memory (MB):              1430
    Algorithm:                Core
    Integral Cache:           NONE
    Schwarz Cutoff:          1E-12
    Fitting Condition:       1E-12

   => Auxiliary Basis Set <=

  Basis Set: 
    Number of shells: 378
    Number of basis function: 1179
    Number of Cartesian functions: 1179
    Spherical Harmonics?: false
    Max angular momentum: 3

  Minimum eigenvalue in the overlap matrix is 3.0582860436E-03.
  Using Symmetric Orthogonalization.
  SCF Guess: Core (One-Electron) Hamiltonian.

  ==> Iterations <==

                           Total Energy        Delta E     RMS |[F,P]|

   @DF-RHF iter   1:  -288.11953588762537   -2.88120e+02   5.81792e-02 
   @DF-RHF iter   2:    11.68398004287656    2.99804e+02   6.61718e-02 DIIS
   @DF-RHF iter   3:  -251.53246869875306   -2.63216e+02   5.10914e-02 DIIS
   @DF-RHF iter   4:  -239.95368477249872    1.15788e+01   6.33230e-02 DIIS
   @DF-RHF iter   5:  -374.62510201302382   -1.34671e+02   1.69705e-02 DIIS
   @DF-RHF iter   6:  -320.91946032461340    5.37056e+01   4.15826e-02 DIIS
   @DF-RHF iter   7:  -387.69226574542120   -6.67728e+01   5.98852e-03 DIIS
   @DF-RHF iter   8:  -388.23689935836012   -5.44634e-01   1.41413e-03 DIIS
   @DF-RHF iter   9:  -388.26360932493458   -2.67100e-02   8.19221e-04 DIIS
   @DF-RHF iter  10:  -388.27527219710180   -1.16629e-02   3.66480e-04 DIIS
   @DF-RHF iter  11:  -388.27784149693559   -2.56930e-03   1.25767e-04 DIIS
   @DF-RHF iter  12:  -388.27822820464257   -3.86708e-04   3.13770e-05 DIIS
   @DF-RHF iter  13:  -388.27825466664797   -2.64620e-05   8.48824e-06 DIIS
   @DF-RHF iter  14:  -388.27825672426331   -2.05762e-06   2.42624e-06 DIIS
   @DF-RHF iter  15:  -388.27825687128268   -1.47019e-07   5.67144e-07 DIIS

  ==> Post-Iterations <==

    Orbital Energies (a.u.)
    -----------------------

    Doubly Occupied:                                                      

       1A    -20.548578     2A    -11.265743     3A    -11.224608  
       4A    -11.223556     5A    -11.220362     6A    -11.217624  
       7A    -11.216996     8A    -11.215788     9A    -11.209989  
      10A     -1.357235    11A     -1.098121    12A     -1.064312  
      13A     -1.013590    14A     -0.949635    15A     -0.890117  
      16A     -0.825891    17A     -0.805641    18A     -0.780824  
      19A     -0.662769    20A     -0.659039    21A     -0.649170  
      22A     -0.625616    23A     -0.608555    24A     -0.585511  
      25A     -0.576581    26A     -0.564126    27A     -0.541008  
      28A     -0.527405    29A     -0.510923    30A     -0.492195  
      31A     -0.488264    32A     -0.480374    33A     -0.467677  
      34A     -0.462271    35A     -0.448861    36A     -0.442759  
      37A     -0.425732  

    Virtual:                                                              

      38A      0.215455    39A      0.232205    40A      0.245041  
      41A      0.256129    42A      0.260874    43A      0.278279  
      44A      0.291051    45A      0.294665    46A      0.311431  
      47A      0.319920    48A      0.326007    49A      0.331773  
      50A      0.338940    51A      0.342094    52A      0.349817  
      53A      0.357551    54A      0.359702    55A      0.379692  
      56A      0.387176    57A      0.405377    58A      0.425589  
      59A      0.437726    60A      0.443396    61A      0.459583  
      62A      0.476173    63A      0.506165    64A      0.689928  
      65A      0.702663    66A      0.712503    67A      0.730687  
      68A      0.736899    69A      0.753326    70A      0.781434  
      71A      0.808018    72A      0.818489    73A      0.833288  
      74A      0.874618    75A      0.901043    76A      0.911258  
      77A      0.921781    78A      0.939999    79A      0.965131  
      80A      1.006426    81A      1.017915    82A      1.020148  
      83A      1.077647    84A      1.088056    85A      1.104506  
      86A      1.115754    87A      1.130452    88A      1.136114  
      89A      1.143900    90A      1.169175    91A      1.174775  
      92A      1.183469    93A      1.187525    94A      1.189167  
      95A      1.197717    96A      1.207967    97A      1.214767  
      98A      1.216210    99A      1.225821   100A      1.228049  
     101A      1.233646   102A      1.250552   103A      1.268963  
     104A      1.278047   105A      1.309180   106A      1.326588  
     107A      1.389040   108A      1.429429   109A      1.441057  
     110A      1.493390   111A      1.533720   112A      1.637079  
     113A      1.668218   114A      1.683244   115A      1.731337  
     116A      1.736333   117A      1.758958   118A      1.791555  
     119A      1.884701   120A      1.925497   121A      1.957979  
     122A      1.985683   123A      2.042008   124A      2.083652  
     125A      2.090212   126A      2.109653   127A      2.173639  
     128A      2.174592   129A      2.222350   130A      2.233249  
     131A      2.251676   132A      2.261134   133A      2.281352  
     134A      2.296298   135A      2.308331   136A      2.330091  
     137A      2.349209   138A      2.378768   139A      2.408206  
     140A      2.451986   141A      2.535955   142A      2.556907  
     143A      2.598248   144A      2.622238   145A      2.632848  
     146A      2.679377   147A      2.709704   148A      2.711336  
     149A      2.746942   150A      2.768121   151A      2.774103  
     152A      2.799556   153A      2.806319   154A      2.837513  
     155A      2.927882   156A      2.946427   157A      2.994460  
     158A      3.065547   159A      3.098134   160A      3.140725  
     161A      3.195859   162A      3.229998   163A      4.211229  
     164A      4.544694   165A      4.606641   166A      4.689203  
     167A      4.765387   168A      4.819708   169A      4.859643  
     170A      4.950557   171A      5.010989  

    Final Occupation by Irrep:
              A 
    DOCC [    37 ]

  Energy converged.

  @DF-RHF Final Energy:  -388.27825687128268

   => Energetics <=

    Nuclear Repulsion Energy =            460.1070629471240636
    One-Electron Energy =               -1438.0757285347388006
    Two-Electron Energy =                 589.6904087163308077
    DFT Exchange-Correlation Energy =       0.0000000000000000
    Empirical Dispersion Energy =           0.0000000000000000
    PCM Polarization Energy =               0.0000000000000000
    EFP Energy =                            0.0000000000000000
    Total Energy =                       -388.2782568712839293

    Alert: EFP and PCM quantities not currently incorporated into SCF psivars.

Properties will be evaluated at   0.000000,   0.000000,   0.000000 Bohr
  ==> Properties <==


Properties computed using the SCF density matrix

  Nuclear Dipole Moment: (a.u.)
     X:    -3.0899      Y:     1.2268      Z:     7.8437

  Electronic Dipole Moment: (a.u.)
     X:     2.6479      Y:    -1.6375      Z:    -7.2200

  Dipole Moment: (a.u.)
     X:    -0.4420      Y:    -0.4107      Z:     0.6237     Total:     0.8677

  Dipole Moment: (Debye)
     X:    -1.1234      Y:    -1.0438      Z:     1.5852     Total:     2.2056


  Saving occupied orbitals to File 180.

*** tstop() called on cx1-3-15-4.cx1.hpc.ic.ac.uk at Fri Sep  2 00:01:14 2016
Module time:
	user time   =      25.94 seconds =       0.43 minutes
	system time =       0.21 seconds =       0.00 minutes
	total time  =         26 seconds =       0.43 minutes
Total time:
	user time   =      25.94 seconds =       0.43 minutes
	system time =       0.21 seconds =       0.00 minutes
	total time  =         26 seconds =       0.43 minutes


Properties will be evaluated at   0.000000,   0.000000,   0.000000 Bohr

Properties computed using the  density matrix

  Nuclear Dipole Moment: (a.u.)
     X:    -3.0899      Y:     1.2268      Z:     7.8437

  Electronic Dipole Moment: (a.u.)
     X:     2.6479      Y:    -1.6375      Z:    -7.2200

  Dipole Moment: (a.u.)
     X:    -0.4420      Y:    -0.4107      Z:     0.6237     Total:     0.8677

  Dipole Moment: (Debye)
     X:    -1.1234      Y:    -1.0438      Z:     1.5852     Total:     2.2056

  Quadrupole Moment: (Debye Ang)
    XX:   -61.3951     YY:   -59.3787     ZZ:   -69.8719
    XY:    -2.4615     XZ:     5.1596     YZ:     3.3161

  Traceless Quadrupole Moment: (Debye Ang)
    XX:     2.1534     YY:     4.1699     ZZ:    -6.3233
    XY:    -2.4615     XZ:     5.1596     YZ:     3.3161

  Mulliken Charges: (a.u.)
   Center  Symbol    Alpha    Beta     Spin     Total
       1     H     0.27796  0.27796  0.00000  0.44409
       2     O     4.37846  4.37846  0.00000 -0.75692
       3     C     2.97475  2.97475  0.00000  0.05051
       4     C     3.18967  3.18967  0.00000 -0.37934
       5     H     0.42290  0.42290  0.00000  0.15420
       6     H     0.42616  0.42616  0.00000  0.14767
       7     C     3.15574  3.15574  0.00000 -0.31148
       8     H     0.41974  0.41974  0.00000  0.16053
       9     H     0.41692  0.41692  0.00000  0.16615
      10     C     3.15262  3.15262  0.00000 -0.30524
      11     H     0.42551  0.42551  0.00000  0.14897
      12     H     0.41902  0.41902  0.00000  0.16196
      13     C     3.15335  3.15335  0.00000 -0.30671
      14     H     0.42362  0.42362  0.00000  0.15276
      15     H     0.42092  0.42092  0.00000  0.15815
      16     C     3.15341  3.15341  0.00000 -0.30683
      17     H     0.42095  0.42095  0.00000  0.15811
      18     H     0.42296  0.42296  0.00000  0.15409
      19     C     3.15125  3.15125  0.00000 -0.30249
      20     H     0.42490  0.42490  0.00000  0.15020
      21     H     0.42196  0.42196  0.00000  0.15607
      22     C     3.23939  3.23939  0.00000 -0.47879
      23     H     0.42293  0.42293  0.00000  0.15414
      24     H     0.42254  0.42254  0.00000  0.15491
      25     H     0.42191  0.42191  0.00000  0.15617
      26     H     0.41893  0.41893  0.00000  0.16213
      27     H     0.42152  0.42152  0.00000  0.15696

   Total alpha = 37.00000, Total beta = 37.00000, Total charge = -0.00000


*** PSI4 exiting successfully. Buy a developer a beer!
