    -----------------------------------------------------------------------
          Psi4: An Open-Source Ab Initio Electronic Structure Package
                              Psi4 (no tag) Driver

                          Git: Rev {detached?}  

    J. M. Turney, A. C. Simmonett, R. M. Parrish, E. G. Hohenstein,
    F. A. Evangelista, J. T. Fermann, B. J. Mintz, L. A. Burns, J. J. Wilke,
    M. L. Abrams, N. J. Russ, M. L. Leininger, C. L. Janssen, E. T. Seidl,
    W. D. Allen, H. F. Schaefer, R. A. King, E. F. Valeev, C. D. Sherrill,
    and T. D. Crawford, WIREs Comput. Mol. Sci. 2, 556-565 (2012)
    (doi: 10.1002/wcms.93)

                         Additional Contributions by
    A. E. DePrince, M. Saitow, U. Bozkaya, A. Yu. Sokolov
    -----------------------------------------------------------------------


    Psi4 started on: Thu Sep  1 22:12:05 2016

    Process ID:  22084
    PSI4DATADIR: /export131/home/mjharvey/miniconda3/share
    Memory level set to 256.000 MB

  ==> Input File <==

--------------------------------------------------------------------------
set {
	reference rhf
	basis 6-31G*
}


set_num_threads( 1 )
memory 2 gb

molecule MOL {
0 1

O	 -0.682937	 1.318834	 -0.186099
C	 -0.860635	 0.152188	 -0.042321
C	 -2.173363	 -0.477127	 0.338347
O	 0.083258	 -0.765189	 -0.202595
H	 -2.477673	 -1.180929	 -0.427595
H	 -2.923125	 0.290956	 0.455536
H	 -2.058825	 -1.029004	 1.264191
C	 0.871714	 -1.131578	 0.927402
C	 0.177055	 -2.182422	 1.773464
H	 1.095821	 -0.247867	 1.505305
H	 1.787832	 -1.518279	 0.504685
H	 0.831880	 -2.495403	 2.580915
H	 -0.733346	 -1.788419	 2.207399
H	 -0.066677	 -3.053733	 1.175278

	symmetry c1
}
set optking {
	frozen_dihedral = ("
		10 8 4 2
	")
}

ee = energy('scf')
oeprop('DIPOLE', 'QUADRUPOLE', 'MULLIKEN_CHARGES')
f=open( 'psi4out.xyz', 'w' )
f.write( "14  " )
f.write( str(ee) + "\n" )
f.write( MOL.save_string_xyz() )
f.close()
--------------------------------------------------------------------------

  Memory set to   2.000 GiB by Python script.

*** tstart() called on cx1-3-1-3.cx1.hpc.ic.ac.uk
*** at Thu Sep  1 22:12:06 2016


         ---------------------------------------------------------
                                   SCF
            by Justin Turney, Rob Parrish, and Andy Simmonett
                              RHF Reference
                        1 Threads,   2000 MiB Core
         ---------------------------------------------------------

  ==> Geometry <==

    Molecular point group: c1
    Full point group: C1

    Geometry (in Angstrom), charge = 0, multiplicity = 1:

       Center              X                  Y                   Z               Mass       
    ------------   -----------------  -----------------  -----------------  -----------------
           O         -0.251441430239     1.840349358149    -0.629968583042    15.994914619560
           C         -0.429139430239     0.673703358149    -0.486190583042    12.000000000000
           C         -1.741867430239     0.044388358149    -0.105522583042    12.000000000000
           O          0.514753569761    -0.243673641851    -0.646464583042    15.994914619560
           H         -2.046177430239    -0.659413641851    -0.871464583042     1.007825032070
           H         -2.491629430239     0.812471358149     0.011666416958     1.007825032070
           H         -1.627329430239    -0.507488641851     0.820321416958     1.007825032070
           C          1.303209569761    -0.610062641851     0.483532416958    12.000000000000
           C          0.608550569761    -1.660906641851     1.329594416958    12.000000000000
           H          1.527316569761     0.273648358149     1.061435416958     1.007825032070
           H          2.219327569761    -0.996763641851     0.060815416958     1.007825032070
           H          1.263375569761    -1.973887641851     2.137045416958     1.007825032070
           H         -0.301850430239    -1.266903641851     1.763529416958     1.007825032070
           H          0.364818569761    -2.532217641851     0.731408416958     1.007825032070

  Running in c1 symmetry.

  Rotational constants: A =      0.20901  B =      0.08880  C =      0.07070 [cm^-1]
  Rotational constants: A =   6265.84400  B =   2662.03196  C =   2119.41806 [MHz]
  Nuclear repulsion =  250.019072816547890

  Charge       = 0
  Multiplicity = 1
  Electrons    = 48
  Nalpha       = 24
  Nbeta        = 24

  ==> Algorithm <==

  SCF Algorithm Type is DF.
  DIIS enabled.
  MOM disabled.
  Fractional occupation disabled.
  Guess Type is CORE.
  Energy threshold   = 1.00e-06
  Density threshold  = 1.00e-06
  Integral threshold = 0.00e+00

  ==> Primary Basis <==

  Basis Set: 6-31G*
    Number of shells: 52
    Number of basis function: 106
    Number of Cartesian functions: 106
    Spherical Harmonics?: false
    Max angular momentum: 2

  ==> Pre-Iterations <==

   -------------------------------------------------------
    Irrep   Nso     Nmo     Nalpha   Nbeta   Ndocc  Nsocc
   -------------------------------------------------------
     A        106     106       0       0       0       0
   -------------------------------------------------------
    Total     106     106      24      24      24       0
   -------------------------------------------------------

 OEINTS: Overlap, kinetic, potential, dipole, and quadrupole integrals
         stored in file 35.

  ==> Integral Setup <==

  ==> DFJK: Density-Fitted J/K Matrices <==

    J tasked:                  Yes
    K tasked:                  Yes
    wK tasked:                  No
    OpenMP threads:              1
    Integrals threads:           1
    Memory (MB):              1430
    Algorithm:                Core
    Integral Cache:           NONE
    Schwarz Cutoff:          1E-12
    Fitting Condition:       1E-12

   => Auxiliary Basis Set <=

  Basis Set: 
    Number of shells: 216
    Number of basis function: 686
    Number of Cartesian functions: 686
    Spherical Harmonics?: false
    Max angular momentum: 3

  Minimum eigenvalue in the overlap matrix is 3.9496014048E-03.
  Using Symmetric Orthogonalization.
  SCF Guess: Core (One-Electron) Hamiltonian.

  ==> Iterations <==

                           Total Energy        Delta E     RMS |[F,P]|

   @DF-RHF iter   1:  -234.38069845019461   -2.34381e+02   8.46168e-02 
   @DF-RHF iter   2:  -195.45888374345500    3.89218e+01   7.12527e-02 DIIS
   @DF-RHF iter   3:  -275.26153365823723   -7.98026e+01   4.69617e-02 DIIS
   @DF-RHF iter   4:  -280.52485946778609   -5.26333e+00   4.79048e-02 DIIS
   @DF-RHF iter   5:  -301.65432193317599   -2.11295e+01   2.38240e-02 DIIS
   @DF-RHF iter   6:  -304.57367652851485   -2.91935e+00   1.17391e-02 DIIS
   @DF-RHF iter   7:  -305.69010517632523   -1.11643e+00   3.73509e-03 DIIS
   @DF-RHF iter   8:  -305.82576284107654   -1.35658e-01   1.86303e-03 DIIS
   @DF-RHF iter   9:  -305.84319669470472   -1.74339e-02   6.13228e-04 DIIS
   @DF-RHF iter  10:  -305.84683874108214   -3.64205e-03   2.69175e-04 DIIS
   @DF-RHF iter  11:  -305.84753995891674   -7.01218e-04   9.68810e-05 DIIS
   @DF-RHF iter  12:  -305.84765867850808   -1.18720e-04   3.57579e-05 DIIS
   @DF-RHF iter  13:  -305.84766931615775   -1.06376e-05   1.33327e-05 DIIS
   @DF-RHF iter  14:  -305.84767129057025   -1.97441e-06   4.59859e-06 DIIS
   @DF-RHF iter  15:  -305.84767157616477   -2.85595e-07   1.06859e-06 DIIS
   @DF-RHF iter  16:  -305.84767159095679   -1.47920e-08   3.09289e-07 DIIS

  ==> Post-Iterations <==

    Orbital Energies (a.u.)
    -----------------------

    Doubly Occupied:                                                      

       1A    -20.584715     2A    -20.554198     3A    -11.375997  
       4A    -11.300825     5A    -11.232852     6A    -11.232081  
       7A     -1.462031     8A     -1.366838     9A     -1.053168  
      10A     -1.014313    11A     -0.889238    12A     -0.772527  
      13A     -0.696494    14A     -0.689482    15A     -0.667802  
      16A     -0.609605    17A     -0.596198    18A     -0.583512  
      19A     -0.567260    20A     -0.551987    21A     -0.506590  
      22A     -0.485446    23A     -0.454077    24A     -0.438435  

    Virtual:                                                              

      25A      0.176862    26A      0.223964    27A      0.266276  
      28A      0.278636    29A      0.286407    30A      0.301519  
      31A      0.315858    32A      0.319507    33A      0.347648  
      34A      0.393753    35A      0.402516    36A      0.446348  
      37A      0.521324    38A      0.567029    39A      0.676688  
      40A      0.716877    41A      0.722487    42A      0.765101  
      43A      0.796417    44A      0.807202    45A      0.837322  
      46A      0.847215    47A      0.893488    48A      0.941903  
      49A      0.990116    50A      0.990987    51A      1.048709  
      52A      1.101129    53A      1.118780    54A      1.153288  
      55A      1.160718    56A      1.179307    57A      1.190248  
      58A      1.197623    59A      1.242240    60A      1.247729  
      61A      1.295015    62A      1.314341    63A      1.351195  
      64A      1.369746    65A      1.410314    66A      1.457500  
      67A      1.565024    68A      1.660633    69A      1.665095  
      70A      1.743656    71A      1.816467    72A      1.853028  
      73A      1.978748    74A      2.038345    75A      2.058476  
      76A      2.065798    77A      2.125895    78A      2.159690  
      79A      2.193949    80A      2.220332    81A      2.254184  
      82A      2.266173    83A      2.359354    84A      2.391860  
      85A      2.442472    86A      2.531967    87A      2.543101  
      88A      2.601751    89A      2.647100    90A      2.686042  
      91A      2.688086    92A      2.767460    93A      2.852149  
      94A      2.899927    95A      3.023117    96A      3.171857  
      97A      3.241304    98A      3.297511    99A      3.373324  
     100A      3.489309   101A      4.382996   102A      4.533357  
     103A      4.615839   104A      4.649129   105A      4.854591  
     106A      4.907581  

    Final Occupation by Irrep:
              A 
    DOCC [    24 ]

  Energy converged.

  @DF-RHF Final Energy:  -305.84767159095679

   => Energetics <=

    Nuclear Repulsion Energy =            250.0190728165478902
    One-Electron Energy =                -912.3621373047301404
    Two-Electron Energy =                 356.4953928972257131
    DFT Exchange-Correlation Energy =       0.0000000000000000
    Empirical Dispersion Energy =           0.0000000000000000
    PCM Polarization Energy =               0.0000000000000000
    EFP Energy =                            0.0000000000000000
    Total Energy =                       -305.8476715909565087

    Alert: EFP and PCM quantities not currently incorporated into SCF psivars.

Properties will be evaluated at   0.000000,   0.000000,   0.000000 Bohr
  ==> Properties <==


Properties computed using the SCF density matrix

  Nuclear Dipole Moment: (a.u.)
     X:    -1.0226      Y:    -6.4145      Z:     5.3513

  Electronic Dipole Moment: (a.u.)
     X:     0.9326      Y:     5.2100      Z:    -4.5010

  Dipole Moment: (a.u.)
     X:    -0.0900      Y:    -1.2046      Z:     0.8503     Total:     1.4772

  Dipole Moment: (Debye)
     X:    -0.2287      Y:    -3.0617      Z:     2.1612     Total:     3.7546


  Saving occupied orbitals to File 180.

*** tstop() called on cx1-3-1-3.cx1.hpc.ic.ac.uk at Thu Sep  1 22:12:13 2016
Module time:
	user time   =       6.80 seconds =       0.11 minutes
	system time =       0.06 seconds =       0.00 minutes
	total time  =          7 seconds =       0.12 minutes
Total time:
	user time   =       6.80 seconds =       0.11 minutes
	system time =       0.06 seconds =       0.00 minutes
	total time  =          7 seconds =       0.12 minutes


Properties will be evaluated at   0.000000,   0.000000,   0.000000 Bohr

Properties computed using the  density matrix

  Nuclear Dipole Moment: (a.u.)
     X:    -1.0226      Y:    -6.4145      Z:     5.3513

  Electronic Dipole Moment: (a.u.)
     X:     0.9326      Y:     5.2100      Z:    -4.5010

  Dipole Moment: (a.u.)
     X:    -0.0900      Y:    -1.2046      Z:     0.8503     Total:     1.4772

  Dipole Moment: (Debye)
     X:    -0.2287      Y:    -3.0617      Z:     2.1612     Total:     3.7546

  Quadrupole Moment: (Debye Ang)
    XX:   -33.0416     YY:   -42.6156     ZZ:   -36.8335
    XY:    -0.6679     XZ:     2.0636     YZ:     1.3034

  Traceless Quadrupole Moment: (Debye Ang)
    XX:     4.4553     YY:    -5.1187     ZZ:     0.6634
    XY:    -0.6679     XZ:     2.0636     YZ:     1.3034

  Mulliken Charges: (a.u.)
   Center  Symbol    Alpha    Beta     Spin     Total
       1     O     4.25638  4.25638  0.00000 -0.51276
       2     C     2.62986  2.62986  0.00000  0.74027
       3     C     3.28577  3.28577  0.00000 -0.57154
       4     O     4.31121  4.31121  0.00000 -0.62241
       5     H     0.39899  0.39899  0.00000  0.20201
       6     H     0.39913  0.39913  0.00000  0.20175
       7     H     0.40822  0.40822  0.00000  0.18356
       8     C     3.00660  3.00660  0.00000 -0.01321
       9     C     3.25452  3.25452  0.00000 -0.50904
      10     H     0.40912  0.40912  0.00000  0.18176
      11     H     0.40206  0.40206  0.00000  0.19588
      12     H     0.41335  0.41335  0.00000  0.17331
      13     H     0.41692  0.41692  0.00000  0.16616
      14     H     0.40787  0.40787  0.00000  0.18426

   Total alpha = 24.00000, Total beta = 24.00000, Total charge =  0.00000


*** PSI4 exiting successfully. Buy a developer a beer!
