    -----------------------------------------------------------------------
          Psi4: An Open-Source Ab Initio Electronic Structure Package
                              Psi4 (no tag) Driver

                          Git: Rev {detached?}  

    J. M. Turney, A. C. Simmonett, R. M. Parrish, E. G. Hohenstein,
    F. A. Evangelista, J. T. Fermann, B. J. Mintz, L. A. Burns, J. J. Wilke,
    M. L. Abrams, N. J. Russ, M. L. Leininger, C. L. Janssen, E. T. Seidl,
    W. D. Allen, H. F. Schaefer, R. A. King, E. F. Valeev, C. D. Sherrill,
    and T. D. Crawford, WIREs Comput. Mol. Sci. 2, 556-565 (2012)
    (doi: 10.1002/wcms.93)

                         Additional Contributions by
    A. E. DePrince, M. Saitow, U. Bozkaya, A. Yu. Sokolov
    -----------------------------------------------------------------------


    Psi4 started on: Thu Sep  1 22:25:27 2016

    Process ID:  21420
    PSI4DATADIR: /export131/home/mjharvey/miniconda3/share
    Memory level set to 256.000 MB

  ==> Input File <==

--------------------------------------------------------------------------
set {
	reference rhf
	basis 6-31G*
}


set_num_threads( 1 )
memory 2 gb

molecule MOL {
0 1

O	 -2.042549	 -1.228399	 -0.269030
C	 -1.653912	 -0.146171	 0.050137
C	 -0.332303	 0.024011	 0.778412
C	 -2.438579	 1.106236	 -0.272369
C	 0.199795	 1.457390	 0.622948
H	 -0.443958	 -0.216759	 1.831952
H	 0.374719	 -0.674393	 0.344508
C	 1.546872	 1.663978	 1.317020
H	 -0.523324	 2.164123	 1.026321
H	 0.293838	 1.678752	 -0.435965
C	 2.082670	 3.086070	 1.156447
H	 1.447850	 1.431725	 2.375169
H	 2.268850	 0.957525	 0.914232
H	 1.397368	 3.814272	 1.580872
H	 2.222948	 3.335673	 0.108849
H	 3.039398	 3.202458	 1.655598
H	 -3.277823	 0.863061	 -0.908988
H	 -1.806773	 1.843019	 -0.759671
H	 -2.802853	 1.554979	 0.648059

	symmetry c1
}
set optking {
	frozen_dihedral = ("
		11 8 5 9,
		9 5 3 2
	")
}

ee = energy('scf')
oeprop('DIPOLE', 'QUADRUPOLE', 'MULLIKEN_CHARGES')
f=open( 'psi4out.xyz', 'w' )
f.write( "19  " )
f.write( str(ee) + "\n" )
f.write( MOL.save_string_xyz() )
f.close()
--------------------------------------------------------------------------

  Memory set to   2.000 GiB by Python script.

*** tstart() called on cx1-3-14-1.cx1.hpc.ic.ac.uk
*** at Thu Sep  1 22:25:27 2016


         ---------------------------------------------------------
                                   SCF
            by Justin Turney, Rob Parrish, and Andy Simmonett
                              RHF Reference
                        1 Threads,   2000 MiB Core
         ---------------------------------------------------------

  ==> Geometry <==

    Molecular point group: c1
    Full point group: C1

    Geometry (in Angstrom), charge = 0, multiplicity = 1:

       Center              X                  Y                   Z               Mass       
    ------------   -----------------  -----------------  -----------------  -----------------
           O         -1.666797701902    -2.095235219074    -0.748349744277    15.994914619560
           C         -1.278160701902    -1.013007219074    -0.429182744277    12.000000000000
           C          0.043448298098    -0.842825219074     0.299092255723    12.000000000000
           C         -2.062827701902     0.239399780926    -0.751688744277    12.000000000000
           C          0.575546298098     0.590553780926     0.143628255723    12.000000000000
           H         -0.068206701902    -1.083595219074     1.352632255723     1.007825032070
           H          0.750470298098    -1.541229219074    -0.134811744277     1.007825032070
           C          1.922623298098     0.797141780926     0.837700255723    12.000000000000
           H         -0.147572701902     1.297286780926     0.547001255723     1.007825032070
           H          0.669589298098     0.811915780926    -0.915284744277     1.007825032070
           C          2.458421298098     2.219233780926     0.677127255723    12.000000000000
           H          1.823601298098     0.564888780926     1.895849255723     1.007825032070
           H          2.644601298098     0.090688780926     0.434912255723     1.007825032070
           H          1.773119298098     2.947435780926     1.101552255723     1.007825032070
           H          2.598699298098     2.468836780926    -0.370470744277     1.007825032070
           H          3.415149298098     2.335621780926     1.176278255723     1.007825032070
           H         -2.902071701902    -0.003775219074    -1.388307744277     1.007825032070
           H         -1.431021701902     0.976182780926    -1.238990744277     1.007825032070
           H         -2.427101701902     0.688142780926     0.168739255723     1.007825032070

  Running in c1 symmetry.

  Rotational constants: A =      0.22279  B =      0.03690  C =      0.03287 [cm^-1]
  Rotational constants: A =   6679.02477  B =   1106.37570  C =    985.27403 [MHz]
  Nuclear repulsion =  303.329038894280018

  Charge       = 0
  Multiplicity = 1
  Electrons    = 56
  Nalpha       = 28
  Nbeta        = 28

  ==> Algorithm <==

  SCF Algorithm Type is DF.
  DIIS enabled.
  MOM disabled.
  Fractional occupation disabled.
  Guess Type is CORE.
  Energy threshold   = 1.00e-06
  Density threshold  = 1.00e-06
  Integral threshold = 0.00e+00

  ==> Primary Basis <==

  Basis Set: 6-31G*
    Number of shells: 66
    Number of basis function: 129
    Number of Cartesian functions: 129
    Spherical Harmonics?: false
    Max angular momentum: 2

  ==> Pre-Iterations <==

   -------------------------------------------------------
    Irrep   Nso     Nmo     Nalpha   Nbeta   Ndocc  Nsocc
   -------------------------------------------------------
     A        129     129       0       0       0       0
   -------------------------------------------------------
    Total     129     129      28      28      28       0
   -------------------------------------------------------

 OEINTS: Overlap, kinetic, potential, dipole, and quadrupole integrals
         stored in file 35.

  ==> Integral Setup <==

  ==> DFJK: Density-Fitted J/K Matrices <==

    J tasked:                  Yes
    K tasked:                  Yes
    wK tasked:                  No
    OpenMP threads:              1
    Integrals threads:           1
    Memory (MB):              1430
    Algorithm:                Core
    Integral Cache:           NONE
    Schwarz Cutoff:          1E-12
    Fitting Condition:       1E-12

   => Auxiliary Basis Set <=

  Basis Set: 
    Number of shells: 276
    Number of basis function: 867
    Number of Cartesian functions: 867
    Spherical Harmonics?: false
    Max angular momentum: 3

  Minimum eigenvalue in the overlap matrix is 3.0095863161E-03.
  Using Symmetric Orthogonalization.
  SCF Guess: Core (One-Electron) Hamiltonian.

  ==> Iterations <==

                           Total Energy        Delta E     RMS |[F,P]|

   @DF-RHF iter   1:  -234.14932779065617   -2.34149e+02   6.96371e-02 
   @DF-RHF iter   2:  -126.00310191189300    1.08146e+02   8.29857e-02 DIIS
   @DF-RHF iter   3:  -245.50185170666379   -1.19499e+02   5.18907e-02 DIIS
   @DF-RHF iter   4:  -211.27783389629252    3.42240e+01   6.43657e-02 DIIS
   @DF-RHF iter   5:  -306.03116517973837   -9.47533e+01   1.59698e-02 DIIS
   @DF-RHF iter   6:  -306.87820285336517   -8.47038e-01   1.57127e-02 DIIS
   @DF-RHF iter   7:  -308.94496239682127   -2.06676e+00   3.78855e-03 DIIS
   @DF-RHF iter   8:  -309.03640259781554   -9.14402e-02   1.46993e-03 DIIS
   @DF-RHF iter   9:  -309.05617268981149   -1.97701e-02   3.98738e-04 DIIS
   @DF-RHF iter  10:  -309.05830030023725   -2.12761e-03   1.03705e-04 DIIS
   @DF-RHF iter  11:  -309.05845179663305   -1.51496e-04   3.28379e-05 DIIS
   @DF-RHF iter  12:  -309.05846816784896   -1.63712e-05   9.91545e-06 DIIS
   @DF-RHF iter  13:  -309.05847004783942   -1.87999e-06   3.79546e-06 DIIS
   @DF-RHF iter  14:  -309.05847034353161   -2.95692e-07   1.37585e-06 DIIS
   @DF-RHF iter  15:  -309.05847040304621   -5.95146e-08   5.98805e-07 DIIS

  ==> Post-Iterations <==

    Orbital Energies (a.u.)
    -----------------------

    Doubly Occupied:                                                      

       1A    -20.546524     2A    -11.324870     3A    -11.231237  
       4A    -11.230523     5A    -11.226462     6A    -11.226323  
       7A    -11.217178     8A     -1.392301     9A     -1.097654  
      10A     -1.030717    11A     -0.979644    12A     -0.894641  
      13A     -0.810651    14A     -0.732613    15A     -0.665471  
      16A     -0.650275    17A     -0.628374    18A     -0.612320  
      19A     -0.584604    20A     -0.573490    21A     -0.547902  
      22A     -0.536413    23A     -0.525338    24A     -0.488576  
      25A     -0.486512    26A     -0.479245    27A     -0.470204  
      28A     -0.396467  

    Virtual:                                                              

      29A      0.167150    30A      0.215285    31A      0.247291  
      32A      0.260567    33A      0.268502    34A      0.298671  
      35A      0.304387    36A      0.314677    37A      0.322374  
      38A      0.333478    39A      0.342767    40A      0.344270  
      41A      0.369494    42A      0.388779    43A      0.409231  
      44A      0.427552    45A      0.449934    46A      0.514663  
      47A      0.522676    48A      0.703006    49A      0.729725  
      50A      0.738343    51A      0.745196    52A      0.756286  
      53A      0.786312    54A      0.824529    55A      0.837553  
      56A      0.851335    57A      0.910767    58A      0.925189  
      59A      0.967532    60A      0.990498    61A      0.993529  
      62A      1.010098    63A      1.036305    64A      1.101548  
      65A      1.105192    66A      1.113208    67A      1.130956  
      68A      1.147173    69A      1.169889    70A      1.176051  
      71A      1.182912    72A      1.199589    73A      1.208889  
      74A      1.214785    75A      1.222738    76A      1.239770  
      77A      1.257235    78A      1.295306    79A      1.302141  
      80A      1.349140    81A      1.378013    82A      1.391028  
      83A      1.599186    84A      1.625596    85A      1.678732  
      86A      1.685107    87A      1.755257    88A      1.781639  
      89A      1.881235    90A      1.953152    91A      1.972633  
      92A      2.022936    93A      2.085473    94A      2.100759  
      95A      2.158262    96A      2.178214    97A      2.202047  
      98A      2.219173    99A      2.244488   100A      2.262412  
     101A      2.301511   102A      2.322583   103A      2.356838  
     104A      2.371145   105A      2.453011   106A      2.508926  
     107A      2.562418   108A      2.596021   109A      2.601465  
     110A      2.668826   111A      2.697438   112A      2.728999  
     113A      2.762992   114A      2.777987   115A      2.863339  
     116A      2.924647   117A      2.977811   118A      3.014139  
     119A      3.064300   120A      3.159734   121A      3.380947  
     122A      3.415717   123A      4.399747   124A      4.537274  
     125A      4.627973   126A      4.725031   127A      4.761942  
     128A      4.880034   129A      5.026717  

    Final Occupation by Irrep:
              A 
    DOCC [    28 ]

  Energy converged.

  @DF-RHF Final Energy:  -309.05847040304621

   => Energetics <=

    Nuclear Repulsion Energy =            303.3290388942800178
    One-Electron Energy =               -1019.6020181178622579
    Two-Electron Energy =                 407.2145088205350021
    DFT Exchange-Correlation Energy =       0.0000000000000000
    Empirical Dispersion Energy =           0.0000000000000000
    PCM Polarization Energy =               0.0000000000000000
    EFP Energy =                            0.0000000000000000
    Total Energy =                       -309.0584704030472949

    Alert: EFP and PCM quantities not currently incorporated into SCF psivars.

Properties will be evaluated at   0.000000,   0.000000,   0.000000 Bohr
  ==> Properties <==


Properties computed using the SCF density matrix

  Nuclear Dipole Moment: (a.u.)
     X:     6.2723      Y:     8.9450      Z:     2.4611

  Electronic Dipole Moment: (a.u.)
     X:    -5.7796      Y:    -7.8134      Z:    -2.0909

  Dipole Moment: (a.u.)
     X:     0.4928      Y:     1.1316      Z:     0.3702     Total:     1.2885

  Dipole Moment: (Debye)
     X:     1.2525      Y:     2.8762      Z:     0.9409     Total:     3.2752


  Saving occupied orbitals to File 180.

*** tstop() called on cx1-3-14-1.cx1.hpc.ic.ac.uk at Thu Sep  1 22:25:38 2016
Module time:
	user time   =      10.21 seconds =       0.17 minutes
	system time =       0.06 seconds =       0.00 minutes
	total time  =         11 seconds =       0.18 minutes
Total time:
	user time   =      10.21 seconds =       0.17 minutes
	system time =       0.06 seconds =       0.00 minutes
	total time  =         11 seconds =       0.18 minutes


Properties will be evaluated at   0.000000,   0.000000,   0.000000 Bohr

Properties computed using the  density matrix

  Nuclear Dipole Moment: (a.u.)
     X:     6.2723      Y:     8.9450      Z:     2.4611

  Electronic Dipole Moment: (a.u.)
     X:    -5.7796      Y:    -7.8134      Z:    -2.0909

  Dipole Moment: (a.u.)
     X:     0.4928      Y:     1.1316      Z:     0.3702     Total:     1.2885

  Dipole Moment: (Debye)
     X:     1.2525      Y:     2.8762      Z:     0.9409     Total:     3.2752

  Quadrupole Moment: (Debye Ang)
    XX:   -46.8443     YY:   -53.6593     ZZ:   -44.6371
    XY:    -6.3016     XZ:    -1.8664     YZ:    -2.9302

  Traceless Quadrupole Moment: (Debye Ang)
    XX:     1.5359     YY:    -5.2791     ZZ:     3.7432
    XY:    -6.3016     XZ:    -1.8664     YZ:    -2.9302

  Mulliken Charges: (a.u.)
   Center  Symbol    Alpha    Beta     Spin     Total
       1     O     4.26305  4.26305  0.00000 -0.52611
       2     C     2.73328  2.73328  0.00000  0.53345
       3     C     3.20173  3.20173  0.00000 -0.40346
       4     C     3.29603  3.29603  0.00000 -0.59206
       5     C     3.17101  3.17101  0.00000 -0.34202
       6     H     0.40198  0.40198  0.00000  0.19603
       7     H     0.39905  0.39905  0.00000  0.20191
       8     C     3.15041  3.15041  0.00000 -0.30082
       9     H     0.41796  0.41796  0.00000  0.16407
      10     H     0.41811  0.41811  0.00000  0.16378
      11     C     3.23988  3.23988  0.00000 -0.47977
      12     H     0.42123  0.42123  0.00000  0.15754
      13     H     0.42003  0.42003  0.00000  0.15994
      14     H     0.42126  0.42126  0.00000  0.15747
      15     H     0.42068  0.42068  0.00000  0.15864
      16     H     0.41683  0.41683  0.00000  0.16635
      17     H     0.39557  0.39557  0.00000  0.20885
      18     H     0.40525  0.40525  0.00000  0.18950
      19     H     0.40664  0.40664  0.00000  0.18671

   Total alpha = 28.00000, Total beta = 28.00000, Total charge =  0.00000


*** PSI4 exiting successfully. Buy a developer a beer!
