    -----------------------------------------------------------------------
          Psi4: An Open-Source Ab Initio Electronic Structure Package
                              Psi4 (no tag) Driver

                          Git: Rev {detached?}  

    J. M. Turney, A. C. Simmonett, R. M. Parrish, E. G. Hohenstein,
    F. A. Evangelista, J. T. Fermann, B. J. Mintz, L. A. Burns, J. J. Wilke,
    M. L. Abrams, N. J. Russ, M. L. Leininger, C. L. Janssen, E. T. Seidl,
    W. D. Allen, H. F. Schaefer, R. A. King, E. F. Valeev, C. D. Sherrill,
    and T. D. Crawford, WIREs Comput. Mol. Sci. 2, 556-565 (2012)
    (doi: 10.1002/wcms.93)

                         Additional Contributions by
    A. E. DePrince, M. Saitow, U. Bozkaya, A. Yu. Sokolov
    -----------------------------------------------------------------------


    Psi4 started on: Fri Sep  2 01:31:23 2016

    Process ID:  27522
    PSI4DATADIR: /export131/home/mjharvey/miniconda3/share
    Memory level set to 256.000 MB

  ==> Input File <==

--------------------------------------------------------------------------
set {
	reference rhf
	basis 6-31G*
}


set_num_threads( 1 )
memory 2 gb

molecule MOL {
0 1

O	 3.225979	 0.970355	 -0.599647
C	 2.701189	 0.057885	 -0.047330
C	 1.245376	 -0.013843	 0.345420
O	 3.347903	 -1.046386	 0.304773
C	 0.952833	 -1.111270	 1.366297
H	 0.966008	 0.968196	 0.712493
H	 0.672000	 -0.164305	 -0.565788
C	 -0.535624	 -1.266165	 1.696448
H	 1.512656	 -0.913730	 2.275524
H	 1.330855	 -2.051889	 0.980607
C	 -1.163098	 -0.073022	 2.422943
H	 -0.652558	 -2.151443	 2.317200
H	 -1.091302	 -1.464469	 0.781075
C	 -2.617871	 -0.320576	 2.827113
H	 -0.576492	 0.153166	 3.312072
H	 -1.119388	 0.813558	 1.794422
C	 -3.256816	 0.867031	 3.549241
H	 -2.668698	 -1.199291	 3.467826
H	 -3.202839	 -0.557362	 1.939733
C	 -4.708333	 0.610263	 3.952815
H	 -2.672943	 1.105624	 4.435699
H	 -3.210875	 1.745281	 2.908658
H	 -5.133340	 1.469651	 4.462155
H	 -4.784167	 -0.241807	 4.622456
H	 -5.326021	 0.402186	 3.083655
C	 4.728119	 -1.109107	 -0.004993
H	 4.882018	 -1.033965	 -1.071845
H	 5.068212	 -2.067527	 0.355250
H	 5.265056	 -0.311663	 0.488280

	symmetry c1
}
set optking {
	frozen_dihedral = ("
		21 17 14 11,
		17 14 11 15,
		15 11 8 5,
		6 3 5 9,
		11 8 5 9,
		2 4 26 27,
		1 2 4 26
	")
}

ee = energy('scf')
oeprop('DIPOLE', 'QUADRUPOLE', 'MULLIKEN_CHARGES')
f=open( 'psi4out.xyz', 'w' )
f.write( "29  " )
f.write( str(ee) + "\n" )
f.write( MOL.save_string_xyz() )
f.close()
--------------------------------------------------------------------------

  Memory set to   2.000 GiB by Python script.

*** tstart() called on cx1-3-2-1.cx1.hpc.ic.ac.uk
*** at Fri Sep  2 01:31:23 2016


         ---------------------------------------------------------
                                   SCF
            by Justin Turney, Rob Parrish, and Andy Simmonett
                              RHF Reference
                        1 Threads,   2000 MiB Core
         ---------------------------------------------------------

  ==> Geometry <==

    Molecular point group: c1
    Full point group: C1

    Geometry (in Angstrom), charge = 0, multiplicity = 1:

       Center              X                  Y                   Z               Mass       
    ------------   -----------------  -----------------  -----------------  -----------------
           O          2.830912664288     1.192099334619    -2.023548296955    15.994914619560
           C          2.306122664288     0.279629334619    -1.471231296955    12.000000000000
           C          0.850309664288     0.207901334619    -1.078481296955    12.000000000000
           O          2.952836664288    -0.824641665381    -1.119128296955    15.994914619560
           C          0.557766664288    -0.889525665381    -0.057604296955    12.000000000000
           H          0.570941664288     1.189940334619    -0.711408296955     1.007825032070
           H          0.276933664288     0.057439334619    -1.989689296955     1.007825032070
           C         -0.930690335712    -1.044420665381     0.272546703045    12.000000000000
           H          1.117589664288    -0.691985665381     0.851622703045     1.007825032070
           H          0.935788664288    -1.830144665381    -0.443294296955     1.007825032070
           C         -1.558164335712     0.148722334619     0.999041703045    12.000000000000
           H         -1.047624335712    -1.929698665381     0.893298703045     1.007825032070
           H         -1.486368335712    -1.242724665381    -0.642826296955     1.007825032070
           C         -3.012937335712    -0.098831665381     1.403211703045    12.000000000000
           H         -0.971558335712     0.374910334619     1.888170703045     1.007825032070
           H         -1.514454335712     1.035302334619     0.370520703045     1.007825032070
           C         -3.651882335712     1.088775334619     2.125339703045    12.000000000000
           H         -3.063764335712    -0.977546665381     2.043924703045     1.007825032070
           H         -3.597905335712    -0.335617665381     0.515831703045     1.007825032070
           C         -5.103399335712     0.832007334619     2.528913703045    12.000000000000
           H         -3.068009335712     1.327368334619     3.011797703045     1.007825032070
           H         -3.605941335712     1.967025334619     1.484756703045     1.007825032070
           H         -5.528406335712     1.691395334619     3.038253703045     1.007825032070
           H         -5.179233335712    -0.020062665381     3.198554703045     1.007825032070
           H         -5.721087335712     0.623930334619     1.659753703045     1.007825032070
           C          4.333052664288    -0.887362665381    -1.428894296955    12.000000000000
           H          4.486951664288    -0.812220665381    -2.495746296955     1.007825032070
           H          4.673145664288    -1.845782665381    -1.068651296955     1.007825032070
           H          4.869989664288    -0.089918665381    -0.935621296955     1.007825032070

  Running in c1 symmetry.

  Rotational constants: A =      0.12335  B =      0.00945  C =      0.00905 [cm^-1]
  Rotational constants: A =   3698.01384  B =    283.33707  C =    271.22740 [MHz]
  Nuclear repulsion =  614.329805010310565

  Charge       = 0
  Multiplicity = 1
  Electrons    = 88
  Nalpha       = 44
  Nbeta        = 44

  ==> Algorithm <==

  SCF Algorithm Type is DF.
  DIIS enabled.
  MOM disabled.
  Fractional occupation disabled.
  Guess Type is CORE.
  Energy threshold   = 1.00e-06
  Density threshold  = 1.00e-06
  Integral threshold = 0.00e+00

  ==> Primary Basis <==

  Basis Set: 6-31G*
    Number of shells: 102
    Number of basis function: 201
    Number of Cartesian functions: 201
    Spherical Harmonics?: false
    Max angular momentum: 2

  ==> Pre-Iterations <==

   -------------------------------------------------------
    Irrep   Nso     Nmo     Nalpha   Nbeta   Ndocc  Nsocc
   -------------------------------------------------------
     A        201     201       0       0       0       0
   -------------------------------------------------------
    Total     201     201      44      44      44       0
   -------------------------------------------------------

 OEINTS: Overlap, kinetic, potential, dipole, and quadrupole integrals
         stored in file 35.

  ==> Integral Setup <==

  ==> DFJK: Density-Fitted J/K Matrices <==

    J tasked:                  Yes
    K tasked:                  Yes
    wK tasked:                  No
    OpenMP threads:              1
    Integrals threads:           1
    Memory (MB):              1430
    Algorithm:                Core
    Integral Cache:           NONE
    Schwarz Cutoff:          1E-12
    Fitting Condition:       1E-12

   => Auxiliary Basis Set <=

  Basis Set: 
    Number of shells: 426
    Number of basis function: 1341
    Number of Cartesian functions: 1341
    Spherical Harmonics?: false
    Max angular momentum: 3

  Minimum eigenvalue in the overlap matrix is 2.3496911532E-03.
  Using Symmetric Orthogonalization.
  SCF Guess: Core (One-Electron) Hamiltonian.

  ==> Iterations <==

                           Total Energy        Delta E     RMS |[F,P]|

   @DF-RHF iter   1:  -335.94744233806205   -3.35947e+02   5.89635e-02 
   @DF-RHF iter   2:   127.04317310999244    4.62991e+02   7.84667e-02 DIIS
   @DF-RHF iter   3:  -282.58198174790562   -4.09625e+02   5.73294e-02 DIIS
   @DF-RHF iter   4:  -278.77574447011693    3.80624e+00   6.26578e-02 DIIS
   @DF-RHF iter   5:  -465.06188522918023   -1.86286e+02   2.95160e-02 DIIS
   @DF-RHF iter   6:  -458.30736203795414    6.75452e+00   3.11459e-02 DIIS
   @DF-RHF iter   7:  -500.48144949538164   -4.21741e+01   5.10889e-03 DIIS
   @DF-RHF iter   8:  -500.92949229468763   -4.48043e-01   2.46429e-03 DIIS
   @DF-RHF iter   9:  -501.03501112258300   -1.05519e-01   4.05626e-04 DIIS
   @DF-RHF iter  10:  -501.03900323569474   -3.99211e-03   2.25605e-04 DIIS
   @DF-RHF iter  11:  -501.03998904188529   -9.85806e-04   4.62339e-05 DIIS
   @DF-RHF iter  12:  -501.04005985310596   -7.08112e-05   1.45426e-05 DIIS
   @DF-RHF iter  13:  -501.04006622725274   -6.37415e-06   5.00381e-06 DIIS
   @DF-RHF iter  14:  -501.04006709663713   -8.69384e-07   1.37919e-06 DIIS
   @DF-RHF iter  15:  -501.04006716872686   -7.20897e-08   3.75749e-07 DIIS

  ==> Post-Iterations <==

    Orbital Energies (a.u.)
    -----------------------

    Doubly Occupied:                                                      

       1A    -20.604943     2A    -20.542492     3A    -11.372321  
       4A    -11.281070     5A    -11.234539     6A    -11.220854  
       7A    -11.218512     8A    -11.216463     9A    -11.215969  
      10A    -11.214835    11A    -11.209158    12A     -1.469779  
      13A     -1.361721    14A     -1.100113    15A     -1.068937  
      16A     -1.019333    17A     -0.972047    18A     -0.931623  
      19A     -0.864307    20A     -0.799293    21A     -0.790518  
      22A     -0.772776    23A     -0.699238    24A     -0.682766  
      25A     -0.670879    26A     -0.651460    27A     -0.627532  
      28A     -0.604240    29A     -0.591302    30A     -0.577970  
      31A     -0.563424    32A     -0.551137    33A     -0.534457  
      34A     -0.531444    35A     -0.523545    36A     -0.511315  
      37A     -0.498966    38A     -0.481656    39A     -0.472518  
      40A     -0.464358    41A     -0.462513    42A     -0.452733  
      43A     -0.443028    44A     -0.425244  

    Virtual:                                                              

      45A      0.195881    46A      0.225143    47A      0.236387  
      48A      0.257980    49A      0.260515    50A      0.266772  
      51A      0.277167    52A      0.295621    53A      0.303866  
      54A      0.312835    55A      0.317105    56A      0.325368  
      57A      0.329828    58A      0.331663    59A      0.340463  
      60A      0.344038    61A      0.351721    62A      0.353761  
      63A      0.364221    64A      0.377334    65A      0.389232  
      66A      0.404379    67A      0.423045    68A      0.447670  
      69A      0.462780    70A      0.468123    71A      0.507518  
      72A      0.526052    73A      0.589427    74A      0.693838  
      75A      0.700668    76A      0.724327    77A      0.731589  
      78A      0.737724    79A      0.751781    80A      0.765600  
      81A      0.775172    82A      0.778708    83A      0.803719  
      84A      0.815611    85A      0.824466    86A      0.856809  
      87A      0.867771    88A      0.917537    89A      0.932014  
      90A      0.949613    91A      0.963780    92A      0.966214  
      93A      0.992405    94A      1.009177    95A      1.030109  
      96A      1.047972    97A      1.064368    98A      1.100751  
      99A      1.115528   100A      1.124472   101A      1.130785  
     102A      1.134260   103A      1.136833   104A      1.145300  
     105A      1.166729   106A      1.174096   107A      1.179505  
     108A      1.188668   109A      1.201274   110A      1.209210  
     111A      1.212133   112A      1.214057   113A      1.216022  
     114A      1.224550   115A      1.236256   116A      1.246908  
     117A      1.250153   118A      1.257278   119A      1.281919  
     120A      1.295463   121A      1.314475   122A      1.332630  
     123A      1.397789   124A      1.411255   125A      1.429639  
     126A      1.462459   127A      1.555298   128A      1.626078  
     129A      1.639985   130A      1.667132   131A      1.686785  
     132A      1.707222   133A      1.740237   134A      1.762489  
     135A      1.808652   136A      1.833437   137A      1.840589  
     138A      1.887755   139A      1.920118   140A      1.949909  
     141A      2.001605   142A      2.040421   143A      2.057909  
     144A      2.100131   145A      2.119885   146A      2.137976  
     147A      2.159348   148A      2.184612   149A      2.192697  
     150A      2.228667   151A      2.238786   152A      2.256659  
     153A      2.268763   154A      2.284263   155A      2.305814  
     156A      2.319420   157A      2.336421   158A      2.358877  
     159A      2.382551   160A      2.393675   161A      2.405255  
     162A      2.417437   163A      2.449244   164A      2.463891  
     165A      2.513972   166A      2.585652   167A      2.588253  
     168A      2.638365   169A      2.658171   170A      2.665321  
     171A      2.675764   172A      2.704928   173A      2.732949  
     174A      2.762209   175A      2.784565   176A      2.794496  
     177A      2.815817   178A      2.839584   179A      2.921048  
     180A      2.944063   181A      2.971457   182A      2.987555  
     183A      3.053242   184A      3.084961   185A      3.131336  
     186A      3.173447   187A      3.217060   188A      3.351137  
     189A      3.439081   190A      3.577712   191A      4.430991  
     192A      4.538469   193A      4.586857   194A      4.636684  
     195A      4.679045   196A      4.714174   197A      4.764688  
     198A      4.829660   199A      4.884152   200A      4.988064  
     201A      5.051317  

    Final Occupation by Irrep:
              A 
    DOCC [    44 ]

  Energy converged.

  @DF-RHF Final Energy:  -501.04006716872686

   => Energetics <=

    Nuclear Repulsion Energy =            614.3298050103105652
    One-Electron Energy =               -1899.7329420382470744
    Two-Electron Energy =                 784.3630698592096451
    DFT Exchange-Correlation Energy =       0.0000000000000000
    Empirical Dispersion Energy =           0.0000000000000000
    PCM Polarization Energy =               0.0000000000000000
    EFP Energy =                            0.0000000000000000
    Total Energy =                       -501.0400671687268641

    Alert: EFP and PCM quantities not currently incorporated into SCF psivars.

Properties will be evaluated at   0.000000,   0.000000,   0.000000 Bohr
  ==> Properties <==


Properties computed using the SCF density matrix

  Nuclear Dipole Moment: (a.u.)
     X:   -16.7089      Y:    -1.4123      Z:     9.9870

  Electronic Dipole Moment: (a.u.)
     X:    16.5819      Y:     0.6804      Z:    -9.6041

  Dipole Moment: (a.u.)
     X:    -0.1269      Y:    -0.7319      Z:     0.3829     Total:     0.8357

  Dipole Moment: (Debye)
     X:    -0.3226      Y:    -1.8604      Z:     0.9732     Total:     2.1242


  Saving occupied orbitals to File 180.

*** tstop() called on cx1-3-2-1.cx1.hpc.ic.ac.uk at Fri Sep  2 01:32:07 2016
Module time:
	user time   =      42.63 seconds =       0.71 minutes
	system time =       0.36 seconds =       0.01 minutes
	total time  =         44 seconds =       0.73 minutes
Total time:
	user time   =      42.63 seconds =       0.71 minutes
	system time =       0.36 seconds =       0.01 minutes
	total time  =         44 seconds =       0.73 minutes


Properties will be evaluated at   0.000000,   0.000000,   0.000000 Bohr

Properties computed using the  density matrix

  Nuclear Dipole Moment: (a.u.)
     X:   -16.7089      Y:    -1.4123      Z:     9.9870

  Electronic Dipole Moment: (a.u.)
     X:    16.5819      Y:     0.6804      Z:    -9.6041

  Dipole Moment: (a.u.)
     X:    -0.1269      Y:    -0.7319      Z:     0.3829     Total:     0.8357

  Dipole Moment: (Debye)
     X:    -0.3226      Y:    -1.8604      Z:     0.9732     Total:     2.1242

  Quadrupole Moment: (Debye Ang)
    XX:   -66.9809     YY:   -73.5863     ZZ:   -72.6286
    XY:    -7.6352     XZ:     3.3667     YZ:     5.1648

  Traceless Quadrupole Moment: (Debye Ang)
    XX:     4.0843     YY:    -2.5210     ZZ:    -1.5634
    XY:    -7.6352     XZ:     3.3667     YZ:     5.1648

  Mulliken Charges: (a.u.)
   Center  Symbol    Alpha    Beta     Spin     Total
       1     O     4.28842  4.28842  0.00000 -0.57684
       2     C     2.60152  2.60152  0.00000  0.79697
       3     C     3.21653  3.21653  0.00000 -0.43305
       4     O     4.30487  4.30487  0.00000 -0.60974
       5     C     3.15409  3.15409  0.00000 -0.30819
       6     H     0.39603  0.39603  0.00000  0.20794
       7     H     0.39958  0.39958  0.00000  0.20084
       8     C     3.15627  3.15627  0.00000 -0.31253
       9     H     0.41749  0.41749  0.00000  0.16502
      10     H     0.40617  0.40617  0.00000  0.18766
      11     C     3.15518  3.15518  0.00000 -0.31036
      12     H     0.41923  0.41923  0.00000  0.16155
      13     H     0.42353  0.42353  0.00000  0.15294
      14     C     3.15032  3.15032  0.00000 -0.30064
      15     H     0.42318  0.42318  0.00000  0.15365
      16     H     0.42244  0.42244  0.00000  0.15512
      17     C     3.15151  3.15151  0.00000 -0.30302
      18     H     0.42376  0.42376  0.00000  0.15247
      19     H     0.42384  0.42384  0.00000  0.15231
      20     C     3.23937  3.23937  0.00000 -0.47873
      21     H     0.42292  0.42292  0.00000  0.15415
      22     H     0.42284  0.42284  0.00000  0.15432
      23     H     0.41906  0.41906  0.00000  0.16189
      24     H     0.42181  0.42181  0.00000  0.15639
      25     H     0.42173  0.42173  0.00000  0.15653
      26     C     3.09199  3.09199  0.00000 -0.18399
      27     H     0.40876  0.40876  0.00000  0.18248
      28     H     0.40896  0.40896  0.00000  0.18209
      29     H     0.40861  0.40861  0.00000  0.18278

   Total alpha = 44.00000, Total beta = 44.00000, Total charge = -0.00000


*** PSI4 exiting successfully. Buy a developer a beer!
