    -----------------------------------------------------------------------
          Psi4: An Open-Source Ab Initio Electronic Structure Package
                              Psi4 1.0.54 Driver

                          Git: Rev {master} 8d4cec3 dirty

    J. M. Turney, A. C. Simmonett, R. M. Parrish, E. G. Hohenstein,
    F. A. Evangelista, J. T. Fermann, B. J. Mintz, L. A. Burns, J. J. Wilke,
    M. L. Abrams, N. J. Russ, M. L. Leininger, C. L. Janssen, E. T. Seidl,
    W. D. Allen, H. F. Schaefer, R. A. King, E. F. Valeev, C. D. Sherrill,
    and T. D. Crawford, WIREs Comput. Mol. Sci. 2, 556-565 (2012)
    (doi: 10.1002/wcms.93)

                         Additional Contributions by
    A. E. DePrince, U. Bozkaya, A. Yu. Sokolov, D. G. A. Smith, R. Di Remigio,
    R. M. Richard, J. F. Gonthier, H. R. McAlexander, M. Saitow, and
    B. P. Pritchard
    -----------------------------------------------------------------------


    Psi4 started on: Sat Sep 10 15:32:29 2016

    Process ID:  34111
    PSI4DATADIR: /export131/home/mjharvey/miniconda3/share/psi4
    Memory level set to 256.000 MB

  ==> Input File <==

--------------------------------------------------------------------------
set {
	reference rhf
	basis cc-pvtz
}


set_num_threads( 4 )
memory 2 gb

molecule MOL {
0 1

H	 -2.427845	 2.335837	 0.927888
O	 -1.747024	 1.743134	 0.668310
C	 -2.302264	 0.528872	 0.237390
C	 -1.175688	 -0.398187	 -0.171891
H	 -2.886117	 0.073153	 1.034391
H	 -2.970809	 0.693693	 -0.605053
C	 0.196029	 0.106276	 0.266738
H	 -1.201873	 -0.515469	 -1.250677
H	 -1.365975	 -1.378728	 0.252664
C	 1.330220	 -0.826136	 -0.155230
H	 0.359542	 1.097229	 -0.145561
H	 0.212134	 0.218135	 1.348778
C	 2.719700	 -0.407669	 0.328325
H	 1.339388	 -0.911200	 -1.239363
H	 1.119001	 -1.821953	 0.224128
C	 3.241564	 0.893452	 -0.276737
H	 3.418299	 -1.204729	 0.093035
H	 2.711776	 -0.323368	 1.411960
H	 3.254204	 0.841071	 -1.360784
H	 2.634460	 1.745075	 0.005842
H	 4.254264	 1.092401	 0.054971

	symmetry c1
}
set optking {
	frozen_dihedral = ("
		2 3 4 8
	")
}

ee,wfn = optimize('scf', return_wfn=True)
oeprop( wfn, 'DIPOLE', 'QUADRUPOLE', 'MULLIKEN_CHARGES')
f=open( 'psi4out.xyz', 'w' )
f.write( "21  " )
f.write( str(ee) + "\n" )
f.write( MOL.save_string_xyz() )
f.close()
--------------------------------------------------------------------------

  Memory set to   2.000 GiB by Python script.
gradient() will perform analytic gradient computation.

*** tstart() called on cx1-27-1-3
*** at Sat Sep 10 15:32:29 2016


         ---------------------------------------------------------
                                   SCF
            by Justin Turney, Rob Parrish, and Andy Simmonett
                              RHF Reference
                        4 Threads,   2000 MiB Core
         ---------------------------------------------------------

  ==> Geometry <==

    Molecular point group: c1
    Full point group: C1

    Geometry (in Angstrom), charge = 0, multiplicity = 1:

       Center              X                  Y                   Z               Mass       
    ------------   -----------------  -----------------  -----------------  -----------------
           H         -2.708810247669     2.055761960982     0.788904787878     1.007825032070
           O         -2.027989247669     1.463058960982     0.529326787878    15.994914619560
           C         -2.583229247669     0.248796960982     0.098406787878    12.000000000000
           C         -1.456653247669    -0.678262039018    -0.310874212122    12.000000000000
           H         -3.167082247669    -0.206922039018     0.895407787878     1.007825032070
           H         -3.251774247669     0.413617960982    -0.744036212122     1.007825032070
           C         -0.084936247669    -0.173799039018     0.127754787878    12.000000000000
           H         -1.482838247669    -0.795544039018    -1.389660212122     1.007825032070
           H         -1.646940247669    -1.658803039018     0.113680787878     1.007825032070
           C          1.049254752331    -1.106211039018    -0.294213212122    12.000000000000
           H          0.078576752331     0.817153960982    -0.284544212122     1.007825032070
           H         -0.068831247669    -0.061940039018     1.209794787878     1.007825032070
           C          2.438734752331    -0.687744039018     0.189341787878    12.000000000000
           H          1.058422752331    -1.191275039018    -1.378346212122     1.007825032070
           H          0.838035752331    -2.102028039018     0.085144787878     1.007825032070
           C          2.960598752331     0.613376960982    -0.415720212122    12.000000000000
           H          3.137333752331    -1.484804039018    -0.045948212122     1.007825032070
           H          2.430810752331    -0.603443039018     1.272976787878     1.007825032070
           H          2.973238752331     0.560995960982    -1.499767212122     1.007825032070
           H          2.353494752331     1.464999960982    -0.133141212122     1.007825032070
           H          3.973298752331     0.812325960982    -0.084012212122     1.007825032070

  Running in c1 symmetry.

  Rotational constants: A =      0.17800  B =      0.03580  C =      0.03164 [cm^-1]
  Rotational constants: A =   5336.34731  B =   1073.33474  C =    948.52725 [MHz]
  Nuclear repulsion =  320.975488935904991

  Charge       = 0
  Multiplicity = 1
  Electrons    = 58
  Nalpha       = 29
  Nbeta        = 29

  ==> Algorithm <==

  SCF Algorithm Type is DF.
  DIIS enabled.
  MOM disabled.
  Fractional occupation disabled.
  Guess Type is SAD.
  Energy threshold   = 1.00e-08
  Density threshold  = 1.00e-08
  Integral threshold = 0.00e+00

  ==> Primary Basis <==

  Basis Set: CC-PVTZ
    Number of shells: 154
    Number of basis function: 406
    Number of Cartesian functions: 455
    Spherical Harmonics?: true
    Max angular momentum: 3

  ==> Pre-Iterations <==

   -------------------------------------------------------
    Irrep   Nso     Nmo     Nalpha   Nbeta   Ndocc  Nsocc
   -------------------------------------------------------
     A        406     406       0       0       0       0
   -------------------------------------------------------
    Total     406     406      29      29      29       0
   -------------------------------------------------------

  ==> Integral Setup <==

  ==> DFJK: Density-Fitted J/K Matrices <==

    J tasked:                  Yes
    K tasked:                  Yes
    wK tasked:                  No
    OpenMP threads:              4
    Integrals threads:           4
    Memory (MB):              1430
    Algorithm:                Core
    Integral Cache:           NONE
    Schwarz Cutoff:          1E-12
    Fitting Condition:       1E-12

   => Auxiliary Basis Set <=

  Basis Set: 
    Number of shells: 315
    Number of basis function: 973
    Number of Cartesian functions: 1162
    Spherical Harmonics?: true
    Max angular momentum: 4

  Minimum eigenvalue in the overlap matrix is 2.8514043133E-04.
  Using Symmetric Orthogonalization.
  SCF Guess: Superposition of Atomic Densities via on-the-fly atomic UHF.

  ==> Iterations <==

                           Total Energy        Delta E     RMS |[F,P]|

   @DF-RHF iter   0:  -313.61341534276255   -3.13613e+02   1.30376e-02 
   @DF-RHF iter   1:  -310.14664850915472    3.46677e+00   1.17417e-03 
   @DF-RHF iter   2:  -310.30527326196852   -1.58625e-01   3.74878e-04 DIIS
   @DF-RHF iter   3:  -310.32016002159946   -1.48868e-02   1.55357e-04 DIIS
   @DF-RHF iter   4:  -310.32290809646327   -2.74807e-03   3.89982e-05 DIIS
   @DF-RHF iter   5:  -310.32312156429464   -2.13468e-04   1.31620e-05 DIIS
   @DF-RHF iter   6:  -310.32314578073908   -2.42164e-05   4.11230e-06 DIIS
   @DF-RHF iter   7:  -310.32314864094440   -2.86021e-06   1.06796e-06 DIIS
   @DF-RHF iter   8:  -310.32314887081122   -2.29867e-07   3.00117e-07 DIIS
   @DF-RHF iter   9:  -310.32314888899157   -1.81803e-08   8.83492e-08 DIIS
   @DF-RHF iter  10:  -310.32314889041095   -1.41938e-09   2.46122e-08 DIIS
   @DF-RHF iter  11:  -310.32314889051656   -1.05615e-10   5.96778e-09 DIIS

  ==> Post-Iterations <==

    Orbital Energies (a.u.)
    -----------------------

    Doubly Occupied:                                                      

       1A    -20.545757     2A    -11.264731     3A    -11.207811  
       4A    -11.206284     5A    -11.202480     6A    -11.199175  
       7A    -11.199123     8A     -1.365905     9A     -1.078397  
      10A     -1.028953    11A     -0.952680    12A     -0.874643  
      13A     -0.798756    14A     -0.771549    15A     -0.700150  
      16A     -0.658759    17A     -0.616898    18A     -0.602093  
      19A     -0.584961    20A     -0.563905    21A     -0.532704  
      22A     -0.518930    23A     -0.497903    24A     -0.492837  
      25A     -0.483523    26A     -0.456425    27A     -0.444720  
      28A     -0.437081    29A     -0.423822  

    Virtual:                                                              

      30A      0.136784    31A      0.151978    32A      0.166604  
      33A      0.172249    34A      0.188781    35A      0.194046  
      36A      0.200851    37A      0.218211    38A      0.236758  
      39A      0.240653    40A      0.252855    41A      0.257397  
      42A      0.271947    43A      0.288300    44A      0.308075  
      45A      0.337978    46A      0.354219    47A      0.365555  
      48A      0.378731    49A      0.396454    50A      0.402384  
      51A      0.417016    52A      0.432318    53A      0.443921  
      54A      0.467237    55A      0.481808    56A      0.489133  
      57A      0.529754    58A      0.533107    59A      0.555869  
      60A      0.568830    61A      0.575271    62A      0.580307  
      63A      0.597783    64A      0.607167    65A      0.615017  
      66A      0.626885    67A      0.639619    68A      0.643560  
      69A      0.653558    70A      0.654511    71A      0.662012  
      72A      0.675588    73A      0.677658    74A      0.682697  
      75A      0.697561    76A      0.702892    77A      0.711541  
      78A      0.713212    79A      0.729255    80A      0.737944  
      81A      0.743565    82A      0.788271    83A      0.819134  
      84A      0.823420    85A      0.858398    86A      0.860188  
      87A      0.869687    88A      0.892258    89A      0.912827  
      90A      0.925581    91A      0.939466    92A      0.975754  
      93A      0.992066    94A      0.995338    95A      1.002150  
      96A      1.018055    97A      1.053535    98A      1.063854  
      99A      1.086610   100A      1.099827   101A      1.119142  
     102A      1.138458   103A      1.144243   104A      1.186043  
     105A      1.202618   106A      1.214151   107A      1.226098  
     108A      1.240305   109A      1.246656   110A      1.261130  
     111A      1.271149   112A      1.277497   113A      1.293774  
     114A      1.298441   115A      1.316266   116A      1.325575  
     117A      1.343624   118A      1.354880   119A      1.360378  
     120A      1.374302   121A      1.388838   122A      1.397133  
     123A      1.404954   124A      1.420295   125A      1.421941  
     126A      1.433944   127A      1.443743   128A      1.453094  
     129A      1.463683   130A      1.477089   131A      1.491566  
     132A      1.500620   133A      1.503865   134A      1.512837  
     135A      1.528437   136A      1.541346   137A      1.554478  
     138A      1.577383   139A      1.592825   140A      1.595789  
     141A      1.614714   142A      1.622771   143A      1.644103  
     144A      1.665366   145A      1.684093   146A      1.689282  
     147A      1.702331   148A      1.725853   149A      1.731469  
     150A      1.757567   151A      1.777123   152A      1.791315  
     153A      1.811593   154A      1.822411   155A      1.829899  
     156A      1.844047   157A      1.857673   158A      1.875683  
     159A      1.949859   160A      1.977246   161A      1.995419  
     162A      2.042621   163A      2.093788   164A      2.175241  
     165A      2.280557   166A      2.297245   167A      2.400498  
     168A      2.435116   169A      2.508177   170A      2.540549  
     171A      2.586442   172A      2.632456   173A      2.648738  
     174A      2.654722   175A      2.685610   176A      2.705888  
     177A      2.727625   178A      2.743186   179A      2.752545  
     180A      2.790205   181A      2.811352   182A      2.824368  
     183A      2.843758   184A      2.849173   185A      2.861256  
     186A      2.878622   187A      2.902429   188A      2.907342  
     189A      2.948785   190A      2.954863   191A      2.966324  
     192A      2.990386   193A      2.995291   194A      3.005059  
     195A      3.021519   196A      3.038360   197A      3.062564  
     198A      3.086447   199A      3.097049   200A      3.136795  
     201A      3.140504   202A      3.153479   203A      3.167012  
     204A      3.182149   205A      3.196306   206A      3.227972  
     207A      3.249564   208A      3.253599   209A      3.265947  
     210A      3.271717   211A      3.289639   212A      3.322681  
     213A      3.325658   214A      3.337033   215A      3.358993  
     216A      3.367869   217A      3.372525   218A      3.388638  
     219A      3.402778   220A      3.418517   221A      3.427757  
     222A      3.430458   223A      3.436090   224A      3.444733  
     225A      3.454995   226A      3.468035   227A      3.487615  
     228A      3.489233   229A      3.497113   230A      3.500437  
     231A      3.509702   232A      3.525548   233A      3.538080  
     234A      3.545611   235A      3.553339   236A      3.565693  
     237A      3.577106   238A      3.591885   239A      3.618202  
     240A      3.624345   241A      3.651621   242A      3.663245  
     243A      3.678044   244A      3.698062   245A      3.734800  
     246A      3.750525   247A      3.755279   248A      3.768436  
     249A      3.782087   250A      3.801264   251A      3.810762  
     252A      3.819955   253A      3.848023   254A      3.858385  
     255A      3.865020   256A      3.882143   257A      3.895936  
     258A      3.915797   259A      3.916234   260A      3.949988  
     261A      3.954479   262A      3.974573   263A      3.981885  
     264A      3.998352   265A      4.028469   266A      4.040941  
     267A      4.045024   268A      4.062109   269A      4.096394  
     270A      4.103899   271A      4.122000   272A      4.133345  
     273A      4.146160   274A      4.151472   275A      4.155650  
     276A      4.164901   277A      4.185541   278A      4.194011  
     279A      4.198585   280A      4.204211   281A      4.233102  
     282A      4.236961   283A      4.257367   284A      4.260515  
     285A      4.274387   286A      4.296751   287A      4.309130  
     288A      4.315625   289A      4.323986   290A      4.341831  
     291A      4.357201   292A      4.365881   293A      4.390581  
     294A      4.407286   295A      4.420040   296A      4.427337  
     297A      4.449303   298A      4.455703   299A      4.462685  
     300A      4.473388   301A      4.491354   302A      4.502725  
     303A      4.505505   304A      4.515185   305A      4.531574  
     306A      4.536961   307A      4.561575   308A      4.563360  
     309A      4.578359   310A      4.617159   311A      4.632513  
     312A      4.655446   313A      4.660024   314A      4.676273  
     315A      4.697196   316A      4.706568   317A      4.712156  
     318A      4.747024   319A      4.751908   320A      4.765591  
     321A      4.785665   322A      4.795224   323A      4.824662  
     324A      4.841166   325A      4.885798   326A      4.909413  
     327A      4.948303   328A      4.968037   329A      5.004138  
     330A      5.021105   331A      5.037428   332A      5.057021  
     333A      5.072259   334A      5.109377   335A      5.110331  
     336A      5.138087   337A      5.159737   338A      5.183117  
     339A      5.205358   340A      5.224152   341A      5.245996  
     342A      5.260681   343A      5.280311   344A      5.307437  
     345A      5.316925   346A      5.330959   347A      5.340290  
     348A      5.361599   349A      5.381797   350A      5.402754  
     351A      5.435089   352A      5.456669   353A      5.460439  
     354A      5.480663   355A      5.534936   356A      5.542172  
     357A      5.554061   358A      5.574119   359A      5.615887  
     360A      5.620992   361A      5.647360   362A      5.718446  
     363A      5.751759   364A      5.758829   365A      5.766940  
     366A      5.792965   367A      5.807737   368A      5.837363  
     369A      5.852706   370A      5.871780   371A      5.893148  
     372A      5.918832   373A      5.930171   374A      5.955716  
     375A      5.960625   376A      5.973595   377A      6.001700  
     378A      6.037050   379A      6.080719   380A      6.119700  
     381A      6.146177   382A      6.228858   383A      6.263825  
     384A      6.328137   385A      6.347407   386A      6.406369  
     387A      6.432622   388A      6.474406   389A      6.493813  
     390A      6.519016   391A      6.707215   392A      7.107520  
     393A      7.174778   394A      7.266460   395A      7.320611  
     396A      7.443058   397A      7.543785   398A      7.751240  
     399A      8.051392   400A     12.404076   401A     13.075015  
     402A     13.381488   403A     13.735808   404A     13.833590  
     405A     14.184580   406A     14.280743  

    Final Occupation by Irrep:
              A 
    DOCC [    29 ]

  Energy converged.

  @DF-RHF Final Energy:  -310.32314889051656

   => Energetics <=

    Nuclear Repulsion Energy =            320.9754889359049912
    One-Electron Energy =               -1057.1753691164005886
    Two-Electron Energy =                 425.8767312899785225
    DFT Exchange-Correlation Energy =       0.0000000000000000
    Empirical Dispersion Energy =           0.0000000000000000
    PCM Polarization Energy =               0.0000000000000000
    EFP Energy =                            0.0000000000000000
    Total Energy =                       -310.3231488905170750


  Saving occupied orbitals to File 180.

*** tstop() called on cx1-27-1-3 at Sat Sep 10 15:32:41 2016
Module time:
	user time   =      43.03 seconds =       0.72 minutes
	system time =       0.85 seconds =       0.01 minutes
	total time  =         12 seconds =       0.20 minutes
Total time:
	user time   =      43.03 seconds =       0.72 minutes
	system time =       0.85 seconds =       0.01 minutes
	total time  =         12 seconds =       0.20 minutes


Properties will be evaluated at   0.000000,   0.000000,   0.000000 Bohr

Properties computed using the SCF density matrix

  Nuclear Dipole Moment: (a.u.)
     X:     4.2247      Y:    -1.8491      Z:    -1.1164

  Electronic Dipole Moment: (a.u.)
     X:    -4.8698      Y:     1.8088      Z:     1.1456

  Dipole Moment: (a.u.)
     X:    -0.6451      Y:    -0.0403      Z:     0.0293     Total:     0.6470

  Dipole Moment: (Debye)
     X:    -1.6396      Y:    -0.1024      Z:     0.0744     Total:     1.6445


*** tstart() called on cx1-27-1-3
*** at Sat Sep 10 15:32:41 2016


         ------------------------------------------------------------
                                   SCF GRAD                          
                          Rob Parrish, Justin Turney,                
                       Andy Simmonett, and Alex Sokolov              
         ------------------------------------------------------------

  ==> Geometry <==

    Molecular point group: c1
    Full point group: C1

    Geometry (in Angstrom), charge = 0, multiplicity = 1:

       Center              X                  Y                   Z               Mass       
    ------------   -----------------  -----------------  -----------------  -----------------
           H         -2.708810247669     2.055761960982     0.788904787878     1.007825032070
           O         -2.027989247669     1.463058960982     0.529326787878    15.994914619560
           C         -2.583229247669     0.248796960982     0.098406787878    12.000000000000
           C         -1.456653247669    -0.678262039018    -0.310874212122    12.000000000000
           H         -3.167082247669    -0.206922039018     0.895407787878     1.007825032070
           H         -3.251774247669     0.413617960982    -0.744036212122     1.007825032070
           C         -0.084936247669    -0.173799039018     0.127754787878    12.000000000000
           H         -1.482838247669    -0.795544039018    -1.389660212122     1.007825032070
           H         -1.646940247669    -1.658803039018     0.113680787878     1.007825032070
           C          1.049254752331    -1.106211039018    -0.294213212122    12.000000000000
           H          0.078576752331     0.817153960982    -0.284544212122     1.007825032070
           H         -0.068831247669    -0.061940039018     1.209794787878     1.007825032070
           C          2.438734752331    -0.687744039018     0.189341787878    12.000000000000
           H          1.058422752331    -1.191275039018    -1.378346212122     1.007825032070
           H          0.838035752331    -2.102028039018     0.085144787878     1.007825032070
           C          2.960598752331     0.613376960982    -0.415720212122    12.000000000000
           H          3.137333752331    -1.484804039018    -0.045948212122     1.007825032070
           H          2.430810752331    -0.603443039018     1.272976787878     1.007825032070
           H          2.973238752331     0.560995960982    -1.499767212122     1.007825032070
           H          2.353494752331     1.464999960982    -0.133141212122     1.007825032070
           H          3.973298752331     0.812325960982    -0.084012212122     1.007825032070

  Nuclear repulsion =  320.975488935904991

  ==> Basis Set <==

  Basis Set: CC-PVTZ
    Number of shells: 154
    Number of basis function: 406
    Number of Cartesian functions: 455
    Spherical Harmonics?: true
    Max angular momentum: 3

  ==> DFJKGrad: Density-Fitted SCF Gradients <==

    Gradient:                    1
    J tasked:                  Yes
    K tasked:                  Yes
    wK tasked:                  No
    OpenMP threads:              4
    Integrals threads:           4
    Memory (MB):              1430
    Schwarz Cutoff:          0E+00
    Fitting Condition:       1E-12

   => Auxiliary Basis Set <=

  Basis Set: 
    Number of shells: 315
    Number of basis function: 973
    Number of Cartesian functions: 1162
    Spherical Harmonics?: true
    Max angular momentum: 4


  -Total Gradient:
     Atom            X                  Y                   Z
    ------   -----------------  -----------------  -----------------
       1        0.000443485414     0.000184320944     0.000223913174
       2        0.009143484320    -0.006991277019    -0.001100318069
       3        0.006759848127    -0.004639451459    -0.003764073361
       4       -0.004883632890     0.005273589587     0.004547452096
       5       -0.000189858432    -0.002706453032    -0.000355090731
       6        0.000516927490    -0.000586492423    -0.002321280773
       7       -0.008050512289     0.001022914844     0.000546490064
       8       -0.003992236352     0.001184664373    -0.000177479431
       9       -0.002118989828     0.000892760428     0.001713609010
      10        0.002368953063     0.001180552475    -0.000006301066
      11        0.000696362125     0.004314353728    -0.001971820963
      12        0.000197761973    -0.000319610021     0.002059910767
      13        0.000305626782    -0.000125517357    -0.000002583567
      14       -0.000449159902     0.000282636460     0.000509718017
      15       -0.000728173912     0.000968653315     0.000080369680
      16        0.000212768123    -0.000312360397    -0.000192621450
      17       -0.000190604882     0.000092327301     0.000041911271
      18        0.000085475201    -0.000098660439     0.000048092202
      19        0.000004831719     0.000043230362     0.000066741848
      20        0.000054525418     0.000274064779     0.000056259172
      21       -0.000186881268     0.000065753556    -0.000002897889


*** tstop() called on cx1-27-1-3 at Sat Sep 10 15:32:54 2016
Module time:
	user time   =      45.34 seconds =       0.76 minutes
	system time =       0.86 seconds =       0.01 minutes
	total time  =         13 seconds =       0.22 minutes
Total time:
	user time   =      88.54 seconds =       1.48 minutes
	system time =       1.71 seconds =       0.03 minutes
	total time  =         25 seconds =       0.42 minutes

			-----------------------------------------
			 OPTKING 2.0: for geometry optimizations 
			  - R.A. King,  Bethel University        
			-----------------------------------------

	Internal coordinates to be generated automatically.
	Detected frag 1 with atoms:  1 2 3 4 5 6 7 8 9 10 11 12 13 14 15 16 17 18 19 20
	 21
	---Fragment 1 Bond Connectivity---
	 1 : 2
	 2 : 1 3
	 3 : 2 4 5 6
	 4 : 3 7 8 9
	 5 : 3
	 6 : 3
	 7 : 4 10 11 12
	 8 : 4
	 9 : 4
	 10 : 7 13 14 15
	 11 : 7
	 12 : 7
	 13 : 10 16 17 18
	 14 : 10
	 15 : 10
	 16 : 13 19 20 21
	 17 : 13
	 18 : 13
	 19 : 16
	 20 : 16
	 21 : 16

	Assuming in current code that numbering for constraints corresponds to unified fragment.
	Frozen dihedral atom list: 
	     2     3     4     8
	---Fragment 1 Geometry and Gradient---
	 H          -5.1189095140        3.8848271007        1.4908139940
	 O          -3.8323442785        2.7647807525        1.0002826639
	 C          -4.8815958166        0.4701581190        0.1859618787
	 C          -2.7526757087       -1.2817295001       -0.5874671227
	 H          -5.9849180884       -0.3910259846        1.6920754963
	 H          -6.1449627741        0.7816246699       -1.4060246739
	 C          -0.1605062468       -0.3284325859        0.2414215613
	 H          -2.8021581875       -1.5033603604       -2.6260772187
	 H          -3.1122660253       -3.1346834521        0.2148255557
	 C           1.9828041255       -2.0904359089       -0.5559823956
	 H           0.1484885423        1.5441971947       -0.5377106336
	 H          -0.1300722075       -0.1170497104        2.2861808261
	 C           4.6085407927       -1.2996478833        0.3578041246
	 H           2.0001291347       -2.2511835727       -2.6046968572
	 H           1.5836580615       -3.9722573174        0.1609003307
	 C           5.5947208313        1.1591144725       -0.7855973488
	 H           5.9287015794       -2.8058729947       -0.0868295372
	 H           4.5935666028       -1.1403420805        2.4055775026
	 H           5.6186069696        1.0601287279       -2.8341492940
	 H           4.4474605371        2.7684487109       -0.2516004279
	 H           7.5084464860        1.5350735969       -0.1587600727
	             0.0004434854        0.0001843209        0.0002239132
	             0.0091434843       -0.0069912770       -0.0011003181
	             0.0067598481       -0.0046394515       -0.0037640734
	            -0.0048836329        0.0052735896        0.0045474521
	            -0.0001898584       -0.0027064530       -0.0003550907
	             0.0005169275       -0.0005864924       -0.0023212808
	            -0.0080505123        0.0010229148        0.0005464901
	            -0.0039922364        0.0011846644       -0.0001774794
	            -0.0021189898        0.0008927604        0.0017136090
	             0.0023689531        0.0011805525       -0.0000063011
	             0.0006963621        0.0043143537       -0.0019718210
	             0.0001977620       -0.0003196100        0.0020599108
	             0.0003056268       -0.0001255174       -0.0000025836
	            -0.0004491599        0.0002826365        0.0005097180
	            -0.0007281739        0.0009686533        0.0000803697
	             0.0002127681       -0.0003123604       -0.0001926214
	            -0.0001906049        0.0000923273        0.0000419113
	             0.0000854752       -0.0000986604        0.0000480922
	             0.0000048317        0.0000432304        0.0000667418
	             0.0000545254        0.0002740648        0.0000562592
	            -0.0001868813        0.0000657536       -0.0000028979

	Previous optimization step data not found.  Starting new optimization.

	---Fragment 1 Intrafragment Coordinates---
	 - Coordinate -           - BOHR/RAD -       - ANG/DEG -
	 R(1,2)           =         1.774930	       0.939252
	 R(2,3)           =         2.651290	       1.403002
	 R(3,4)           =         2.863495	       1.515296
	 R(3,5)           =         2.056049	       1.088014
	 R(3,6)           =         2.056095	       1.088039
	 R(4,7)           =         2.883604	       1.525938
	 R(4,8)           =         2.051219	       1.085458
	 R(4,9)           =         2.050955	       1.085319
	 R(7,10)          =         2.886917	       1.527691
	 R(7,11)          =         2.051650	       1.085686
	 R(7,12)          =         2.055882	       1.087926
	 R(10,13)         =         2.890475	       1.529573
	 R(10,14)         =         2.055084	       1.087504
	 R(10,15)         =         2.052922	       1.086360
	 R(13,16)         =         2.885382	       1.526878
	 R(13,17)         =         2.051643	       1.085683
	 R(13,18)         =         2.054015	       1.086938
	 R(16,19)         =         2.051081	       1.085385
	 R(16,20)         =         2.047270	       1.083369
	 R(16,21)         =         2.048564	       1.084054
	 B(1,2,3)         =         1.922149	     110.131000
	 B(2,3,4)         =         1.894655	     108.555752
	 B(2,3,5)         =         1.928246	     110.480379
	 B(2,3,6)         =         1.928235	     110.479710
	 B(3,4,7)         =         1.969727	     112.857049
	 B(3,4,8)         =         1.892948	     108.457934
	 B(3,4,9)         =         1.893074	     108.465161
	 B(4,3,5)         =         1.918312	     109.911174
	 B(4,3,6)         =         1.918107	     109.899462
	 B(4,7,10)        =         1.967323	     112.719327
	 B(4,7,11)        =         1.904951	     109.145677
	 B(4,7,12)        =         1.910483	     109.462633
	 B(5,3,6)         =         1.876434	     107.511771
	 B(7,4,8)         =         1.920998	     110.065073
	 B(7,4,9)         =         1.921800	     110.111042
	 B(7,10,13)       =         2.004377	     114.842345
	 B(7,10,14)       =         1.906418	     109.229711
	 B(7,10,15)       =         1.895123	     108.582530
	 B(8,4,9)         =         1.861815	     106.674166
	 B(10,7,11)       =         1.918113	     109.899760
	 B(10,7,12)       =         1.903376	     109.055429
	 B(10,13,16)      =         2.002410	     114.729650
	 B(10,13,17)      =         1.891425	     108.370687
	 B(10,13,18)      =         1.906859	     109.254979
	 B(11,7,12)       =         1.856287	     106.357383
	 B(13,10,14)      =         1.905934	     109.201947
	 B(13,10,15)      =         1.893369	     108.482040
	 B(13,16,19)      =         1.937608	     111.016744
	 B(13,16,20)      =         1.955158	     112.022309
	 B(13,16,21)      =         1.933091	     110.757979
	 B(14,10,15)      =         1.852568	     106.144307
	 B(16,13,17)      =         1.896314	     108.650780
	 B(16,13,18)      =         1.908658	     109.358053
	 B(17,13,18)      =         1.852188	     106.122567
	 B(19,16,20)      =         1.880708	     107.756651
	 B(19,16,21)      =         1.879254	     107.673296
	 B(20,16,21)      =         1.874884	     107.422933
	 D(1,2,3,4)       =         3.141542	     179.997075
	 D(1,2,3,5)       =        -1.036998	     -59.415625
	 D(1,2,3,6)       =         1.037155	      59.424586
	 D(2,3,4,7)       =         0.213330	      12.222924
	*D(2,3,4,8)       =        -1.919862	    -109.999990
	 D(2,3,4,9)       =         2.347631	     134.509370
	 D(3,4,7,10)      =        -3.135192	    -179.633268
	 D(3,4,7,11)      =        -0.998731	     -57.223068
	 D(3,4,7,12)      =         1.026407	      58.808771
	 D(4,7,10,13)     =        -3.083852	    -176.691724
	 D(4,7,10,14)     =         1.051739	      60.260211
	 D(4,7,10,15)     =        -0.961289	     -55.077808
	 D(5,3,4,7)       =        -1.897454	    -108.716129
	 D(5,3,4,8)       =         2.252539	     129.060957
	 D(5,3,4,9)       =         0.236847	      13.570317
	 D(6,3,4,7)       =         2.323976	     133.154032
	 D(6,3,4,8)       =         0.190784	      10.931117
	 D(6,3,4,9)       =        -1.824908	    -104.559522
	 D(7,10,13,16)    =        -1.155372	     -66.197965
	 D(7,10,13,17)    =         3.005538	     172.204654
	 D(7,10,13,18)    =         0.994735	      56.994122
	 D(8,4,7,10)      =        -1.017828	     -58.317241
	 D(8,4,7,11)      =         1.118633	      64.092959
	 D(8,4,7,12)      =        -3.139415	    -179.875202
	 D(9,4,7,10)      =         1.029893	      59.008508
	 D(9,4,7,11)      =        -3.116832	    -178.581292
	 D(9,4,7,12)      =        -1.091694	     -62.549453
	 D(10,13,16,19)   =        -0.985496	     -56.464784
	 D(10,13,16,20)   =         1.117956	      64.054150
	 D(10,13,16,21)   =        -3.072313	    -176.030593
	 D(11,7,10,13)    =         1.070283	      61.322692
	 D(11,7,10,14)    =        -1.077311	     -61.725372
	 D(11,7,10,15)    =        -3.090339	    -177.063392
	 D(12,7,10,13)    =        -0.958241	     -54.903161
	 D(12,7,10,14)    =        -3.105835	    -177.951226
	 D(12,7,10,15)    =         1.164322	      66.710755
	 D(14,10,13,16)   =         0.992481	      56.864970
	 D(14,10,13,17)   =        -1.129794	     -64.732411
	 D(14,10,13,18)   =        -3.140597	    -179.942944
	 D(15,10,13,16)   =         3.004295	     172.133451
	 D(15,10,13,17)   =         0.882021	      50.536070
	 D(15,10,13,18)   =        -1.128782	     -64.674463
	 D(17,13,16,19)   =         1.134110	      64.979693
	 D(17,13,16,20)   =        -3.045624	    -174.501373
	 D(17,13,16,21)   =        -0.952707	     -54.586117
	 D(18,13,16,19)   =        -3.134640	    -179.601616
	 D(18,13,16,20)   =        -1.031187	     -59.082681
	 D(18,13,16,21)   =         1.061729	      60.832575

	Current energy   :      -310.3231488905

	Generating empirical Hessian (Schlegel '84) for each fragment.
	Taking RFO optimization step.
	Going to follow RFO solution 1.
	Using RFO vector 1.
	Norm of target step-size    0.26125
	Projected energy change by RFO approximation:        -0.0055131449

	Back-transformation to cartesian coordinates...
	Successfully converged to displaced geometry.

	Back-transformation to cartesian coordinates to adjust frozen coordinates...
	Successfully converged to displaced geometry.

	--- Internal Coordinate Step in ANG or DEG, aJ/ANG or AJ/DEG ---
	 ---------------------------------------------------------------------------
	   Coordinate                Previous        Force       Change         New 
	   ----------                --------       ------       ------       ------
	    1 R(1,2)          =      0.939252     0.001180     0.000164     0.939416
	    2 R(2,3)          =      1.403002     0.019496     0.002907     1.405910
	    3 R(3,4)          =      1.515296     0.192707     0.039187     1.554483
	    4 R(3,5)          =      1.088014    -0.008036    -0.001379     1.086636
	    5 R(3,6)          =      1.088039    -0.011459    -0.001905     1.086134
	    6 R(4,7)          =      1.525938     0.019015     0.004171     1.530109
	    7 R(4,8)          =      1.085458    -0.001192    -0.000140     1.085318
	    8 R(4,9)          =      1.085319    -0.001938    -0.000200     1.085119
	    9 R(7,10)         =      1.527691     0.004247     0.000969     1.528660
	   10 R(7,11)         =      1.085686    -0.039477    -0.006877     1.078809
	   11 R(7,12)         =      1.087926    -0.016633    -0.002903     1.085023
	   12 R(10,13)        =      1.529573    -0.002039    -0.000251     1.529322
	   13 R(10,14)        =      1.087504     0.004400     0.000859     1.088363
	   14 R(10,15)        =      1.086360     0.005918     0.001196     1.087555
	   15 R(13,16)        =      1.526878    -0.000973    -0.000025     1.526854
	   16 R(13,17)        =      1.085683     0.001644     0.000364     1.086047
	   17 R(13,18)        =      1.086938    -0.000327     0.000015     1.086953
	   18 R(16,19)        =      1.085385     0.000566     0.000174     1.085559
	   19 R(16,20)        =      1.083369    -0.001644    -0.000214     1.083154
	   20 R(16,21)        =      1.084054     0.001346     0.000362     1.084416
	   21 B(1,2,3)        =    110.131000    -0.000065    -0.337043   109.793958
	   22 B(2,3,4)        =    108.555752     0.001552     5.709410   114.265161
	   23 B(2,3,5)        =    110.480379    -0.000574    -2.389377   108.091002
	   24 B(2,3,6)        =    110.479710    -0.000601    -1.982807   108.496902
	   25 B(3,4,7)        =    112.857049     0.001367     5.324463   118.181512
	   26 B(3,4,8)        =    108.457934    -0.000210     0.898162   109.356096
	   27 B(3,4,9)        =    108.465161    -0.000336    -0.820907   107.644254
	   28 B(4,3,5)        =    109.911174    -0.000228    -0.297016   109.614158
	   29 B(4,3,6)        =    109.899462    -0.000255    -0.090396   109.809066
	   30 B(4,7,10)       =    112.719327    -0.000261    -0.913380   111.805947
	   31 B(4,7,11)       =    109.145677     0.000079     0.296622   109.442299
	   32 B(4,7,12)       =    109.462633     0.000074     0.118139   109.580771
	   33 B(5,3,6)        =    107.511771     0.000074    -1.268130   106.243642
	   34 B(7,4,8)        =    110.065073    -0.000498    -1.294899   108.770174
	   35 B(7,4,9)        =    110.111042    -0.000532    -2.734479   107.376564
	   36 B(7,10,13)      =    114.842345    -0.000100    -0.333690   114.508655
	   37 B(7,10,14)      =    109.229711     0.000047     0.219461   109.449171
	   38 B(7,10,15)      =    108.582530     0.000083     0.531713   109.114243
	   39 B(8,4,9)        =    106.674166     0.000151    -2.011378   104.662788
	   40 B(10,7,11)      =    109.899760     0.000096     0.412229   110.311989
	   41 B(10,7,12)      =    109.055429     0.000077     0.181457   109.236886
	   42 B(10,13,16)     =    114.729650    -0.000014    -0.016863   114.712788
	   43 B(10,13,17)     =    108.370687     0.000011     0.073103   108.443789
	   44 B(10,13,18)     =    109.254979     0.000001    -0.073865   109.181114
	   45 B(11,7,12)      =    106.357383    -0.000053    -0.048075   106.309308
	   46 B(13,10,14)     =    109.201947     0.000010    -0.183522   109.018425
	   47 B(13,10,15)     =    108.482040    -0.000010    -0.124108   108.357932
	   48 B(13,16,19)     =    111.016744    -0.000002    -0.032703   110.984042
	   49 B(13,16,20)     =    112.022309    -0.000016    -0.054857   111.967452
	   50 B(13,16,21)     =    110.757979    -0.000001     0.050521   110.808500
	   51 B(14,10,15)     =    106.144307    -0.000025    -0.094847   106.049460
	   52 B(16,13,17)     =    108.650780     0.000002     0.028338   108.679118
	   53 B(16,13,18)     =    109.358053     0.000002    -0.055326   109.302726
	   54 B(17,13,18)     =    106.122567     0.000000     0.052396   106.174963
	   55 B(19,16,20)     =    107.756651     0.000006     0.007762   107.764412
	   56 B(19,16,21)     =    107.673296     0.000001    -0.030771   107.642525
	   57 B(20,16,21)     =    107.422933     0.000013     0.062463   107.485396
	   58 D(1,2,3,4)      =    179.997075    -0.000005    -0.227755   179.769320
	   59 D(1,2,3,5)      =    -59.415625     0.000075     1.503464   -57.912161
	   60 D(1,2,3,6)      =     59.424586    -0.000074    -2.528389    56.896197
	   61 D(2,3,4,7)      =     12.222924     0.000028     2.886056    15.108980
	   62 *D(2,3,4,8)     =   -109.999990     0.000000    -0.000000  -109.999990
	   63 D(2,3,4,9)      =    134.509370     0.000025     2.332213   136.841583
	   64 D(3,4,7,10)     =   -179.633268    -0.000021    -2.805633  -182.438901
	   65 D(3,4,7,11)     =    -57.223068    -0.000020    -2.687257   -59.910324
	   66 D(3,4,7,12)     =     58.808771    -0.000015    -2.510373    56.298398
	   67 D(4,7,10,13)    =   -176.691724     0.000001    -0.061261  -176.752985
	   68 D(4,7,10,14)    =     60.260211     0.000006     0.248335    60.508546
	   69 D(4,7,10,15)    =    -55.077808    -0.000004    -0.051590   -55.129398
	   70 D(5,3,4,7)      =   -108.716129    -0.000001     2.342151  -106.373978
	   71 D(5,3,4,8)      =    129.060957    -0.000029    -0.543905   128.517052
	   72 D(5,3,4,9)      =     13.570317    -0.000003     1.788308    15.358625
	   73 D(6,3,4,7)      =    133.154032     0.000045     4.113117   137.267149
	   74 D(6,3,4,8)      =     10.931117     0.000017     1.227061    12.158178
	   75 D(6,3,4,9)      =   -104.559522     0.000043     3.559274  -101.000248
	   76 D(7,10,13,16)   =    -66.197965     0.000003     0.267190   -65.930774
	   77 D(7,10,13,17)   =    172.204654     0.000003     0.187457   172.392112
	   78 D(7,10,13,18)   =     56.994122     0.000002     0.125028    57.119150
	   79 D(8,4,7,10)     =    -58.317241     0.000050     1.273780   -57.043461
	   80 D(8,4,7,11)     =     64.092959     0.000051     1.392156    65.485115
	   81 D(8,4,7,12)     =   -179.875202     0.000056     1.569039  -178.306163
	   82 D(9,4,7,10)     =     59.008508    -0.000049    -3.316221    55.692286
	   83 D(9,4,7,11)     =   -178.581292    -0.000049    -3.197845  -181.779137
	   84 D(9,4,7,12)     =    -62.549453    -0.000044    -3.020962   -65.570415
	   85 D(10,13,16,19)  =    -56.464784    -0.000001    -0.111259   -56.576043
	   86 D(10,13,16,20)  =     64.054150    -0.000002    -0.161559    63.892592
	   87 D(10,13,16,21)  =   -176.030593    -0.000001    -0.084421  -176.115015
	   88 D(11,7,10,13)   =     61.322692     0.000003    -0.106477    61.216216
	   89 D(11,7,10,14)   =    -61.725372     0.000008     0.203120   -61.522253
	   90 D(11,7,10,15)   =   -177.063392    -0.000001    -0.096805  -177.160197
	   91 D(12,7,10,13)   =    -54.903161    -0.000005    -0.388334   -55.291495
	   92 D(12,7,10,14)   =   -177.951226     0.000000    -0.078737  -178.029963
	   93 D(12,7,10,15)   =     66.710755    -0.000009    -0.378662    66.332093
	   94 D(14,10,13,16)  =     56.864970     0.000003     0.175435    57.040405
	   95 D(14,10,13,17)  =    -64.732411     0.000003     0.095702   -64.636709
	   96 D(14,10,13,18)  =   -179.942944     0.000001     0.033273  -179.909672
	   97 D(15,10,13,16)  =    172.133451    -0.000004    -0.101068   172.032383
	   98 D(15,10,13,17)  =     50.536070    -0.000004    -0.180801    50.355269
	   99 D(15,10,13,18)  =    -64.674463    -0.000006    -0.243230   -64.917693
	  100 D(17,13,16,19)  =     64.979693     0.000000    -0.007004    64.972689
	  101 D(17,13,16,20)  =   -174.501373    -0.000001    -0.057303  -174.558676
	  102 D(17,13,16,21)  =    -54.586117     0.000001     0.019834   -54.566283
	  103 D(18,13,16,19)  =   -179.601616     0.000001     0.040972  -179.560643
	  104 D(18,13,16,20)  =    -59.082681    -0.000000    -0.009328   -59.092008
	  105 D(18,13,16,21)  =     60.832575     0.000001     0.067810    60.900385
	 ---------------------------------------------------------------------------
	Successfully symmetrized geometry.

  ==> Convergence Check <==

  Measures of convergence in internal coordinates in au.
  Criteria marked as inactive (o), active & met (*), and active & unmet ( ).
  --------------------------------------------------------------------------------------------- ~
   Step     Total Energy     Delta E     MAX Force     RMS Force      MAX Disp      RMS Disp    ~
  --------------------------------------------------------------------------------------------- ~
    Convergence Criteria    1.00e-06 *    3.00e-04 *             o    1.20e-03 *             o  ~
  --------------------------------------------------------------------------------------------- ~
      1    -310.32314889   -3.10e+02      2.34e-02      4.05e-03 o    9.96e-02      2.58e-02 o  ~
  ---------------------------------------------------------------------------------------------

	Writing optimization data to binary file.
	Structure for next step:
	Cartesian Geometry (in Angstrom)
	    H    -3.0972674273   2.0507565922   0.7484356411
	    O    -2.3143806782   1.5806697792   0.5279617531
	    C    -2.6407102628   0.2722006281   0.1304697261
	    C    -1.4159036568  -0.5995818451  -0.2648292554
	    H    -3.1792943474  -0.2036312759   0.9455083512
	    H    -3.3365082961   0.3282728921  -0.7016406116
	    C    -0.0224109003  -0.1133943634   0.1389430068
	    H    -1.4284804528  -0.7728883739  -1.3361472030
	    H    -1.5561233700  -1.5820463766   0.1740148377
	    C     1.0657498372  -1.1066677691  -0.2686293551
	    H     0.1646717470   0.8509186288  -0.3070731831
	    H     0.0136633129   0.0355464261   1.2130889842
	    C     2.4770712055  -0.7188107818   0.1747269281
	    H     1.0554920449  -1.2320342747  -1.3496993915
	    H     0.8315217991  -2.0829240984   0.1495065510
	    C     3.0296660020   0.5421246337  -0.4855480963
	    H     3.1453158860  -1.5468079768  -0.0429146101
	    H     2.4906927799  -0.5944664688   1.2544580257
	    H     3.0212625388   0.4501570616  -1.5671718162
	    H     2.4542443960   1.4217885377  -0.2241959487
	    H     4.0544436412   0.7201316054  -0.1787877885
			--------------------------
			 OPTKING Finished Execution 
			--------------------------

    Structure for next step:
    Molecular point group: c1
    Full point group: C1

    Geometry (in Angstrom), charge = 0, multiplicity = 1:

    H           -3.073498808962     2.027065006231     0.745359248438
    O           -2.290612059878     1.556978193228     0.524885360450
    C           -2.616941644527     0.248509042052     0.127393333422
    C           -1.392135038503    -0.623273431068    -0.267905648062
    H           -3.155525729105    -0.227322861871     0.942431958517
    H           -3.312739677849     0.304581306097    -0.704717004217
    C            0.001357718037    -0.137085949450     0.135866614108
    H           -1.404711834459    -0.796579959867    -1.339223595650
    H           -1.532354751755    -1.605737962587     0.170938445054
    C            1.089518455542    -1.130359355121    -0.271705747716
    H            0.188440365278     0.827227042797    -0.310149575699
    H            0.037431931208     0.011854840108     1.210012591589
    C            2.500839823829    -0.742502367791     0.171650535480
    H            1.079260663203    -1.255725860715    -1.352775784152
    H            0.855290417379    -2.106615684420     0.146430158358
    C            3.053434620336     0.518433047640    -0.488624488908
    H            3.169084504322    -1.570499562800    -0.045991002744
    H            2.514461398179    -0.618158054821     1.251381633106
    H            3.045031157082     0.426465475590    -1.570248208886
    H            2.478013014252     1.398096951713    -0.227272341362
    H            4.078212259499     0.696440019341    -0.181864181180

gradient() will perform analytic gradient computation.

*** tstart() called on cx1-27-1-3
*** at Sat Sep 10 15:32:55 2016


         ---------------------------------------------------------
                                   SCF
            by Justin Turney, Rob Parrish, and Andy Simmonett
                              RHF Reference
                        4 Threads,   2000 MiB Core
         ---------------------------------------------------------

  ==> Geometry <==

    Molecular point group: c1
    Full point group: C1

    Geometry (in Angstrom), charge = 0, multiplicity = 1:

       Center              X                  Y                   Z               Mass       
    ------------   -----------------  -----------------  -----------------  -----------------
           H         -3.073498808962     2.027065006231     0.745359248438     1.007825032070
           O         -2.290612059878     1.556978193228     0.524885360450    15.994914619560
           C         -2.616941644527     0.248509042052     0.127393333422    12.000000000000
           C         -1.392135038503    -0.623273431068    -0.267905648062    12.000000000000
           H         -3.155525729105    -0.227322861871     0.942431958517     1.007825032070
           H         -3.312739677849     0.304581306097    -0.704717004217     1.007825032070
           C          0.001357718037    -0.137085949450     0.135866614108    12.000000000000
           H         -1.404711834459    -0.796579959867    -1.339223595650     1.007825032070
           H         -1.532354751755    -1.605737962587     0.170938445054     1.007825032070
           C          1.089518455542    -1.130359355121    -0.271705747716    12.000000000000
           H          0.188440365278     0.827227042797    -0.310149575699     1.007825032070
           H          0.037431931208     0.011854840108     1.210012591589     1.007825032070
           C          2.500839823829    -0.742502367791     0.171650535480    12.000000000000
           H          1.079260663203    -1.255725860715    -1.352775784152     1.007825032070
           H          0.855290417379    -2.106615684420     0.146430158358     1.007825032070
           C          3.053434620336     0.518433047640    -0.488624488908    12.000000000000
           H          3.169084504322    -1.570499562800    -0.045991002744     1.007825032070
           H          2.514461398179    -0.618158054821     1.251381633106     1.007825032070
           H          3.045031157082     0.426465475590    -1.570248208886     1.007825032070
           H          2.478013014252     1.398096951713    -0.227272341362     1.007825032070
           H          4.078212259499     0.696440019341    -0.181864181180     1.007825032070

  Running in c1 symmetry.

  Rotational constants: A =      0.18382  B =      0.03297  C =      0.02955 [cm^-1]
  Rotational constants: A =   5510.72124  B =    988.30596  C =    885.85857 [MHz]
  Nuclear repulsion =  316.108251926547325

  Charge       = 0
  Multiplicity = 1
  Electrons    = 58
  Nalpha       = 29
  Nbeta        = 29

  ==> Algorithm <==

  SCF Algorithm Type is DF.
  DIIS enabled.
  MOM disabled.
  Fractional occupation disabled.
  Guess Type is READ.
  Energy threshold   = 1.00e-08
  Density threshold  = 1.00e-08
  Integral threshold = 0.00e+00

  ==> Primary Basis <==

  Basis Set: CC-PVTZ
    Number of shells: 154
    Number of basis function: 406
    Number of Cartesian functions: 455
    Spherical Harmonics?: true
    Max angular momentum: 3

  ==> Pre-Iterations <==

   -------------------------------------------------------
    Irrep   Nso     Nmo     Nalpha   Nbeta   Ndocc  Nsocc
   -------------------------------------------------------
     A        406     406       0       0       0       0
   -------------------------------------------------------
    Total     406     406      29      29      29       0
   -------------------------------------------------------

  ==> Integral Setup <==

  ==> DFJK: Density-Fitted J/K Matrices <==

    J tasked:                  Yes
    K tasked:                  Yes
    wK tasked:                  No
    OpenMP threads:              4
    Integrals threads:           4
    Memory (MB):              1430
    Algorithm:                Core
    Integral Cache:           NONE
    Schwarz Cutoff:          1E-12
    Fitting Condition:       1E-12

   => Auxiliary Basis Set <=

  Basis Set: 
    Number of shells: 315
    Number of basis function: 973
    Number of Cartesian functions: 1162
    Spherical Harmonics?: true
    Max angular momentum: 4

  Minimum eigenvalue in the overlap matrix is 3.2699260218E-04.
  Using Symmetric Orthogonalization.
  SCF Guess: Reading in previously saved MOs, projecting if necessary.

  Using orbitals from previous SCF, no projection.
  Recomputing DOCC and SOCC from number of alpha and beta electrons from previous calculation.
              A 
    DOCC [    29 ]

  ==> Iterations <==

                           Total Energy        Delta E     RMS |[F,P]|

   @DF-RHF iter   0:  -310.28581082976694   -3.10286e+02   6.94411e-04 
   @DF-RHF iter   1:  -310.32147207608949   -3.56612e-02   1.22431e-04 
   @DF-RHF iter   2:  -310.32331442029516   -1.84234e-03   4.78009e-05 DIIS
   @DF-RHF iter   3:  -310.32355712389455   -2.42704e-04   2.15552e-05 DIIS
   @DF-RHF iter   4:  -310.32360662212960   -4.94982e-05   3.30138e-06 DIIS
   @DF-RHF iter   5:  -310.32360814606426   -1.52393e-06   1.34735e-06 DIIS
   @DF-RHF iter   6:  -310.32360840200209   -2.55938e-07   3.50037e-07 DIIS
   @DF-RHF iter   7:  -310.32360842511213   -2.31100e-08   9.33897e-08 DIIS
   @DF-RHF iter   8:  -310.32360842671511   -1.60298e-09   2.95333e-08 DIIS
   @DF-RHF iter   9:  -310.32360842684085   -1.25738e-10   7.10661e-09 DIIS

  ==> Post-Iterations <==

    Orbital Energies (a.u.)
    -----------------------

    Doubly Occupied:                                                      

       1A    -20.544738     2A    -11.268530     3A    -11.214592  
       4A    -11.208967     5A    -11.207404     6A    -11.204536  
       7A    -11.201240     8A     -1.361725     9A     -1.080537  
      10A     -1.026043    11A     -0.951995    12A     -0.878010  
      13A     -0.802614    14A     -0.773389    15A     -0.696636  
      16A     -0.653977    17A     -0.620225    18A     -0.604811  
      19A     -0.586772    20A     -0.563725    21A     -0.537022  
      22A     -0.522734    23A     -0.496186    24A     -0.494056  
      25A     -0.482416    26A     -0.458239    27A     -0.450544  
      28A     -0.438330    29A     -0.424628  

    Virtual:                                                              

      30A      0.135718    31A      0.150299    32A      0.166878  
      33A      0.171852    34A      0.185944    35A      0.195052  
      36A      0.201612    37A      0.217778    38A      0.235349  
      39A      0.237311    40A      0.251494    41A      0.257461  
      42A      0.268679    43A      0.288496    44A      0.310477  
      45A      0.335403    46A      0.352860    47A      0.363634  
      48A      0.375713    49A      0.392912    50A      0.396035  
      51A      0.415034    52A      0.431807    53A      0.439482  
      54A      0.462393    55A      0.474845    56A      0.486281  
      57A      0.520151    58A      0.530781    59A      0.560002  
      60A      0.567908    61A      0.575772    62A      0.580994  
      63A      0.597765    64A      0.603066    65A      0.614429  
      66A      0.622590    67A      0.637116    68A      0.643090  
      69A      0.652107    70A      0.656195    71A      0.661121  
      72A      0.673534    73A      0.676663    74A      0.679396  
      75A      0.693894    76A      0.697957    77A      0.702450  
      78A      0.711467    79A      0.719469    80A      0.735665  
      81A      0.740896    82A      0.783513    83A      0.807056  
      84A      0.818589    85A      0.849572    86A      0.859454  
      87A      0.866291    88A      0.884818    89A      0.896719  
      90A      0.922472    91A      0.942268    92A      0.965336  
      93A      0.976684    94A      0.989562    95A      0.989667  
      96A      1.008396    97A      1.048512    98A      1.058032  
      99A      1.069840   100A      1.094045   101A      1.103150  
     102A      1.120698   103A      1.140775   104A      1.179326  
     105A      1.195306   106A      1.210831   107A      1.220865  
     108A      1.237908   109A      1.240432   110A      1.252291  
     111A      1.267750   112A      1.279669   113A      1.293335  
     114A      1.300672   115A      1.311065   116A      1.322299  
     117A      1.336330   118A      1.349633   119A      1.355629  
     120A      1.371090   121A      1.379492   122A      1.387258  
     123A      1.399774   124A      1.411471   125A      1.419419  
     126A      1.433605   127A      1.440679   128A      1.450925  
     129A      1.461552   130A      1.471446   131A      1.491925  
     132A      1.495865   133A      1.504919   134A      1.514696  
     135A      1.526261   136A      1.529866   137A      1.552029  
     138A      1.575512   139A      1.578830   140A      1.593292  
     141A      1.612610   142A      1.619993   143A      1.636383  
     144A      1.657852   145A      1.678448   146A      1.684977  
     147A      1.705336   148A      1.725427   149A      1.731287  
     150A      1.755763   151A      1.764812   152A      1.782620  
     153A      1.812207   154A      1.814611   155A      1.825000  
     156A      1.843223   157A      1.853222   158A      1.879506  
     159A      1.938850   160A      1.969907   161A      2.002663  
     162A      2.019975   163A      2.055054   164A      2.164924  
     165A      2.281853   166A      2.306588   167A      2.385367  
     168A      2.429461   169A      2.519081   170A      2.543477  
     171A      2.583691   172A      2.631516   173A      2.639768  
     174A      2.645640   175A      2.675331   176A      2.688850  
     177A      2.722123   178A      2.730240   179A      2.749013  
     180A      2.787620   181A      2.800086   182A      2.812613  
     183A      2.818537   184A      2.834274   185A      2.854373  
     186A      2.873453   187A      2.878147   188A      2.899073  
     189A      2.931304   190A      2.948323   191A      2.952281  
     192A      2.978367   193A      2.986145   194A      2.996752  
     195A      3.031788   196A      3.041269   197A      3.051842  
     198A      3.071323   199A      3.083864   200A      3.108519  
     201A      3.130896   202A      3.146909   203A      3.158135  
     204A      3.175032   205A      3.195601   206A      3.231302  
     207A      3.245559   208A      3.258631   209A      3.264522  
     210A      3.268727   211A      3.283954   212A      3.305803  
     213A      3.323502   214A      3.332400   215A      3.341804  
     216A      3.356150   217A      3.367345   218A      3.371637  
     219A      3.385037   220A      3.414621   221A      3.418687  
     222A      3.429027   223A      3.430789   224A      3.440190  
     225A      3.453178   226A      3.459489   227A      3.472701  
     228A      3.484143   229A      3.488619   230A      3.498609  
     231A      3.505201   232A      3.525111   233A      3.533661  
     234A      3.538979   235A      3.546718   236A      3.556163  
     237A      3.577699   238A      3.579747   239A      3.617323  
     240A      3.622013   241A      3.641752   242A      3.652925  
     243A      3.668034   244A      3.690049   245A      3.722871  
     246A      3.738700   247A      3.750476   248A      3.764300  
     249A      3.777543   250A      3.785595   251A      3.803057  
     252A      3.813677   253A      3.847660   254A      3.855413  
     255A      3.861550   256A      3.875014   257A      3.884055  
     258A      3.904437   259A      3.916612   260A      3.936126  
     261A      3.945148   262A      3.958129   263A      3.981563  
     264A      3.993464   265A      4.017611   266A      4.025751  
     267A      4.034609   268A      4.038960   269A      4.091142  
     270A      4.098786   271A      4.117912   272A      4.134419  
     273A      4.139101   274A      4.147267   275A      4.148120  
     276A      4.159459   277A      4.175267   278A      4.186013  
     279A      4.192478   280A      4.201113   281A      4.215227  
     282A      4.234617   283A      4.243220   284A      4.253297  
     285A      4.270570   286A      4.293125   287A      4.302404  
     288A      4.304447   289A      4.333091   290A      4.344616  
     291A      4.361388   292A      4.362213   293A      4.383416  
     294A      4.391590   295A      4.401156   296A      4.419376  
     297A      4.425903   298A      4.439631   299A      4.451254  
     300A      4.466791   301A      4.479105   302A      4.494094  
     303A      4.501518   304A      4.508355   305A      4.524530  
     306A      4.535258   307A      4.545384   308A      4.563417  
     309A      4.566604   310A      4.604904   311A      4.628346  
     312A      4.632114   313A      4.653460   314A      4.675167  
     315A      4.695175   316A      4.702749   317A      4.715956  
     318A      4.738451   319A      4.739521   320A      4.759398  
     321A      4.782726   322A      4.790251   323A      4.797351  
     324A      4.826785   325A      4.868780   326A      4.878344  
     327A      4.940744   328A      4.952505   329A      4.998549  
     330A      5.020877   331A      5.043214   332A      5.061323  
     333A      5.066743   334A      5.099934   335A      5.103114  
     336A      5.113300   337A      5.155622   338A      5.166415  
     339A      5.201972   340A      5.213121   341A      5.242169  
     342A      5.255756   343A      5.271539   344A      5.276030  
     345A      5.303590   346A      5.325030   347A      5.341713  
     348A      5.364133   349A      5.372004   350A      5.399259  
     351A      5.432148   352A      5.435246   353A      5.458599  
     354A      5.470772   355A      5.516434   356A      5.522178  
     357A      5.544902   358A      5.569975   359A      5.610113  
     360A      5.615147   361A      5.639013   362A      5.710631  
     363A      5.749718   364A      5.756849   365A      5.768774  
     366A      5.787440   367A      5.802869   368A      5.830276  
     369A      5.851389   370A      5.861148   371A      5.893951  
     372A      5.910593   373A      5.926848   374A      5.951503  
     375A      5.971953   376A      5.980221   377A      6.007747  
     378A      6.048358   379A      6.057986   380A      6.096237  
     381A      6.124289   382A      6.229525   383A      6.275075  
     384A      6.323049   385A      6.343648   386A      6.396350  
     387A      6.427266   388A      6.430324   389A      6.493414  
     390A      6.525649   391A      6.695466   392A      7.080900  
     393A      7.177126   394A      7.248591   395A      7.289761  
     396A      7.441637   397A      7.539661   398A      7.716769  
     399A      8.013377   400A     12.279956   401A     13.033038  
     402A     13.223267   403A     13.580205   404A     13.727589  
     405A     13.950999   406A     14.272126  

    Final Occupation by Irrep:
              A 
    DOCC [    29 ]

  Energy converged.

  @DF-RHF Final Energy:  -310.32360842684085

   => Energetics <=

    Nuclear Repulsion Energy =            316.1082519265473252
    One-Electron Energy =               -1047.3544868230201246
    Two-Electron Energy =                 420.9226264696316093
    DFT Exchange-Correlation Energy =       0.0000000000000000
    Empirical Dispersion Energy =           0.0000000000000000
    PCM Polarization Energy =               0.0000000000000000
    EFP Energy =                            0.0000000000000000
    Total Energy =                       -310.3236084268411332


  Saving occupied orbitals to File 180.

*** tstop() called on cx1-27-1-3 at Sat Sep 10 15:33:06 2016
Module time:
	user time   =      36.68 seconds =       0.61 minutes
	system time =       0.66 seconds =       0.01 minutes
	total time  =         11 seconds =       0.18 minutes
Total time:
	user time   =     127.49 seconds =       2.12 minutes
	system time =       2.45 seconds =       0.04 minutes
	total time  =         37 seconds =       0.62 minutes


Properties will be evaluated at   0.000000,   0.000000,   0.000000 Bohr

Properties computed using the SCF density matrix

  Nuclear Dipole Moment: (a.u.)
     X:     4.6448      Y:    -2.3258      Z:    -1.1840

  Electronic Dipole Moment: (a.u.)
     X:    -5.2118      Y:     2.1226      Z:     1.1860

  Dipole Moment: (a.u.)
     X:    -0.5669      Y:    -0.2032      Z:     0.0020     Total:     0.6022

  Dipole Moment: (Debye)
     X:    -1.4409      Y:    -0.5164      Z:     0.0050     Total:     1.5307


*** tstart() called on cx1-27-1-3
*** at Sat Sep 10 15:33:06 2016


         ------------------------------------------------------------
                                   SCF GRAD                          
                          Rob Parrish, Justin Turney,                
                       Andy Simmonett, and Alex Sokolov              
         ------------------------------------------------------------

  ==> Geometry <==

    Molecular point group: c1
    Full point group: C1

    Geometry (in Angstrom), charge = 0, multiplicity = 1:

       Center              X                  Y                   Z               Mass       
    ------------   -----------------  -----------------  -----------------  -----------------
           H         -3.073498808962     2.027065006231     0.745359248438     1.007825032070
           O         -2.290612059878     1.556978193228     0.524885360450    15.994914619560
           C         -2.616941644527     0.248509042052     0.127393333422    12.000000000000
           C         -1.392135038503    -0.623273431068    -0.267905648062    12.000000000000
           H         -3.155525729105    -0.227322861871     0.942431958517     1.007825032070
           H         -3.312739677849     0.304581306097    -0.704717004217     1.007825032070
           C          0.001357718037    -0.137085949450     0.135866614108    12.000000000000
           H         -1.404711834459    -0.796579959867    -1.339223595650     1.007825032070
           H         -1.532354751755    -1.605737962587     0.170938445054     1.007825032070
           C          1.089518455542    -1.130359355121    -0.271705747716    12.000000000000
           H          0.188440365278     0.827227042797    -0.310149575699     1.007825032070
           H          0.037431931208     0.011854840108     1.210012591589     1.007825032070
           C          2.500839823829    -0.742502367791     0.171650535480    12.000000000000
           H          1.079260663203    -1.255725860715    -1.352775784152     1.007825032070
           H          0.855290417379    -2.106615684420     0.146430158358     1.007825032070
           C          3.053434620336     0.518433047640    -0.488624488908    12.000000000000
           H          3.169084504322    -1.570499562800    -0.045991002744     1.007825032070
           H          2.514461398179    -0.618158054821     1.251381633106     1.007825032070
           H          3.045031157082     0.426465475590    -1.570248208886     1.007825032070
           H          2.478013014252     1.398096951713    -0.227272341362     1.007825032070
           H          4.078212259499     0.696440019341    -0.181864181180     1.007825032070

  Nuclear repulsion =  316.108251926547325

  ==> Basis Set <==

  Basis Set: CC-PVTZ
    Number of shells: 154
    Number of basis function: 406
    Number of Cartesian functions: 455
    Spherical Harmonics?: true
    Max angular momentum: 3

  ==> DFJKGrad: Density-Fitted SCF Gradients <==

    Gradient:                    1
    J tasked:                  Yes
    K tasked:                  Yes
    wK tasked:                  No
    OpenMP threads:              4
    Integrals threads:           4
    Memory (MB):              1430
    Schwarz Cutoff:          0E+00
    Fitting Condition:       1E-12

   => Auxiliary Basis Set <=

  Basis Set: 
    Number of shells: 315
    Number of basis function: 973
    Number of Cartesian functions: 1162
    Spherical Harmonics?: true
    Max angular momentum: 4


  -Total Gradient:
     Atom            X                  Y                   Z
    ------   -----------------  -----------------  -----------------
       1       -0.000135151142     0.001465466099     0.000547828582
       2       -0.011071737934     0.000920479785     0.003207692444
       3        0.004710297028     0.001258156835    -0.003293887120
       4        0.003099998542    -0.001034502339    -0.000321427824
       5       -0.002173652378     0.002832699445    -0.000068059993
       6       -0.001768541537     0.003376382727     0.001910507540
       7        0.004103488524    -0.001576961505    -0.002223971969
       8       -0.000168695610    -0.003730194972     0.000626135482
       9        0.002733369393    -0.000069145558    -0.000604444719
      10        0.000496130302     0.000086141927     0.000702623395
      11       -0.000133343188    -0.002288560247     0.000776013149
      12        0.000120997184    -0.000393321739    -0.000753861764
      13       -0.000371191303    -0.000185097843    -0.000407085581
      14        0.000189987698    -0.000108255598    -0.000191395867
      15        0.000257275174    -0.000638004587    -0.000067558749
      16       -0.000044703286    -0.000099763772     0.000147343683
      17        0.000109805925    -0.000072487649    -0.000024030905
      18       -0.000074381140     0.000069303746     0.000082241954
      19        0.000010230953    -0.000027926244    -0.000038751540
      20       -0.000070104581     0.000087459253     0.000023888691
      21        0.000179921379     0.000128132241    -0.000029798886


*** tstop() called on cx1-27-1-3 at Sat Sep 10 15:33:18 2016
Module time:
	user time   =      45.38 seconds =       0.76 minutes
	system time =       0.82 seconds =       0.01 minutes
	total time  =         12 seconds =       0.20 minutes
Total time:
	user time   =     172.99 seconds =       2.88 minutes
	system time =       3.27 seconds =       0.05 minutes
	total time  =         49 seconds =       0.82 minutes

			-----------------------------------------
			 OPTKING 2.0: for geometry optimizations 
			  - R.A. King,  Bethel University        
			-----------------------------------------

	Previous internal coordinate definitions found.
	---Fragment 1 Geometry and Gradient---
	 H          -5.8080710187        3.8305977153        1.4085248502
	 O          -4.3286294699        2.9422623801        0.9918895824
	 C          -4.9453030139        0.4696140310        0.2407385113
	 C          -2.6307539628       -1.1778160906       -0.5062683043
	 H          -5.9630794333       -0.4295779527        1.7809383005
	 H          -6.2601707407        0.5755752537       -1.3317221392
	 C           0.0025657153       -0.2590549011        0.2567506913
	 H          -2.6545206628       -1.5053179671       -2.5307658265
	 H          -2.8957308192       -3.0344049905        0.3230268467
	 C           2.0588914977       -2.1360696129       -0.5134494519
	 H           0.3561006828        1.5632325606       -0.5860977583
	 H           0.0707360986        0.0224024012        2.2865924154
	 C           4.7259023693       -1.4031261281        0.3243725026
	 H           2.0395070794       -2.3729779747       -2.5563757512
	 H           1.6162646529       -3.9809267108        0.2767128969
	 C           5.7701551971        0.9796964783       -0.9233664659
	 H           5.9887018051       -2.9678140655       -0.0869103998
	 H           4.7516434143       -1.1681494304        2.3647685743
	 H           5.7542749530        0.8059029540       -2.9673390754
	 H           4.6827659507        2.6420203460       -0.4294824828
	 H           7.7067042822        1.3160809045       -0.3436734958
	            -0.0001351511        0.0014654661        0.0005478286
	            -0.0110717379        0.0009204798        0.0032076924
	             0.0047102970        0.0012581568       -0.0032938871
	             0.0030999985       -0.0010345023       -0.0003214278
	            -0.0021736524        0.0028326994       -0.0000680600
	            -0.0017685415        0.0033763827        0.0019105075
	             0.0041034885       -0.0015769615       -0.0022239720
	            -0.0001686956       -0.0037301950        0.0006261355
	             0.0027333694       -0.0000691456       -0.0006044447
	             0.0004961303        0.0000861419        0.0007026234
	            -0.0001333432       -0.0022885602        0.0007760131
	             0.0001209972       -0.0003933217       -0.0007538618
	            -0.0003711913       -0.0001850978       -0.0004070856
	             0.0001899877       -0.0001082556       -0.0001913959
	             0.0002572752       -0.0006380046       -0.0000675587
	            -0.0000447033       -0.0000997638        0.0001473437
	             0.0001098059       -0.0000724876       -0.0000240309
	            -0.0000743811        0.0000693037        0.0000822420
	             0.0000102310       -0.0000279262       -0.0000387515
	            -0.0000701046        0.0000874593        0.0000238887
	             0.0001799214        0.0001281322       -0.0000297989

	---Fragment 1 Intrafragment Coordinates---
	 - Coordinate -           - BOHR/RAD -       - ANG/DEG -
	 R(1,2)           =         1.775239	       0.939416
	 R(2,3)           =         2.656785	       1.405910
	 R(3,4)           =         2.937547	       1.554483
	 R(3,5)           =         2.053444	       1.086636
	 R(3,6)           =         2.052495	       1.086134
	 R(4,7)           =         2.891486	       1.530109
	 R(4,8)           =         2.050954	       1.085318
	 R(4,9)           =         2.050577	       1.085119
	 R(7,10)          =         2.888749	       1.528660
	 R(7,11)          =         2.038654	       1.078809
	 R(7,12)          =         2.050396	       1.085023
	 R(10,13)         =         2.890000	       1.529322
	 R(10,14)         =         2.056708	       1.088363
	 R(10,15)         =         2.055182	       1.087555
	 R(13,16)         =         2.885335	       1.526854
	 R(13,17)         =         2.052331	       1.086047
	 R(13,18)         =         2.054043	       1.086953
	 R(16,19)         =         2.051409	       1.085559
	 R(16,20)         =         2.046865	       1.083154
	 R(16,21)         =         2.049249	       1.084416
	 B(1,2,3)         =         1.916266	     109.793958
	 B(2,3,4)         =         1.994303	     114.265161
	 B(2,3,5)         =         1.886544	     108.091002
	 B(2,3,6)         =         1.893628	     108.496902
	 B(3,4,7)         =         2.062657	     118.181512
	 B(3,4,8)         =         1.908624	     109.356096
	 B(3,4,9)         =         1.878747	     107.644254
	 B(4,3,5)         =         1.913128	     109.614158
	 B(4,3,6)         =         1.916530	     109.809066
	 B(4,7,10)        =         1.951382	     111.805947
	 B(4,7,11)        =         1.910128	     109.442299
	 B(4,7,12)        =         1.912545	     109.580771
	 B(5,3,6)         =         1.854301	     106.243642
	 B(7,4,8)         =         1.898398	     108.770174
	 B(7,4,9)         =         1.874075	     107.376564
	 B(7,10,13)       =         1.998553	     114.508655
	 B(7,10,14)       =         1.910248	     109.449171
	 B(7,10,15)       =         1.904403	     109.114243
	 B(8,4,9)         =         1.826710	     104.662788
	 B(10,7,11)       =         1.925307	     110.311989
	 B(10,7,12)       =         1.906543	     109.236886
	 B(10,13,16)      =         2.002116	     114.712788
	 B(10,13,17)      =         1.892701	     108.443789
	 B(10,13,18)      =         1.905570	     109.181114
	 B(11,7,12)       =         1.855447	     106.309308
	 B(13,10,14)      =         1.902730	     109.018425
	 B(13,10,15)      =         1.891203	     108.357932
	 B(13,16,19)      =         1.937037	     110.984042
	 B(13,16,20)      =         1.954201	     111.967452
	 B(13,16,21)      =         1.933973	     110.808500
	 B(14,10,15)      =         1.850912	     106.049460
	 B(16,13,17)      =         1.896808	     108.679118
	 B(16,13,18)      =         1.907692	     109.302726
	 B(17,13,18)      =         1.853103	     106.174963
	 B(19,16,20)      =         1.880844	     107.764412
	 B(19,16,21)      =         1.878716	     107.642525
	 B(20,16,21)      =         1.875974	     107.485396
	 D(1,2,3,4)       =         3.137567	     179.769320
	 D(1,2,3,5)       =        -1.010758	     -57.912161
	 D(1,2,3,6)       =         0.993026	      56.896197
	 D(2,3,4,7)       =         0.263701	      15.108980
	*D(2,3,4,8)       =        -1.919862	    -109.999990
	 D(2,3,4,9)       =         2.388336	     136.841583
	 D(3,4,7,10)      =         3.099026	     177.561099
	 D(3,4,7,11)      =        -1.045632	     -59.910324
	 D(3,4,7,12)      =         0.982592	      56.298398
	 D(4,7,10,13)     =        -3.084922	    -176.752985
	 D(4,7,10,14)     =         1.056073	      60.508546
	 D(4,7,10,15)     =        -0.962190	     -55.129398
	 D(5,3,4,7)       =        -1.856576	    -106.373978
	 D(5,3,4,8)       =         2.243046	     128.517052
	 D(5,3,4,9)       =         0.268059	      15.358625
	 D(6,3,4,7)       =         2.395764	     137.267149
	 D(6,3,4,8)       =         0.212200	      12.158178
	 D(6,3,4,9)       =        -1.762787	    -101.000248
	 D(7,10,13,16)    =        -1.150709	     -65.930774
	 D(7,10,13,17)    =         3.008810	     172.392112
	 D(7,10,13,18)    =         0.996917	      57.119150
	 D(8,4,7,10)      =        -0.995596	     -57.043461
	 D(8,4,7,11)      =         1.142931	      65.485115
	 D(8,4,7,12)      =        -3.112030	    -178.306163
	 D(9,4,7,10)      =         0.972014	      55.692286
	 D(9,4,7,11)      =         3.110541	     178.220863
	 D(9,4,7,12)      =        -1.144420	     -65.570415
	 D(10,13,16,19)   =        -0.987438	     -56.576043
	 D(10,13,16,20)   =         1.115136	      63.892592
	 D(10,13,16,21)   =        -3.073787	    -176.115015
	 D(11,7,10,13)    =         1.068425	      61.216216
	 D(11,7,10,14)    =        -1.073766	     -61.522253
	 D(11,7,10,15)    =        -3.092029	    -177.160197
	 D(12,7,10,13)    =        -0.965019	     -55.291495
	 D(12,7,10,14)    =        -3.107209	    -178.029963
	 D(12,7,10,15)    =         1.157713	      66.332093
	 D(14,10,13,16)   =         0.995543	      57.040405
	 D(14,10,13,17)   =        -1.128123	     -64.636709
	 D(14,10,13,18)   =        -3.140016	    -179.909672
	 D(15,10,13,16)   =         3.002532	     172.032383
	 D(15,10,13,17)   =         0.878865	      50.355269
	 D(15,10,13,18)   =        -1.133027	     -64.917693
	 D(17,13,16,19)   =         1.133987	      64.972689
	 D(17,13,16,20)   =        -3.046624	    -174.558676
	 D(17,13,16,21)   =        -0.952361	     -54.566283
	 D(18,13,16,19)   =        -3.133924	    -179.560643
	 D(18,13,16,20)   =        -1.031350	     -59.092008
	 D(18,13,16,21)   =         1.062912	      60.900385

	Current energy   :      -310.3236084268

	Energy change for the previous step:
		Projected    :        -0.0055131449
		Actual       :        -0.0004595363
	Energy ratio indicates iffy step: Trust radius decreased to 1.250e-01.


	Performing BFGS update.
	Previous computed or guess Hessian on step 1.
	Steps to be used in Hessian update: 1
	Taking RFO optimization step.
	Going to follow RFO solution 1.
	Using RFO vector 1.
	Norm of target step-size    0.10231
	Projected energy change by RFO approximation:        -0.0024579493

	Back-transformation to cartesian coordinates...
	Successfully converged to displaced geometry.

	Back-transformation to cartesian coordinates to adjust frozen coordinates...
	Successfully converged to displaced geometry.

	--- Internal Coordinate Step in ANG or DEG, aJ/ANG or AJ/DEG ---
	 ---------------------------------------------------------------------------
	   Coordinate                Previous        Force       Change         New 
	   ----------                --------       ------       ------       ------
	    1 R(1,2)          =      0.939416    -0.008029    -0.000520     0.938896
	    2 R(2,3)          =      1.405910    -0.005612    -0.000479     1.405431
	    3 R(3,4)          =      1.554483    -0.118116    -0.013493     1.540990
	    4 R(3,5)          =      1.086636     0.001764     0.000131     1.086766
	    5 R(3,6)          =      1.086134     0.001289     0.000030     1.086164
	    6 R(4,7)          =      1.530109    -0.018323    -0.002290     1.527818
[...]
	 B(13,10,15)      =         1.891500	     108.374971
	 B(13,16,19)      =         1.937254	     110.996495
	 B(13,16,20)      =         1.954180	     111.966291
	 B(13,16,21)      =         1.933031	     110.754526
	 B(14,10,15)      =         1.851969	     106.110021
	 B(16,13,17)      =         1.896455	     108.658876
	 B(16,13,18)      =         1.908248	     109.334565
	 B(17,13,18)      =         1.852775	     106.156195
	 B(19,16,20)      =         1.880878	     107.766352
	 B(19,16,21)      =         1.879112	     107.665187
	 B(20,16,21)      =         1.876335	     107.506063
	 D(1,2,3,4)       =         3.116896	     178.584980
	 D(1,2,3,5)       =        -1.062313	     -60.866057
	 D(1,2,3,6)       =         0.990584	      56.756284
	 D(2,3,4,7)       =         0.262111	      15.017844
	*D(2,3,4,8)       =        -1.919862	    -109.999990
	 D(2,3,4,9)       =         2.385123	     136.657488
	 D(3,4,7,10)      =         3.103289	     177.805366
	 D(3,4,7,11)      =        -1.039990	     -59.587066
	 D(3,4,7,12)      =         0.983236	      56.335263
	 D(4,7,10,13)     =        -3.090893	    -177.095129
	 D(4,7,10,14)     =         1.047733	      60.030651
	 D(4,7,10,15)     =        -0.969303	     -55.536976
	 D(5,3,4,7)       =        -1.839864	    -105.416428
	 D(5,3,4,8)       =         2.261349	     129.565738
	 D(5,3,4,9)       =         0.283149	      16.223217
	 D(6,3,4,7)       =         2.393841	     137.156981
	 D(6,3,4,8)       =         0.211868	      12.139146
	 D(6,3,4,9)       =        -1.766332	    -101.203375
	 D(7,10,13,16)    =        -1.157834	     -66.339000
	 D(7,10,13,17)    =         3.002458	     172.028184
	 D(7,10,13,18)    =         0.990675	      56.761497
	 D(8,4,7,10)      =        -1.003058	     -57.470999
	 D(8,4,7,11)      =         1.136848	      65.136569
	 D(8,4,7,12)      =        -3.123111	    -178.941103
	 D(9,4,7,10)      =         0.989592	      56.699460
	 D(9,4,7,11)      =         3.129498	     179.307027
	 D(9,4,7,12)      =        -1.130461	     -64.770644
	 D(10,13,16,19)   =        -0.986835	     -56.541457
	 D(10,13,16,20)   =         1.115920	      63.937501
	 D(10,13,16,21)   =        -3.073204	    -176.081594
	 D(11,7,10,13)    =         1.063717	      60.946466
	 D(11,7,10,14)    =        -1.080843	     -61.927755
	 D(11,7,10,15)    =        -3.097879	    -177.495382
	 D(12,7,10,13)    =        -0.970134	     -55.584594
	 D(12,7,10,14)    =        -3.114694	    -178.458814
	 D(12,7,10,15)    =         1.151456	      65.973558
	 D(14,10,13,16)   =         0.989802	      56.711489
	 D(14,10,13,17)   =        -1.133091	     -64.921327
	 D(14,10,13,18)   =         3.138311	     179.811986
	 D(15,10,13,16)   =         2.998802	     171.818684
	 D(15,10,13,17)   =         0.875909	      50.185868
	 D(15,10,13,18)   =        -1.135875	     -65.080818
	 D(17,13,16,19)   =         1.133980	      64.972269
	 D(17,13,16,20)   =        -3.046451	    -174.548773
	 D(17,13,16,21)   =        -0.952389	     -54.567867
	 D(18,13,16,19)   =        -3.134215	    -179.577280
	 D(18,13,16,20)   =        -1.031460	     -59.098322
	 D(18,13,16,21)   =         1.062602	      60.882583

	Current energy   :      -310.3252200939

	Energy change for the previous step:
		Projected    :        -0.0000024789
		Actual       :        -0.0000009628

	Performing BFGS update.
	Previous computed or guess Hessian on step 1.
	Steps to be used in Hessian update: 6 5
	Taking RFO optimization step.
	Going to follow RFO solution 1.
	Using RFO vector 1.
	Norm of target step-size    0.00940
	Projected energy change by RFO approximation:        -0.0000010051

	Back-transformation to cartesian coordinates...
	Could not converge backtransformation.
	Using first guess instead.

	Back-transformation to cartesian coordinates to adjust frozen coordinates...
	Successfully converged to displaced geometry.

	--- Internal Coordinate Step in ANG or DEG, aJ/ANG or AJ/DEG ---
	 ---------------------------------------------------------------------------
	   Coordinate                Previous        Force       Change         New 
	   ----------                --------       ------       ------       ------
	    1 R(1,2)          =      0.939088     0.000196     0.000020     0.939108
	    2 R(2,3)          =      1.405150    -0.000258    -0.000068     1.405082
	    3 R(3,4)          =      1.538595     0.000612     0.000148     1.538743
	    4 R(3,5)          =      1.086605     0.000004     0.000000     1.086605
	    5 R(3,6)          =      1.085762    -0.000031     0.000001     1.085763
	    6 R(4,7)          =      1.526649    -0.000121    -0.000039     1.526609
	    7 R(4,8)          =      1.085428    -0.000059    -0.000012     1.085415
	    8 R(4,9)          =      1.086200    -0.000013    -0.000014     1.086187
	    9 R(7,10)         =      1.527579    -0.000082     0.000002     1.527582
	   10 R(7,11)         =      1.081034     0.000121     0.000016     1.081050
	   11 R(7,12)         =      1.085646    -0.000050    -0.000008     1.085638
	   12 R(10,13)        =      1.529834    -0.000071     0.000004     1.529838
	   13 R(10,14)        =      1.088092    -0.000109    -0.000010     1.088082
	   14 R(10,15)        =      1.086964     0.000041     0.000004     1.086968
	   15 R(13,16)        =      1.526814    -0.000101    -0.000011     1.526802
	   16 R(13,17)        =      1.085948    -0.000066    -0.000007     1.085940
	   17 R(13,18)        =      1.086856    -0.000102    -0.000015     1.086841
	   18 R(16,19)        =      1.085494    -0.000065    -0.000007     1.085487
	   19 R(16,20)        =      1.083014     0.000054     0.000001     1.083015
	   20 R(16,21)        =      1.084217    -0.000022    -0.000002     1.084214
	   21 B(1,2,3)        =    109.625915     0.000002     0.005311   109.631226
	   22 B(2,3,4)        =    110.853792     0.000005     0.008548   110.862340
	   23 B(2,3,5)        =    109.177606    -0.000004    -0.025190   109.152417
	   24 B(2,3,6)        =    110.319494    -0.000003    -0.014543   110.304952
	   25 B(3,4,7)        =    115.691463     0.000002     0.011309   115.702773
	   26 B(3,4,8)        =    109.483215     0.000001     0.015699   109.498914
	   27 B(3,4,9)        =    107.624266    -0.000000     0.000039   107.624305
	   28 B(4,3,5)        =    109.370738     0.000001     0.015049   109.385787
	   29 B(4,3,6)        =    109.788417     0.000001     0.013944   109.802361
	   30 B(4,7,10)       =    111.866692    -0.000001    -0.005046   111.861646
	   31 B(4,7,11)       =    109.290268     0.000001     0.002777   109.293045
	   32 B(4,7,12)       =    109.489166     0.000000    -0.001618   109.487549
	   33 B(5,3,6)        =    107.252814    -0.000000     0.001957   107.254772
	   34 B(7,4,8)        =    110.053643    -0.000002    -0.012741   110.040902
	   35 B(7,4,9)        =    108.618692    -0.000001    -0.010861   108.607832
	   36 B(7,10,13)      =    114.619918    -0.000003    -0.005736   114.614183
	   37 B(7,10,14)      =    109.411102     0.000000    -0.003870   109.407232
	   38 B(7,10,15)      =    108.895413     0.000002     0.007376   108.902789
	   39 B(8,4,9)        =    104.774859    -0.000000    -0.005110   104.769750
	   40 B(10,7,11)      =    110.425768     0.000000     0.003979   110.429747
	   41 B(10,7,12)      =    109.419049    -0.000000    -0.001455   109.417594
	   42 B(10,13,16)     =    114.689236    -0.000003    -0.002160   114.687076
	   43 B(10,13,17)     =    108.440771     0.000001     0.006944   108.447716
	   44 B(10,13,18)     =    109.214147     0.000001    -0.003719   109.210428
	   45 B(11,7,12)      =    106.185801    -0.000000     0.001682   106.187484
	   46 B(13,10,14)     =    109.083735     0.000001    -0.003821   109.079914
	   47 B(13,10,15)     =    108.374971     0.000001     0.006414   108.381385
	   48 B(13,16,19)     =    110.996495    -0.000000    -0.002280   110.994216
	   49 B(13,16,20)     =    111.966291    -0.000000     0.000274   111.966564
	   50 B(13,16,21)     =    110.754526     0.000000     0.002010   110.756536
	   51 B(14,10,15)     =    106.110021    -0.000000     0.000199   106.110221
	   52 B(16,13,17)     =    108.658876     0.000001     0.005245   108.664122
	   53 B(16,13,18)     =    109.334565     0.000000    -0.006323   109.328242
	   54 B(17,13,18)     =    106.156195    -0.000000     0.000383   106.156579
	   55 B(19,16,20)     =    107.766352     0.000000    -0.000402   107.765950
	   56 B(19,16,21)     =    107.665187     0.000000     0.000866   107.666052
	   57 B(20,16,21)     =    107.506063     0.000000    -0.000447   107.505616
	   58 D(1,2,3,4)      =    178.584980    -0.000000    -0.001402   178.583577
	   59 D(1,2,3,5)      =    -60.866057     0.000000     0.006333   -60.859724
	   60 D(1,2,3,6)      =     56.756284    -0.000000    -0.014906    56.741377
	   61 D(2,3,4,7)      =     15.017844    -0.000000     0.004614    15.022458
	   62 *D(2,3,4,8)     =   -109.999990    -0.000000     0.000000  -109.999990
	   63 D(2,3,4,9)      =    136.657488    -0.000000    -0.001861   136.655628
	   64 D(3,4,7,10)     =    177.805366    -0.000000    -0.115824   177.689543
	   65 D(3,4,7,11)     =    -59.587066    -0.000000    -0.112218   -59.699284
	   66 D(3,4,7,12)     =     56.335263    -0.000000    -0.109541    56.225721
	   67 D(4,7,10,13)    =   -177.095129    -0.000000    -0.002865  -177.097994
	   68 D(4,7,10,14)    =     60.030651     0.000000     0.009245    60.039896
	   69 D(4,7,10,15)    =    -55.536976     0.000000     0.007039   -55.529937
	   70 D(5,3,4,7)      =   -105.416428     0.000000     0.020758  -105.395670
	   71 D(5,3,4,8)      =    129.565738     0.000000     0.016144   129.581882
	   72 D(5,3,4,9)      =     16.223217     0.000000     0.014284    16.237500
	   73 D(6,3,4,7)      =    137.156981    -0.000000     0.001403   137.158383
	   74 D(6,3,4,8)      =     12.139146    -0.000000    -0.003211    12.135935
	   75 D(6,3,4,9)      =   -101.203375    -0.000000    -0.005072  -101.208447
	   76 D(7,10,13,16)   =    -66.339000     0.000000     0.125491   -66.213509
	   77 D(7,10,13,17)   =    172.028184     0.000000     0.115000   172.143183
	   78 D(7,10,13,18)   =     56.761497     0.000000     0.112759    56.874257
	   79 D(8,4,7,10)     =    -57.470999     0.000000    -0.096439   -57.567438
	   80 D(8,4,7,11)     =     65.136569     0.000000    -0.092833    65.043735
	   81 D(8,4,7,12)     =   -178.941103     0.000000    -0.090157  -179.031259
	   82 D(9,4,7,10)     =     56.699460    -0.000000    -0.115296    56.584164
	   83 D(9,4,7,11)     =    179.307027    -0.000000    -0.111689   179.195338
	   84 D(9,4,7,12)     =    -64.770644    -0.000000    -0.109013   -64.879657
	   85 D(10,13,16,19)  =    -56.541457    -0.000000    -0.097373   -56.638830
	   86 D(10,13,16,20)  =     63.937501    -0.000000    -0.099281    63.838220
	   87 D(10,13,16,21)  =   -176.081594    -0.000000    -0.098289  -176.179883
	   88 D(11,7,10,13)   =     60.946466    -0.000000    -0.005746    60.940721
	   89 D(11,7,10,14)   =    -61.927755     0.000000     0.006365   -61.921390
	   90 D(11,7,10,15)   =   -177.495382    -0.000000     0.004159  -177.491223
	   91 D(12,7,10,13)   =    -55.584594    -0.000000    -0.009235   -55.593829
	   92 D(12,7,10,14)   =   -178.458814     0.000000     0.002875  -178.455939
	   93 D(12,7,10,15)   =     65.973558    -0.000000     0.000669    65.974228
	   94 D(14,10,13,16)  =     56.711489     0.000000     0.113397    56.824886
	   95 D(14,10,13,17)  =    -64.921327    -0.000000     0.102906   -64.818421
	   96 D(14,10,13,18)  =    179.811986    -0.000000     0.100666   179.912652
	   97 D(15,10,13,16)  =    171.818684     0.000000     0.115061   171.933745
	   98 D(15,10,13,17)  =     50.185868     0.000000     0.104570    50.290438
	   99 D(15,10,13,18)  =    -65.080818    -0.000000     0.102329   -64.978489
	  100 D(17,13,16,19)  =     64.972269    -0.000000    -0.085945    64.886324
	  101 D(17,13,16,20)  =   -174.548773    -0.000000    -0.087853  -174.636626
	  102 D(17,13,16,21)  =    -54.567867    -0.000000    -0.086861   -54.654728
	  103 D(18,13,16,19)  =   -179.577280     0.000000    -0.086029  -179.663310
	  104 D(18,13,16,20)  =    -59.098322    -0.000000    -0.087937   -59.186260
	  105 D(18,13,16,21)  =     60.882583     0.000000    -0.086945    60.795638
	 ---------------------------------------------------------------------------
	Successfully symmetrized geometry.

  ==> Convergence Check <==

  Measures of convergence in internal coordinates in au.
  Criteria marked as inactive (o), active & met (*), and active & unmet ( ).
  ---------------------------------------------------------------------------------------------
   Step     Total Energy     Delta E     MAX Force     RMS Force      MAX Disp      RMS Disp   
  ---------------------------------------------------------------------------------------------
    Convergence Criteria    1.00e-06 *    3.00e-04 *             o    1.20e-03 *             o
  ---------------------------------------------------------------------------------------------
      7    -310.32522009   -9.63e-07 *    7.43e-05 *    1.67e-05 o    2.19e-03      9.18e-04 o  ~
  ---------------------------------------------------------------------------------------------


  **** Optimization is complete! (in 7 steps) ****

  ==> Optimization Summary <==

  Measures of convergence in internal coordinates in au.
  --------------------------------------------------------------------------------------------------------------- ~
   Step         Total Energy             Delta E       MAX Force       RMS Force        MAX Disp        RMS Disp  ~
  --------------------------------------------------------------------------------------------------------------- ~
      1    -310.323148890517   -310.323148890517      0.02339034      0.00405125      0.09964800      0.02576869  ~
      2    -310.323608426841     -0.000459536324      0.01783383      0.00298294      0.04863747      0.00986548  ~
      3    -310.325136095058     -0.001527668217      0.00364277      0.00065272      0.02126418      0.00678486  ~
      4    -310.325214313705     -0.000078218646      0.00094305      0.00016625      0.01605705      0.00555473  ~
      5    -310.325217614740     -0.000003301035      0.00025849      0.00005318      0.01170296      0.00468217  ~
      6    -310.325219131143     -0.000001516404      0.00015709      0.00003893      0.00706517      0.00228748  ~
      7    -310.325220093930     -0.000000962787      0.00007429      0.00001672      0.00219022      0.00091767  ~
  --------------------------------------------------------------------------------------------------------------- ~

	Writing optimization data to binary file.
	Final energy is   -310.3252200939303
	Final (previous) structure:
	Cartesian Geometry (in Angstrom)
	    H    -2.8814016093   2.0951182933   0.6961177691
	    O    -2.1478766523   1.5492499988   0.4819781641
	    C    -2.6030995569   0.2776259784   0.0944326354
	    C    -1.4242471786  -0.6303241235  -0.2969863720
	    H    -3.1469976112  -0.1736395822   0.9198083805
	    H    -3.2942415875   0.3623127184  -0.7386524319
	    C    -0.0429519416  -0.1448676159   0.1354626769
	    H    -1.4397728176  -0.8019663831  -1.3686444726
	    H    -1.6017170385  -1.6075839762   0.1426713101
	    C     1.0544742790  -1.1352964371  -0.2495105684
	    H     0.1500663343   0.8226536932  -0.3064433220
	    H    -0.0321955452   0.0058840806   1.2105375056
	    C     2.4581660792  -0.7439540650   0.2162064283
	    H     1.0614423599  -1.2654281343  -1.3297705021
	    H     0.8132054544  -2.1085941421   0.1699804266
	    C     3.0232239983   0.5103818521  -0.4459953981
	    H     3.1297244832  -1.5740192104   0.0180050444
	    H     2.4528397325  -0.6101502876   1.2947812670
	    H     3.0339550345   0.4084758339  -1.5266419951
	    H     2.4440703874   1.3926816462  -0.2029992800
	    H     4.0423154172   0.6898484878  -0.1223136840
	Saving final (previous) structure.
			--------------------------
			 OPTKING Finished Execution 
			--------------------------

    Final optimized geometry and variables:
    Molecular point group: c1
    Full point group: C1

    Geometry (in Angstrom), charge = 0, multiplicity = 1:

    H           -2.881401609277     2.095118293256     0.696117769099
    O           -2.147876652331     1.549249998780     0.481978164085
    C           -2.603099556862     0.277625978400     0.094432635448
    C           -1.424247178558    -0.630324123493    -0.296986371969
    H           -3.146997611225    -0.173639582172     0.919808380485
    H           -3.294241587471     0.362312718359    -0.738652431942
    C           -0.042951941609    -0.144867615947     0.135462676862
    H           -1.439772817615    -0.801966383101    -1.368644472561
    H           -1.601717038451    -1.607583976174     0.142671310084
    C            1.054474278990    -1.135296437077    -0.249510568366
    H            0.150066334321     0.822653693212    -0.306443322032
    H           -0.032195545174     0.005884080586     1.210537505556
    C            2.458166079234    -0.743954065016     0.216206428267
    H            1.061442359930    -1.265428134311    -1.329770502083
    H            0.813205454448    -2.108594142123     0.169980426646
    C            3.023223998276     0.510381852135    -0.445995398055
    H            3.129724483207    -1.574019210449     0.018005044401
    H            2.452839732488    -0.610150287566     1.294781266998
    H            3.033955034518     0.408475833944    -1.526641995073
    H            2.444070387380     1.392681646152    -0.202999280013
    H            4.042315417240     0.689848487824    -0.122313683962

	Cleaning optimization helper files.


Properties will be evaluated at   0.000000,   0.000000,   0.000000 Bohr

Properties computed using the  density matrix

  Nuclear Dipole Moment: (a.u.)
     X:     4.4251      Y:    -2.2091      Z:    -1.0697

  Electronic Dipole Moment: (a.u.)
     X:    -5.0386      Y:     2.0917      Z:     1.0779

  Dipole Moment: (a.u.)
     X:    -0.6135      Y:    -0.1175      Z:     0.0082     Total:     0.6247

  Dipole Moment: (Debye)
     X:    -1.5593      Y:    -0.2985      Z:     0.0208     Total:     1.5877

  Quadrupole Moment: (Debye Ang)
    XX:   -39.9722     YY:   -46.6443     ZZ:   -46.5340
    XY:    -2.4957     XZ:    -0.8420     YZ:     0.3123

  Traceless Quadrupole Moment: (Debye Ang)
    XX:     4.4113     YY:    -2.2608     ZZ:    -2.1505
    XY:    -2.4957     XZ:    -0.8420     YZ:     0.3123

  Mulliken Charges: (a.u.)
   Center  Symbol    Alpha    Beta     Spin     Total
       1     H     0.39977  0.39977  0.00000  0.20045
       2     O     4.18973  4.18973  0.00000 -0.37947
       3     C     2.96711  2.96711  0.00000  0.06577
       4     C     3.10597  3.10597  0.00000 -0.21194
       5     H     0.47272  0.47272  0.00000  0.05456
       6     H     0.46996  0.46996  0.00000  0.06007
       7     C     3.08469  3.08469  0.00000 -0.16939
       8     H     0.45317  0.45317  0.00000  0.09367
       9     H     0.45510  0.45510  0.00000  0.08979
      10     C     3.09587  3.09587  0.00000 -0.19175
      11     H     0.44376  0.44376  0.00000  0.11248
      12     H     0.45163  0.45163  0.00000  0.09673
      13     C     3.08941  3.08941  0.00000 -0.17882
      14     H     0.45599  0.45599  0.00000  0.08803
      15     H     0.45187  0.45187  0.00000  0.09626
      16     C     3.15250  3.15250  0.00000 -0.30500
      17     H     0.44998  0.44998  0.00000  0.10005
      18     H     0.45527  0.45527  0.00000  0.08945
      19     H     0.45603  0.45603  0.00000  0.08795
      20     H     0.45163  0.45163  0.00000  0.09675
      21     H     0.44782  0.44782  0.00000  0.10435

   Total alpha = 29.00000, Total beta = 29.00000, Total charge =  0.00000


*** Psi4 exiting successfully. Buy a developer a beer!
