    -----------------------------------------------------------------------
          Psi4: An Open-Source Ab Initio Electronic Structure Package
                              Psi4 1.0.54 Driver

                          Git: Rev {master} 8d4cec3 dirty

    J. M. Turney, A. C. Simmonett, R. M. Parrish, E. G. Hohenstein,
    F. A. Evangelista, J. T. Fermann, B. J. Mintz, L. A. Burns, J. J. Wilke,
    M. L. Abrams, N. J. Russ, M. L. Leininger, C. L. Janssen, E. T. Seidl,
    W. D. Allen, H. F. Schaefer, R. A. King, E. F. Valeev, C. D. Sherrill,
    and T. D. Crawford, WIREs Comput. Mol. Sci. 2, 556-565 (2012)
    (doi: 10.1002/wcms.93)

                         Additional Contributions by
    A. E. DePrince, U. Bozkaya, A. Yu. Sokolov, D. G. A. Smith, R. Di Remigio,
    R. M. Richard, J. F. Gonthier, H. R. McAlexander, M. Saitow, and
    B. P. Pritchard
    -----------------------------------------------------------------------


    Psi4 started on: Sun Sep 11 04:06:32 2016

    Process ID:   5675
    PSI4DATADIR: /export131/home/mjharvey/miniconda3/share/psi4
    Memory level set to 256.000 MB

  ==> Input File <==

--------------------------------------------------------------------------
set {
	reference rhf
	basis cc-pvtz
}


set_num_threads( 4 )
memory 2 gb

molecule MOL {
0 1

H	 -1.820450	 0.597803	 -3.277899
C	 -2.406345	 0.083433	 -2.503925
C	 -1.755059	 -1.144356	 -1.927513
O	 -3.468005	 0.499130	 -2.191864
C	 -0.325503	 -0.884997	 -1.442974
H	 -2.382674	 -1.526275	 -1.132799
H	 -1.733726	 -1.886468	 -2.722572
C	 -0.247837	 0.040196	 -0.230469
H	 0.132032	 -1.837679	 -1.199256
H	 0.260865	 -0.468595	 -2.258434
C	 1.181757	 0.280428	 0.247371
H	 -0.833003	 -0.386892	 0.579644
H	 -0.712275	 0.994453	 -0.465241
C	 2.151032	 -0.811012	 -0.202643
H	 1.515939	 1.247397	 -0.115449
H	 1.191514	 0.341223	 1.333422
C	 3.580021	 -0.656538	 0.320835
H	 2.170545	 -0.847575	 -1.289412
H	 1.766632	 -1.772905	 0.124928
C	 4.327657	 0.562694	 -0.213579
H	 4.138806	 -1.549270	 0.057813
H	 3.561991	 -0.620783	 1.406976
H	 4.355973	 0.557257	 -1.298551
H	 3.867136	 1.491650	 0.100501
H	 5.351524	 0.571613	 0.142204

	symmetry c1
}
set optking {
	frozen_dihedral = ("
		12 8 11 14
	")
}

ee,wfn = optimize('scf', return_wfn=True)
oeprop( wfn, 'DIPOLE', 'QUADRUPOLE', 'MULLIKEN_CHARGES')
f=open( 'psi4out.xyz', 'w' )
f.write( "25  " )
f.write( str(ee) + "\n" )
f.write( MOL.save_string_xyz() )
f.close()
--------------------------------------------------------------------------

  Memory set to   2.000 GiB by Python script.
gradient() will perform analytic gradient computation.

*** tstart() called on cx1-27-2-1
*** at Sun Sep 11 04:06:32 2016


         ---------------------------------------------------------
                                   SCF
            by Justin Turney, Rob Parrish, and Andy Simmonett
                              RHF Reference
                        4 Threads,   2000 MiB Core
         ---------------------------------------------------------

  ==> Geometry <==

    Molecular point group: c1
    Full point group: C1

    Geometry (in Angstrom), charge = 0, multiplicity = 1:

       Center              X                  Y                   Z               Mass       
    ------------   -----------------  -----------------  -----------------  -----------------
           H         -2.160693707903     0.812548335936    -2.367925361074     1.007825032070
           C         -2.746588707903     0.298178335936    -1.593951361074    12.000000000000
           C         -2.095302707903    -0.929610664064    -1.017539361074    12.000000000000
           O         -3.808248707903     0.713875335936    -1.281890361074    15.994914619560
           C         -0.665746707903    -0.670251664064    -0.533000361074    12.000000000000
           H         -2.722917707903    -1.311529664064    -0.222825361074     1.007825032070
           H         -2.073969707903    -1.671722664064    -1.812598361074     1.007825032070
           C         -0.588080707903     0.254941335936     0.679504638926    12.000000000000
           H         -0.208211707903    -1.622933664064    -0.289282361074     1.007825032070
           H         -0.079378707903    -0.253849664064    -1.348460361074     1.007825032070
           C          0.841513292097     0.495173335936     1.157344638926    12.000000000000
           H         -1.173246707903    -0.172146664064     1.489617638926     1.007825032070
           H         -1.052518707903     1.209198335936     0.444732638926     1.007825032070
           C          1.810788292097    -0.596266664064     0.707330638926    12.000000000000
           H          1.175695292097     1.462142335936     0.794524638926     1.007825032070
           H          0.851270292097     0.555968335936     2.243395638926     1.007825032070
           C          3.239777292097    -0.441792664064     1.230808638926    12.000000000000
           H          1.830301292097    -0.632829664064    -0.379438361074     1.007825032070
           H          1.426388292097    -1.558159664064     1.034901638926     1.007825032070
           C          3.987413292097     0.777439335936     0.696394638926    12.000000000000
           H          3.798562292097    -1.334524664064     0.967786638926     1.007825032070
           H          3.221747292097    -0.406037664064     2.316949638926     1.007825032070
           H          4.015729292097     0.772002335936    -0.388577361074     1.007825032070
           H          3.526892292097     1.706395335936     1.010474638926     1.007825032070
           H          5.011280292097     0.786358335936     1.052177638926     1.007825032070

  Running in c1 symmetry.

  Rotational constants: A =      0.15330  B =      0.01674  C =      0.01643 [cm^-1]
  Rotational constants: A =   4595.72927  B =    501.74698  C =    492.60821 [MHz]
  Nuclear repulsion =  448.006324606729891

  Charge       = 0
  Multiplicity = 1
  Electrons    = 72
  Nalpha       = 36
  Nbeta        = 36

  ==> Algorithm <==

  SCF Algorithm Type is DF.
  DIIS enabled.
  MOM disabled.
  Fractional occupation disabled.
  Guess Type is SAD.
  Energy threshold   = 1.00e-08
  Density threshold  = 1.00e-08
  Integral threshold = 0.00e+00

  ==> Primary Basis <==

  Basis Set: CC-PVTZ
    Number of shells: 186
    Number of basis function: 494
    Number of Cartesian functions: 555
    Spherical Harmonics?: true
    Max angular momentum: 3

  ==> Pre-Iterations <==

   -------------------------------------------------------
    Irrep   Nso     Nmo     Nalpha   Nbeta   Ndocc  Nsocc
   -------------------------------------------------------
     A        494     494       0       0       0       0
   -------------------------------------------------------
    Total     494     494      36      36      36       0
   -------------------------------------------------------

  ==> Integral Setup <==

  ==> DFJK: Density-Fitted J/K Matrices <==

    J tasked:                  Yes
    K tasked:                  Yes
    wK tasked:                  No
    OpenMP threads:              4
    Integrals threads:           4
    Memory (MB):              1430
    Algorithm:                Core
    Integral Cache:           NONE
    Schwarz Cutoff:          1E-12
    Fitting Condition:       1E-12

   => Auxiliary Basis Set <=

  Basis Set: 
    Number of shells: 385
    Number of basis function: 1191
    Number of Cartesian functions: 1424
    Spherical Harmonics?: true
    Max angular momentum: 4

  Minimum eigenvalue in the overlap matrix is 2.0529848817E-04.
  Using Symmetric Orthogonalization.
  SCF Guess: Superposition of Atomic Densities via on-the-fly atomic UHF.

  ==> Iterations <==

                           Total Energy        Delta E     RMS |[F,P]|

   @DF-RHF iter   0:  -391.57170563439149   -3.91572e+02   1.19730e-02 
   @DF-RHF iter   1:  -386.98210724452736    4.58960e+00   1.15959e-03 
   @DF-RHF iter   2:  -387.20139267323214   -2.19285e-01   5.93428e-04 DIIS
   @DF-RHF iter   3:  -387.23758961266253   -3.61969e-02   2.39861e-04 DIIS
   @DF-RHF iter   4:  -387.24750069874551   -9.91109e-03   6.22722e-05 DIIS
   @DF-RHF iter   5:  -387.24848564818240   -9.84949e-04   2.38547e-05 DIIS
   @DF-RHF iter   6:  -387.24868973776029   -2.04090e-04   1.06689e-05 DIIS
   @DF-RHF iter   7:  -387.24873894622749   -4.92085e-05   4.04110e-06 DIIS
   @DF-RHF iter   8:  -387.24874956622273   -1.06200e-05   1.70586e-06 DIIS
   @DF-RHF iter   9:  -387.24875178725142   -2.22103e-06   7.39637e-07 DIIS
   @DF-RHF iter  10:  -387.24875219493276   -4.07681e-07   2.63113e-07 DIIS
   @DF-RHF iter  11:  -387.24875223926801   -4.43353e-08   8.48719e-08 DIIS
   @DF-RHF iter  12:  -387.24875224203470   -2.76668e-09   2.97589e-08 DIIS
   @DF-RHF iter  13:  -387.24875224231675   -2.82057e-10   1.00730e-08 DIIS
   @DF-RHF iter  14:  -387.24875224234779   -3.10365e-11   2.81899e-09 DIIS

  ==> Post-Iterations <==

    Orbital Energies (a.u.)
    -----------------------

    Doubly Occupied:                                                      

       1A    -20.550566     2A    -11.320132     3A    -11.232307  
       4A    -11.230719     5A    -11.220720     6A    -11.217083  
       7A    -11.216820     8A    -11.216083     9A    -11.209661  
      10A     -1.405616    11A     -1.109251    12A     -1.068084  
      13A     -1.014596    14A     -0.938441    15A     -0.888117  
      16A     -0.825941    17A     -0.793980    18A     -0.763741  
      19A     -0.666483    20A     -0.664806    21A     -0.634118  
      22A     -0.629679    23A     -0.603388    24A     -0.592744  
      25A     -0.586984    26A     -0.547173    27A     -0.543485  
      28A     -0.527580    29A     -0.515933    30A     -0.503672  
      31A     -0.488490    32A     -0.477230    33A     -0.455291  
      34A     -0.452427    35A     -0.447327    36A     -0.410294  

    Virtual:                                                              

      37A      0.128972    38A      0.145155    39A      0.150616  
      40A      0.152559    41A      0.159653    42A      0.175661  
      43A      0.182261    44A      0.195445    45A      0.208393  
      46A      0.212690    47A      0.222044    48A      0.225879  
      49A      0.237132    50A      0.258614    51A      0.260716  
      52A      0.271162    53A      0.278803    54A      0.312699  
      55A      0.326433    56A      0.329735    57A      0.339977  
      58A      0.357094    59A      0.366932    60A      0.372765  
      61A      0.387514    62A      0.398423    63A      0.410728  
      64A      0.424802    65A      0.429773    66A      0.453771  
      67A      0.459336    68A      0.467575    69A      0.475340  
      70A      0.485659    71A      0.509389    72A      0.537549  
      73A      0.556305    74A      0.565221    75A      0.572226  
      76A      0.579621    77A      0.590662    78A      0.595753  
      79A      0.600551    80A      0.608389    81A      0.611641  
      82A      0.616937    83A      0.622427    84A      0.632349  
      85A      0.633143    86A      0.646365    87A      0.647588  
      88A      0.657516    89A      0.661206    90A      0.665140  
      91A      0.674719    92A      0.684349    93A      0.690868  
      94A      0.693128    95A      0.709343    96A      0.709728  
      97A      0.717211    98A      0.731724    99A      0.742526  
     100A      0.759139   101A      0.772028   102A      0.783349  
     103A      0.803400   104A      0.810347   105A      0.836783  
     106A      0.849198   107A      0.862549   108A      0.888112  
     109A      0.894821   110A      0.909616   111A      0.922534  
     112A      0.942798   113A      0.948802   114A      0.964947  
     115A      0.981753   116A      0.993010   117A      0.999122  
     118A      1.020155   119A      1.044380   120A      1.051553  
     121A      1.057656   122A      1.066023   123A      1.099797  
     124A      1.115859   125A      1.125323   126A      1.132240  
     127A      1.147535   128A      1.162129   129A      1.166103  
     130A      1.199893   131A      1.210530   132A      1.215738  
     133A      1.240227   134A      1.247385   135A      1.253383  
     136A      1.262723   137A      1.282573   138A      1.285537  
     139A      1.293785   140A      1.303551   141A      1.311549  
     142A      1.319059   143A      1.329153   144A      1.345656  
     145A      1.354515   146A      1.362883   147A      1.374815  
     148A      1.381424   149A      1.387908   150A      1.396730  
     151A      1.399307   152A      1.403651   153A      1.407241  
     154A      1.414215   155A      1.421589   156A      1.433023  
     157A      1.450187   158A      1.455450   159A      1.470584  
     160A      1.476001   161A      1.478928   162A      1.493944  
     163A      1.497414   164A      1.504072   165A      1.512670  
     166A      1.519753   167A      1.541013   168A      1.553964  
     169A      1.573043   170A      1.582969   171A      1.603294  
     172A      1.606002   173A      1.621501   174A      1.637493  
     175A      1.644039   176A      1.654624   177A      1.665554  
     178A      1.694092   179A      1.699676   180A      1.704409  
     181A      1.709628   182A      1.728954   183A      1.736184  
     184A      1.757611   185A      1.762170   186A      1.771320  
     187A      1.782717   188A      1.784398   189A      1.811776  
     190A      1.826798   191A      1.846858   192A      1.870103  
     193A      1.879828   194A      1.898145   195A      1.919556  
     196A      1.931353   197A      1.962234   198A      1.982234  
     199A      2.016468   200A      2.056707   201A      2.085146  
     202A      2.142316   203A      2.196272   204A      2.333957  
     205A      2.372786   206A      2.469239   207A      2.482897  
     208A      2.504886   209A      2.537395   210A      2.586504  
     211A      2.595888   212A      2.619521   213A      2.648710  
     214A      2.651826   215A      2.680878   216A      2.701193  
     217A      2.713721   218A      2.732995   219A      2.740921  
     220A      2.747644   221A      2.766623   222A      2.785273  
     223A      2.790954   224A      2.814547   225A      2.829541  
     226A      2.849178   227A      2.860518   228A      2.865156  
     229A      2.875711   230A      2.895545   231A      2.901731  
     232A      2.911850   233A      2.918303   234A      2.945977  
     235A      2.958321   236A      2.962717   237A      2.964642  
     238A      2.986089   239A      3.001503   240A      3.019399  
     241A      3.032569   242A      3.035725   243A      3.048353  
     244A      3.065020   245A      3.077913   246A      3.099978  
     247A      3.110602   248A      3.113539   249A      3.127642  
     250A      3.143725   251A      3.148042   252A      3.162096  
     253A      3.183027   254A      3.191656   255A      3.214463  
     256A      3.222775   257A      3.237624   258A      3.240625  
     259A      3.249635   260A      3.263850   261A      3.276531  
     262A      3.290219   263A      3.305702   264A      3.313442  
     265A      3.323159   266A      3.333673   267A      3.345648  
     268A      3.353711   269A      3.376860   270A      3.391786  
     271A      3.395008   272A      3.398536   273A      3.408495  
     274A      3.415256   275A      3.426740   276A      3.439087  
     277A      3.447826   278A      3.455322   279A      3.459570  
     280A      3.468646   281A      3.479929   282A      3.483321  
     283A      3.493767   284A      3.503126   285A      3.509962  
     286A      3.513351   287A      3.526436   288A      3.538260  
     289A      3.548315   290A      3.553749   291A      3.565242  
     292A      3.572038   293A      3.581021   294A      3.590273  
     295A      3.611371   296A      3.623160   297A      3.642978  
     298A      3.650489   299A      3.652268   300A      3.672697  
     301A      3.683604   302A      3.712150   303A      3.720495  
     304A      3.748192   305A      3.750611   306A      3.769360  
     307A      3.774723   308A      3.788616   309A      3.792794  
     310A      3.812580   311A      3.830154   312A      3.842492  
     313A      3.858035   314A      3.864158   315A      3.873448  
     316A      3.891995   317A      3.910754   318A      3.923006  
     319A      3.935377   320A      3.940540   321A      3.955926  
     322A      3.958643   323A      3.974868   324A      3.998795  
     325A      4.011664   326A      4.015836   327A      4.033244  
     328A      4.040364   329A      4.056169   330A      4.062680  
     331A      4.080775   332A      4.095039   333A      4.101081  
     334A      4.112604   335A      4.128397   336A      4.140699  
     337A      4.151784   338A      4.155567   339A      4.165235  
     340A      4.176628   341A      4.185323   342A      4.193035  
     343A      4.197178   344A      4.207173   345A      4.217214  
     346A      4.239716   347A      4.246841   348A      4.258518  
     349A      4.263973   350A      4.280445   351A      4.289678  
     352A      4.294847   353A      4.304755   354A      4.313044  
     355A      4.323530   356A      4.343791   357A      4.365501  
     358A      4.375866   359A      4.379581   360A      4.396778  
     361A      4.401414   362A      4.428194   363A      4.435358  
     364A      4.440991   365A      4.449783   366A      4.452110  
     367A      4.477307   368A      4.483600   369A      4.499995  
     370A      4.500978   371A      4.511544   372A      4.531648  
     373A      4.539330   374A      4.562870   375A      4.563479  
     376A      4.569499   377A      4.579410   378A      4.587155  
     379A      4.613784   380A      4.620828   381A      4.631439  
     382A      4.636249   383A      4.653161   384A      4.656295  
     385A      4.676495   386A      4.695104   387A      4.698385  
     388A      4.718108   389A      4.732509   390A      4.752963  
     391A      4.770498   392A      4.773571   393A      4.783617  
     394A      4.807636   395A      4.835581   396A      4.838355  
     397A      4.877201   398A      4.918837   399A      4.943086  
     400A      4.947560   401A      4.954144   402A      4.977043  
     403A      4.994733   404A      5.002846   405A      5.033352  
     406A      5.034606   407A      5.052756   408A      5.077293  
     409A      5.089741   410A      5.112192   411A      5.130284  
     412A      5.133149   413A      5.154167   414A      5.191489  
     415A      5.205530   416A      5.226672   417A      5.241909  
     418A      5.245136   419A      5.253571   420A      5.273056  
     421A      5.282694   422A      5.293452   423A      5.320962  
     424A      5.339213   425A      5.355350   426A      5.378075  
     427A      5.399700   428A      5.415729   429A      5.419679  
     430A      5.429603   431A      5.432261   432A      5.448127  
     433A      5.476834   434A      5.507350   435A      5.521920  
     436A      5.547112   437A      5.558057   438A      5.576746  
     439A      5.614294   440A      5.634606   441A      5.642442  
     442A      5.646966   443A      5.691017   444A      5.709491  
     445A      5.722903   446A      5.754482   447A      5.756695  
     448A      5.772191   449A      5.783085   450A      5.792448  
     451A      5.808924   452A      5.833184   453A      5.851169  
     454A      5.866792   455A      5.875023   456A      5.884615  
     457A      5.903651   458A      5.916203   459A      5.947839  
     460A      5.965656   461A      5.988722   462A      6.003850  
     463A      6.020497   464A      6.044562   465A      6.079773  
     466A      6.143009   467A      6.167921   468A      6.206405  
     469A      6.285956   470A      6.329361   471A      6.343239  
     472A      6.353452   473A      6.390356   474A      6.430850  
     475A      6.436358   476A      6.486911   477A      6.570685  
     478A      6.786662   479A      6.801732   480A      6.917048  
     481A      6.975732   482A      7.365436   483A      7.394957  
     484A      7.542531   485A      7.593781   486A     10.888417  
     487A     12.610352   488A     13.149243   489A     13.626200  
     490A     13.741606   491A     13.795342   492A     14.183341  
     493A     14.262884   494A     14.301585  

    Final Occupation by Irrep:
              A 
    DOCC [    36 ]

  Energy converged.

  @DF-RHF Final Energy:  -387.24875224234779

   => Energetics <=

    Nuclear Repulsion Energy =            448.0063246067298905
    One-Electron Energy =               -1412.5722277101067448
    Two-Electron Energy =                 577.3171508610286082
    DFT Exchange-Correlation Energy =       0.0000000000000000
    Empirical Dispersion Energy =           0.0000000000000000
    PCM Polarization Energy =               0.0000000000000000
    EFP Energy =                            0.0000000000000000
    Total Energy =                       -387.2487522423482460


  Saving occupied orbitals to File 180.

*** tstop() called on cx1-27-2-1 at Sun Sep 11 04:06:56 2016
Module time:
	user time   =      84.31 seconds =       1.41 minutes
	system time =       1.55 seconds =       0.03 minutes
	total time  =         24 seconds =       0.40 minutes
Total time:
	user time   =      84.31 seconds =       1.41 minutes
	system time =       1.55 seconds =       0.03 minutes
	total time  =         24 seconds =       0.40 minutes


Properties will be evaluated at   0.000000,   0.000000,   0.000000 Bohr

Properties computed using the SCF density matrix

  Nuclear Dipole Moment: (a.u.)
     X:    14.4065      Y:    -1.5519      Z:     4.2551

  Electronic Dipole Moment: (a.u.)
     X:   -13.2450      Y:     0.9930      Z:    -4.3303

  Dipole Moment: (a.u.)
     X:     1.1615      Y:    -0.5590      Z:    -0.0752     Total:     1.2912

  Dipole Moment: (Debye)
     X:     2.9522      Y:    -1.4208      Z:    -0.1912     Total:     3.2819


*** tstart() called on cx1-27-2-1
*** at Sun Sep 11 04:06:56 2016


         ------------------------------------------------------------
                                   SCF GRAD                          
                          Rob Parrish, Justin Turney,                
                       Andy Simmonett, and Alex Sokolov              
         ------------------------------------------------------------

  ==> Geometry <==

    Molecular point group: c1
    Full point group: C1

    Geometry (in Angstrom), charge = 0, multiplicity = 1:

       Center              X                  Y                   Z               Mass       
    ------------   -----------------  -----------------  -----------------  -----------------
           H         -2.160693707903     0.812548335936    -2.367925361074     1.007825032070
           C         -2.746588707903     0.298178335936    -1.593951361074    12.000000000000
           C         -2.095302707903    -0.929610664064    -1.017539361074    12.000000000000
           O         -3.808248707903     0.713875335936    -1.281890361074    15.994914619560
           C         -0.665746707903    -0.670251664064    -0.533000361074    12.000000000000
           H         -2.722917707903    -1.311529664064    -0.222825361074     1.007825032070
           H         -2.073969707903    -1.671722664064    -1.812598361074     1.007825032070
           C         -0.588080707903     0.254941335936     0.679504638926    12.000000000000
           H         -0.208211707903    -1.622933664064    -0.289282361074     1.007825032070
           H         -0.079378707903    -0.253849664064    -1.348460361074     1.007825032070
           C          0.841513292097     0.495173335936     1.157344638926    12.000000000000
           H         -1.173246707903    -0.172146664064     1.489617638926     1.007825032070
           H         -1.052518707903     1.209198335936     0.444732638926     1.007825032070
           C          1.810788292097    -0.596266664064     0.707330638926    12.000000000000
           H          1.175695292097     1.462142335936     0.794524638926     1.007825032070
           H          0.851270292097     0.555968335936     2.243395638926     1.007825032070
           C          3.239777292097    -0.441792664064     1.230808638926    12.000000000000
           H          1.830301292097    -0.632829664064    -0.379438361074     1.007825032070
           H          1.426388292097    -1.558159664064     1.034901638926     1.007825032070
           C          3.987413292097     0.777439335936     0.696394638926    12.000000000000
           H          3.798562292097    -1.334524664064     0.967786638926     1.007825032070
           H          3.221747292097    -0.406037664064     2.316949638926     1.007825032070
           H          4.015729292097     0.772002335936    -0.388577361074     1.007825032070
           H          3.526892292097     1.706395335936     1.010474638926     1.007825032070
           H          5.011280292097     0.786358335936     1.052177638926     1.007825032070

  Nuclear repulsion =  448.006324606729891

  ==> Basis Set <==

  Basis Set: CC-PVTZ
    Number of shells: 186
    Number of basis function: 494
    Number of Cartesian functions: 555
    Spherical Harmonics?: true
    Max angular momentum: 3

  ==> DFJKGrad: Density-Fitted SCF Gradients <==

    Gradient:                    1
    J tasked:                  Yes
    K tasked:                  Yes
    wK tasked:                  No
    OpenMP threads:              4
    Integrals threads:           4
    Memory (MB):              1430
    Schwarz Cutoff:          0E+00
    Fitting Condition:       1E-12

   => Auxiliary Basis Set <=

  Basis Set: 
    Number of shells: 385
    Number of basis function: 1191
    Number of Cartesian functions: 1424
    Spherical Harmonics?: true
    Max angular momentum: 4


  -Total Gradient:
     Atom            X                  Y                   Z
    ------   -----------------  -----------------  -----------------
       1       -0.000038447426    -0.000077111978     0.000023040580
       2        0.000154117769     0.000441794862    -0.000156571992
       3        0.000027486021    -0.001133517562    -0.000267720107
       4        0.000169456192    -0.000239863431     0.000039657830
       5        0.006275275246     0.001315219297     0.003382208465
       6        0.000097702120     0.000002179718    -0.000053267345
       7       -0.000105402376     0.000023773030     0.000015470187
       8        0.007246146017     0.001602334246     0.000562160495
       9        0.004625649290    -0.002414843061     0.002800620851
      10        0.002087244443     0.000463995919     0.000492947974
      11       -0.006998225365    -0.002582329331    -0.001426961845
      12        0.000584854367     0.001228667135     0.002116463801
      13        0.001008242085     0.001779589584    -0.001080318826
      14       -0.006877716344    -0.000526226183    -0.003061828917
      15       -0.001732000156     0.001829610887     0.000126254031
      16       -0.000927421289    -0.001251588434     0.001875180334
      17        0.000565937329    -0.000284565244    -0.000685480755
      18       -0.003467298508     0.000224028697    -0.003787558528
      19       -0.002472572617    -0.000414134895    -0.001000036753
      20        0.000099888514    -0.000126055301    -0.000158499363
      21       -0.000096194076     0.000091246493     0.000054613581
      22       -0.000161099888    -0.000059008181     0.000011147701
      23       -0.000042468166    -0.000018000458     0.000091278704
      24       -0.000040314026     0.000091083875     0.000028655018
      25        0.000017160843     0.000033720312     0.000058544875


*** tstop() called on cx1-27-2-1 at Sun Sep 11 04:07:16 2016
Module time:
	user time   =      78.73 seconds =       1.31 minutes
	system time =       0.88 seconds =       0.01 minutes
	total time  =         20 seconds =       0.33 minutes
Total time:
	user time   =     163.17 seconds =       2.72 minutes
	system time =       2.43 seconds =       0.04 minutes
	total time  =         44 seconds =       0.73 minutes

			-----------------------------------------
			 OPTKING 2.0: for geometry optimizations 
			  - R.A. King,  Bethel University        
			-----------------------------------------

	Internal coordinates to be generated automatically.
	Detected frag 1 with atoms:  1 2 3 4 5 6 7 8 9 10 11 12 13 14 15 16 17 18 19 20
	 21 22 23 24 25
	---Fragment 1 Bond Connectivity---
	 1 : 2
	 2 : 1 3 4
	 3 : 2 5 6 7
	 4 : 2
	 5 : 3 8 9 10
	 6 : 3
	 7 : 3
	 8 : 5 11 12 13
	 9 : 5
	 10 : 5
	 11 : 8 14 15 16
	 12 : 8
	 13 : 8
	 14 : 11 17 18 19
	 15 : 11
	 16 : 11
	 17 : 14 20 21 22
	 18 : 14
	 19 : 14
	 20 : 17 23 24 25
	 21 : 17
	 22 : 17
	 23 : 20
	 24 : 20
	 25 : 20

	Assuming in current code that numbering for constraints corresponds to unified fragment.
	Frozen dihedral atom list: 
	    12     8    11    14
	---Fragment 1 Geometry and Gradient---
	 H          -4.0831193650        1.5354938247       -4.4747304355
	 C          -5.1903004576        0.5634753937       -3.0121315416
	 C          -3.9595482834       -1.7567095653       -1.9228707219
	 O          -7.1965471039        1.3490288779       -2.4224217148
	 C          -1.2580789518       -1.2665920852       -1.0072247112
	 H          -5.1455687503       -2.4784318802       -0.4210789079
	 H          -3.9192347558       -3.1590980052       -3.4253144913
	 C          -1.1113114820        0.4817693049        1.2840776736
	 H          -0.3934631056       -3.0669001569       -0.5466644375
	 H          -0.1500040187       -0.4797063440       -2.5482207835
	 C           1.5902296592        0.9357419932        2.1870644089
	 H          -2.2171149642       -0.3253100498        2.8149693803
	 H          -1.9889721077        2.2850536953        0.8404228899
	 C           3.4218939567       -1.1267806973        1.3366611930
	 H           2.2217421178        2.7630485822        1.5014339734
	 H           1.6086677171        1.0506278935        4.2394033653
	 C           6.1222918136       -0.8348671426        2.3258912496
	 H           3.4587681827       -1.1958747538       -0.7170345867
	 H           2.6954832312       -2.9444950364        1.9556806720
	 C           7.5351191007        1.4691474299        1.3159951480
	 H           7.1782424308       -2.5218861327        1.8288517026
	 H           6.0882200514       -0.7672999847        4.3784002813
	 H           7.5886285859        1.4588729889       -0.7343047939
	 H           6.6648605322        3.2246198594        1.9095203318
	 H           9.4699473272        1.4860018972        1.9883275807
	            -0.0000384474       -0.0000771120        0.0000230406
	             0.0001541178        0.0004417949       -0.0001565720
	             0.0000274860       -0.0011335176       -0.0002677201
	             0.0001694562       -0.0002398634        0.0000396578
	             0.0062752752        0.0013152193        0.0033822085
	             0.0000977021        0.0000021797       -0.0000532673
	            -0.0001054024        0.0000237730        0.0000154702
	             0.0072461460        0.0016023342        0.0005621605
	             0.0046256493       -0.0024148431        0.0028006209
	             0.0020872444        0.0004639959        0.0004929480
	            -0.0069982254       -0.0025823293       -0.0014269618
	             0.0005848544        0.0012286671        0.0021164638
	             0.0010082421        0.0017795896       -0.0010803188
	            -0.0068777163       -0.0005262262       -0.0030618289
	            -0.0017320002        0.0018296109        0.0001262540
	            -0.0009274213       -0.0012515884        0.0018751803
	             0.0005659373       -0.0002845652       -0.0006854808
	            -0.0034672985        0.0002240287       -0.0037875585
	            -0.0024725726       -0.0004141349       -0.0010000368
	             0.0000998885       -0.0001260553       -0.0001584994
	            -0.0000961941        0.0000912465        0.0000546136
	            -0.0001610999       -0.0000590082        0.0000111477
	            -0.0000424682       -0.0000180005        0.0000912787
	            -0.0000403140        0.0000910839        0.0000286550
	             0.0000171608        0.0000337203        0.0000585449

	Previous optimization step data not found.  Starting new optimization.

	---Fragment 1 Intrafragment Coordinates---
	 - Coordinate -           - BOHR/RAD -       - ANG/DEG -
	 R(1,2)           =         2.076022	       1.098583
	 R(2,3)           =         2.843325	       1.504623
	 R(2,4)           =         2.233803	       1.182078
	 R(3,5)           =         2.894229	       1.531560
	 R(3,6)           =         2.045215	       1.082281
	 R(3,7)           =         2.055640	       1.087798
	 R(5,8)           =         2.885892	       1.527148
	 R(5,9)           =         2.049582	       1.084592
	 R(5,10)          =         2.054675	       1.087287
	 R(8,11)          =         2.884406	       1.526362
	 R(8,12)          =         2.053730	       1.086787
	 R(8,13)          =         2.054009	       1.086935
	 R(11,14)         =         2.886552	       1.527497
	 R(11,15)         =         2.051328	       1.085516
	 R(11,16)         =         2.055635	       1.087795
	 R(14,17)         =         2.890664	       1.529673
	 R(14,18)         =         2.055189	       1.087559
	 R(14,19)         =         2.053033	       1.086418
	 R(17,20)         =         2.885213	       1.526789
	 R(17,21)         =         2.051369	       1.085538
	 R(17,22)         =         2.053903	       1.086879
	 R(20,23)         =         2.051024	       1.085355
	 R(20,24)         =         2.047268	       1.083367
	 R(20,25)         =         2.048384	       1.083958
	 B(1,2,3)         =         2.005469	     114.904887
	 B(1,2,4)         =         2.094769	     120.021443
	 B(2,3,5)         =         1.968217	     112.770527
	 B(2,3,6)         =         1.894676	     108.556954
	 B(2,3,7)         =         1.859996	     106.569897
	 B(3,2,4)         =         2.182901	     125.070992
	 B(3,5,8)         =         1.983677	     113.656336
	 B(3,5,9)         =         1.892410	     108.427120
	 B(3,5,10)        =         1.908112	     109.326755
	 B(5,3,6)         =         1.948436	     111.637165
	 B(5,3,7)         =         1.905463	     109.174982
	 B(5,8,11)        =         1.973102	     113.050427
	 B(5,8,12)        =         1.903262	     109.048896
	 B(5,8,13)        =         1.916284	     109.795009
	 B(6,3,7)         =         1.883170	     107.897687
	 B(8,5,9)         =         1.909519	     109.407375
	 B(8,5,10)        =         1.913492	     109.635025
	 B(8,11,14)       =         1.971030	     112.931703
	 B(8,11,15)       =         1.900648	     108.899117
	 B(8,11,16)       =         1.906838	     109.253797
	 B(9,5,10)        =         1.851909	     106.106586
	 B(11,8,12)       =         1.910059	     109.438325
	 B(11,8,13)       =         1.906723	     109.247181
	 B(11,14,17)      =         2.004030	     114.822470
	 B(11,14,18)      =         1.906890	     109.256746
	 B(11,14,19)      =         1.895767	     108.619471
	 B(12,8,13)       =         1.850374	     106.018620
	 B(14,11,15)      =         1.920561	     110.040048
	 B(14,11,16)      =         1.905383	     109.170388
	 B(14,17,20)      =         2.002376	     114.727695
	 B(14,17,21)      =         1.891154	     108.355155
	 B(14,17,22)      =         1.906897	     109.257145
	 B(15,11,16)      =         1.855794	     106.329170
	 B(17,14,18)      =         1.905618	     109.183880
	 B(17,14,19)      =         1.893109	     108.467179
	 B(17,20,23)      =         1.937646	     111.018922
	 B(17,20,24)      =         1.955313	     112.031206
	 B(17,20,25)      =         1.932872	     110.745407
	 B(18,14,19)      =         1.852381	     106.133603
	 B(20,17,21)      =         1.896369	     108.653922
	 B(20,17,22)      =         1.908838	     109.368356
	 B(21,17,22)      =         1.852222	     106.124486
	 B(23,20,24)      =         1.880939	     107.769838
	 B(23,20,25)      =         1.879169	     107.668446
	 B(24,20,25)      =         1.874762	     107.415931
	 D(1,2,3,5)       =         0.904079	      51.799929
	 D(1,2,3,6)       =         3.072571	     176.045334
	 D(1,2,3,7)       =        -1.186331	     -67.971772
	 D(2,3,5,8)       =         1.177738	      67.479426
	 D(2,3,5,9)       =        -2.978024	    -170.628186
	 D(2,3,5,10)      =        -0.966348	     -55.367685
	 D(3,5,8,11)      =         3.133715	     179.548640
	 D(3,5,8,12)      =         1.004858	      57.574136
	 D(3,5,8,13)      =        -1.015471	     -58.182219
	 D(4,2,3,5)       =        -2.247955	    -128.798324
	 D(4,2,3,6)       =        -0.079463	      -4.552918
	 D(4,2,3,7)       =         1.944820	     111.429976
	 D(5,8,11,14)     =        -0.379711	     -21.755811
	 D(5,8,11,15)     =         1.759298	     100.800342
	 D(5,8,11,16)     =        -2.503758	    -143.454741
	 D(6,3,5,8)       =        -0.960906	     -55.055854
	 D(6,3,5,9)       =         1.166518	      66.836533
	 D(6,3,5,10)      =        -3.104992	    -177.902966
	 D(7,3,5,8)       =        -3.041474	    -174.263617
	 D(7,3,5,9)       =        -0.914050	     -52.371230
	 D(7,3,5,10)      =         1.097625	      62.889272
	 D(8,11,14,17)    =        -3.082192	    -176.596598
	 D(8,11,14,18)    =         1.053695	      60.372289
	 D(8,11,14,19)    =        -0.959717	     -54.987714
	 D(9,5,8,11)      =         1.015815	      58.201917
	 D(9,5,8,12)      =        -1.113042	     -63.772587
	 D(9,5,8,13)      =        -3.133371	    -179.528943
	 D(10,5,8,11)     =        -1.008341	     -57.773703
	 D(10,5,8,12)     =        -3.137198	    -179.748208
	 D(10,5,8,13)     =         1.125658	      64.495437
	 D(11,14,17,20)   =        -1.155837	     -66.224578
	 D(11,14,17,21)   =         3.005228	     172.186872
	 D(11,14,17,22)   =         0.994512	      56.981338
	*D(12,8,11,14)    =         1.745329	      99.999990
	 D(12,8,11,15)    =        -2.398848	    -137.443857
	 D(12,8,11,16)    =        -0.378718	     -21.698940
	 D(13,8,11,14)    =        -2.519047	    -144.330740
	 D(13,8,11,15)    =        -0.380038	     -21.774587
	 D(13,8,11,16)    =         1.640092	      93.970330
	 D(14,17,20,23)   =        -0.985694	     -56.476110
	 D(14,17,20,24)   =         1.118185	      64.067281
	 D(14,17,20,25)   =        -3.072286	    -176.029001
	 D(15,11,14,17)   =         1.073148	      61.486861
	 D(15,11,14,18)   =        -1.074150	     -61.544252
	 D(15,11,14,19)   =        -3.087562	    -176.904256
	 D(16,11,14,17)   =        -0.957324	     -54.850647
	 D(16,11,14,18)   =        -3.104622	    -177.881761
	 D(16,11,14,19)   =         1.165151	      66.758236
	 D(18,14,17,20)   =         0.992143	      56.845579
	 D(18,14,17,21)   =        -1.129978	     -64.742971
	 D(18,14,17,22)   =        -3.140694	    -179.948506
	 D(19,14,17,20)   =         3.003427	     172.083666
	 D(19,14,17,21)   =         0.881306	      50.495116
	 D(19,14,17,22)   =        -1.129410	     -64.710419
	 D(21,17,20,23)   =         1.133579	      64.949311
	 D(21,17,20,24)   =        -3.045727	    -174.507297
	 D(21,17,20,25)   =        -0.953012	     -54.603579
	 D(22,17,20,23)   =        -3.135003	    -179.622414
	 D(22,17,20,24)   =        -1.031123	     -59.079022
	 D(22,17,20,25)   =         1.061591	      60.824695

	Current energy   :      -387.2487522423

	Generating empirical Hessian (Schlegel '84) for each fragment.
	Taking RFO optimization step.
	Going to follow RFO solution 1.
	Using RFO vector 1.
	Norm of target step-size    0.36541
	Projected energy change by RFO approximation:        -0.0140223657

	Back-transformation to cartesian coordinates...
	Could not converge backtransformation.
	Using first guess instead.

	Back-transformation to cartesian coordinates to adjust frozen coordinates...
	Successfully converged to displaced geometry.

	--- Internal Coordinate Step in ANG or DEG, aJ/ANG or AJ/DEG ---
	 ---------------------------------------------------------------------------
	   Coordinate                Previous        Force       Change         New 
	   ----------                --------       ------       ------       ------
	    1 R(1,2)          =      1.098583     0.000600     0.063034     1.161617
	    2 R(2,3)          =      1.504623    -0.000119     0.099908     1.604531
	    3 R(2,4)          =      1.182078     0.001863     0.030003     1.212081
	    4 R(3,5)          =      1.531560    -0.000067     0.123505     1.655065
	    5 R(3,6)          =      1.082281     0.000795     0.053390     1.135672
	    6 R(3,7)          =      1.087798     0.000244     0.055994     1.143792
	    7 R(5,8)          =      1.527148     0.038547     0.087686     1.614835
	    8 R(5,9)          =      1.084592    -0.038737     0.059930     1.144522
	    9 R(5,10)         =      1.087287    -0.007692     0.055857     1.143144
	   10 R(8,11)         =      1.526362     0.194972     0.152290     1.678652
	   11 R(8,12)         =      1.086787    -0.006425     0.053962     1.140749
	   12 R(8,13)         =      1.086935    -0.011245     0.056357     1.143292
	   13 R(11,14)        =      1.527497     0.038893     0.057987     1.585484
	   14 R(11,15)        =      1.085516    -0.008687     0.082973     1.168489
	   15 R(11,16)        =      1.087795    -0.014779     0.043782     1.131577
	   16 R(14,17)        =      1.529673    -0.000722     0.138489     1.668163
	   17 R(14,18)        =      1.087559    -0.030607     0.043722     1.131281
	   18 R(14,19)        =      1.086418    -0.007744     0.086469     1.172887
	   19 R(17,20)        =      1.526789     0.000046     0.119254     1.646043
	   20 R(17,21)        =      1.085538     0.001135     0.044990     1.130528
	   21 R(17,22)        =      1.086879    -0.000098     0.048027     1.134906
	   22 R(20,23)        =      1.085355     0.000760     0.048891     1.134246
	   23 R(20,24)        =      1.083367    -0.000853     0.042392     1.125760
	   24 R(20,25)        =      1.083958    -0.000294     0.097121     1.181079
	   25 B(1,2,3)        =    114.904887    -0.000008     2.120636   117.025523
	   26 B(1,2,4)        =    120.021443    -0.000012    -0.954912   119.066531
	   27 B(2,3,5)        =    112.770527     0.000029    -0.599871   112.170656
	   28 B(2,3,6)        =    108.556954    -0.000015     2.504678   111.061632
	   29 B(2,3,7)        =    106.569897    -0.000003    -1.553754   105.016143
	   30 B(3,2,4)        =    125.070992     0.000020    -1.164801   123.906192
	   31 B(3,5,8)        =    113.656336    -0.000282     1.925403   115.581739
	   32 B(3,5,9)        =    108.427120    -0.000076    -1.953162   106.473958
	   33 B(3,5,10)       =    109.326755    -0.000010    -1.751786   107.574969
	   34 B(5,3,6)        =    111.637165    -0.000003    -1.054196   110.582969
	   35 B(5,3,7)        =    109.174982    -0.000015     3.081812   112.256793
	   36 B(5,8,11)       =    113.050427     0.002384    11.417132   124.467559
	   37 B(5,8,12)       =    109.048896    -0.000661    -1.155914   107.892981
	   38 B(5,8,13)       =    109.795009    -0.000878    -5.183801   104.611208
	   39 B(6,3,7)        =    107.897687     0.000005    -2.460032   105.437655
	   40 B(8,5,9)        =    109.407375     0.000255     0.056983   109.464357
	   41 B(8,5,10)       =    109.635025     0.000139    -1.255169   108.379856
	   42 B(8,11,14)      =    112.931703     0.002413     8.172453   121.104157
	   43 B(8,11,15)      =    108.899117    -0.000644    -0.565123   108.333994
	   44 B(8,11,16)      =    109.253797    -0.000691    -0.052219   109.201578
	   45 B(9,5,10)       =    106.106586    -0.000010     3.116251   109.222838
	   46 B(11,8,12)      =    109.438325    -0.000610    -2.249390   107.188935
	   47 B(11,8,13)      =    109.247181    -0.000693    -4.047301   105.199880
	   48 B(11,14,17)     =    114.822470    -0.000249    -0.545871   114.276599
	   49 B(11,14,18)     =    109.256746     0.000244    -1.883216   107.373530
	   50 B(11,14,19)     =    108.619471     0.000147     1.396132   110.015603
	   51 B(12,8,13)      =    106.018620     0.000327     0.156839   106.175459
	   52 B(14,11,15)     =    110.040048    -0.000695    -3.151490   106.888558
	   53 B(14,11,16)     =    109.170388    -0.000853    -4.849232   104.321156
	   54 B(14,17,20)     =    114.727695    -0.000010    -0.177946   114.549749
	   55 B(14,17,21)     =    108.355155     0.000002     0.477392   108.832547
	   56 B(14,17,22)     =    109.257145     0.000014     1.986545   111.243690
	   57 B(15,11,16)     =    106.329170     0.000348    -0.293363   106.035807
	   58 B(17,14,18)     =    109.183880    -0.000090     0.987415   110.171295
	   59 B(17,14,19)     =    108.467179    -0.000043    -0.738072   107.729107
	   60 B(17,20,23)     =    111.018922     0.000004    -0.037866   110.981055
	   61 B(17,20,24)     =    112.031206    -0.000000     1.009061   113.040268
	   62 B(17,20,25)     =    110.745407    -0.000001    -0.071691   110.673717
	   63 B(18,14,19)     =    106.133603     0.000008     0.918926   107.052529
	   64 B(20,17,21)     =    108.653922     0.000003     1.169184   109.823106
	   65 B(20,17,22)     =    109.368356    -0.000006    -0.160423   109.207934
	   66 B(21,17,22)     =    106.124486    -0.000002    -3.623610   102.500876
	   67 B(23,20,24)     =    107.769838    -0.000001    -3.195913   104.573925
	   68 B(23,20,25)     =    107.668446    -0.000003     2.166009   109.834455
	   69 B(24,20,25)     =    107.415931     0.000002     0.092074   107.508006
	   70 D(1,2,3,5)      =     51.799929    -0.000001    -0.494539    51.305390
	   71 D(1,2,3,6)      =    176.045334     0.000000    -0.425462   175.619872
	   72 D(1,2,3,7)      =    -67.971772    -0.000000    -2.915573   -70.887345
	   73 D(2,3,5,8)      =     67.479426    -0.000009     0.204330    67.683756
	   74 D(2,3,5,9)      =   -170.628186     0.000010     0.102803  -170.525384
	   75 D(2,3,5,10)     =    -55.367685    -0.000003     1.830934   -53.536751
	   76 D(3,5,8,11)     =    179.548640     0.000023     3.049977   182.598617
	   77 D(3,5,8,12)     =     57.574136    -0.000058    -1.723271    55.850865
	   78 D(3,5,8,13)     =    -58.182219     0.000050     1.284530   -56.897690
	   79 D(4,2,3,5)      =   -128.798324    -0.000000    -0.383814  -129.182138
	   80 D(4,2,3,6)      =     -4.552918     0.000001    -0.314736    -4.867655
	   81 D(4,2,3,7)      =    111.429976     0.000000    -2.804848   108.625128
	   82 D(5,8,11,14)    =    -21.755811    -0.000076    -5.288391   -27.044202
	   83 D(5,8,11,15)    =    100.800342    -0.000012    -3.970650    96.829692
	   84 D(5,8,11,16)    =   -143.454741    -0.000085    -4.655939  -148.110680
	   85 D(6,3,5,8)      =    -55.055854    -0.000009    -1.840267   -56.896122
	   86 D(6,3,5,9)      =     66.836533     0.000010    -1.941795    64.894738
	   87 D(6,3,5,10)     =   -177.902966    -0.000003    -0.213664  -178.116629
	   88 D(7,3,5,8)      =   -174.263617    -0.000008    -0.078911  -174.342528
	   89 D(7,3,5,9)      =    -52.371230     0.000011    -0.180439   -52.551668
	   90 D(7,3,5,10)     =     62.889272    -0.000002     1.547692    64.436964
	   91 D(8,11,14,17)   =   -176.596598     0.000019     0.936184  -175.660414
	   92 D(8,11,14,18)   =     60.372289     0.000044     1.455354    61.827642
	   93 D(8,11,14,19)   =    -54.987714    -0.000007     0.648188   -54.339526
	   94 D(9,5,8,11)     =     58.201917     0.000046     4.221295    62.423212
	   95 D(9,5,8,12)     =    -63.772587    -0.000034    -0.551953   -64.324540
	   96 D(9,5,8,13)     =   -179.528943     0.000074     2.455848  -177.073095
	   97 D(10,5,8,11)    =    -57.773703    -0.000002     1.158213   -56.615490
	   98 D(10,5,8,12)    =   -179.748208    -0.000083    -3.615035  -183.363243
	   99 D(10,5,8,13)    =     64.495437     0.000025    -0.607234    63.888203
	  100 D(11,14,17,20)  =    -66.224578    -0.000006     1.271360   -64.953218
	  101 D(11,14,17,21)  =    172.186872    -0.000006    -0.486245   171.700627
	  102 D(11,14,17,22)  =     56.981338    -0.000007     2.511938    59.493276
	  103 *D(12,8,11,14)  =     99.999990    -0.000000    -0.000000    99.999990
	  104 D(12,8,11,15)   =   -137.443857     0.000064     1.317742  -136.126115
	  105 D(12,8,11,16)   =    -21.698940    -0.000009     0.632452   -21.066488
	  106 D(13,8,11,14)   =   -144.330740    -0.000077    -2.949754  -147.280494
	  107 D(13,8,11,15)   =    -21.774587    -0.000013    -1.632012   -23.406599
	  108 D(13,8,11,16)   =     93.970330    -0.000086    -2.317302    91.653028
	  109 D(14,17,20,23)  =    -56.476110     0.000001     2.373717   -54.102394
	  110 D(14,17,20,24)  =     64.067281     0.000001    -1.043216    63.024065
	  111 D(14,17,20,25)  =   -176.029001     0.000001    -0.289507  -176.318508
	  112 D(15,11,14,17)  =     61.486861    -0.000059    -1.696062    59.790799
	  113 D(15,11,14,18)  =    -61.544252    -0.000034    -1.176892   -62.721145
	  114 D(15,11,14,19)  =   -176.904256    -0.000085    -1.984057  -178.888313
	  115 D(16,11,14,17)  =    -54.850647     0.000049     2.589010   -52.261637
	  116 D(16,11,14,18)  =   -177.881761     0.000073     3.108180  -174.773581
	  117 D(16,11,14,19)  =     66.758236     0.000022     2.301015    69.059251
	  118 D(18,14,17,20)  =     56.845579     0.000010    -0.824160    56.021418
	  119 D(18,14,17,21)  =    -64.742971     0.000011    -2.581765   -67.324737
	  120 D(18,14,17,22)  =   -179.948506     0.000010     0.416418  -179.532088
	  121 D(19,14,17,20)  =    172.083666    -0.000004     0.388727   172.472393
	  122 D(19,14,17,21)  =     50.495116    -0.000003    -1.368878    49.126237
	  123 D(19,14,17,22)  =    -64.710419    -0.000005     1.629305   -63.081114
	  124 D(21,17,20,23)  =     64.949311    -0.000000     3.761068    68.710379
	  125 D(21,17,20,24)  =   -174.507297     0.000000     0.344135  -174.163162
	  126 D(21,17,20,25)  =    -54.603579     0.000000     1.097844   -53.505735
	  127 D(22,17,20,23)  =   -179.622414    -0.000001     0.001560  -179.620854
	  128 D(22,17,20,24)  =    -59.079022    -0.000001    -3.415373   -62.494396
	  129 D(22,17,20,25)  =     60.824695    -0.000000    -2.661664    58.163031
	 ---------------------------------------------------------------------------
	Successfully symmetrized geometry.

  ==> Convergence Check <==

  Measures of convergence in internal coordinates in au.
  Criteria marked as inactive (o), active & met (*), and active & unmet ( ).
  --------------------------------------------------------------------------------------------- ~
   Step     Total Energy     Delta E     MAX Force     RMS Force      MAX Disp      RMS Disp    ~
  --------------------------------------------------------------------------------------------- ~
    Convergence Criteria    1.00e-06 *    3.00e-04 *             o    1.20e-03 *             o  ~
  --------------------------------------------------------------------------------------------- ~
      1    -387.24875224   -3.87e+02      3.17e-02      5.36e-03 o    2.88e-01      7.57e-02 o  ~
  ---------------------------------------------------------------------------------------------

	Writing optimization data to binary file.
	Structure for next step:
	Cartesian Geometry (in Angstrom)
	    H    -3.1018321662  -0.2138605279  -1.9673846364
	    C    -3.4259909779  -0.5884385131  -0.9166862566
	    C    -2.5162888087  -1.7197939544  -0.2333146155
	    O    -4.4201810847  -0.1201026446  -0.4054244941
	    C    -0.9128788317  -1.3096779484  -0.2223438890
	    H    -2.8760535216  -1.9526303895   0.8184016344
	    H    -2.7167568817  -2.6680954022  -0.8406015377
	    C    -0.5179792691  -0.0650561885   0.7277416113
	    H    -0.3415443085  -2.2425884776   0.1140871999
	    H    -0.6150034647  -1.0525615905  -1.2956286559
	    C     1.0276581948   0.5763962762   0.8597094241
	    H    -0.8753357778  -0.3036029482   1.7844822900
	    H    -1.1702239650   0.7981608457   0.3582161705
	    C     2.3103429839  -0.3149919082   0.5878524281
	    H     1.1024641137   1.5035238237   0.1524577628
	    H     1.1784355471   0.9710622069   1.9094580413
	    C     3.7585256306   0.4606821538   0.8774454262
	    H     2.2605802400  -0.6591147882  -0.4886701264
	    H     2.2801268051  -1.2769635066   1.2581971181
	    C     4.0644690251   1.7330559396  -0.1210146707
	    H     4.5974225240  -0.2937191650   0.8051712869
	    H     3.8313360171   0.8064577235   1.9559392613
	    H     3.9926081554   1.4217133119  -1.2093230990
	    H     3.3152687291   2.5665698636  -0.0147655182
	    H     5.1332853941   2.1861412065   0.0964528177
			--------------------------
			 OPTKING Finished Execution 
			--------------------------

    Structure for next step:
    Molecular point group: c1
    Full point group: C1

    Geometry (in Angstrom), charge = 0, multiplicity = 1:

    H           -3.030600676911    -0.080644651016    -2.089858175883
    C           -3.354759488700    -0.455222636225    -1.039159796081
    C           -2.445057319468    -1.586578077456    -0.355788155023
    O           -4.348949595502     0.013113232289    -0.527898033594
    C           -0.841647342406    -1.176462071443    -0.344817428473
    H           -2.804822032360    -1.819414512634     0.695928094950
    H           -2.645525392470    -2.534879525339    -0.963075077170
    C           -0.446747779899     0.068159688402     0.605268071792
    H           -0.270312819266    -2.109372600712    -0.008386339625
    H           -0.543771975470    -0.919345713600    -1.418102195404
    C            1.098889684094     0.709612153086     0.737235884612
    H           -0.804104288580    -0.170387071319     1.662008750453
    H           -1.098992475754     0.931376722611     0.235742630976
    C            2.381574473097    -0.181776031243     0.465378888610
    H            1.173695602970     1.636739700564     0.029984223339
    H            1.249667036380     1.104278083760     1.786984501801
    C            3.829757119882     0.593898030679     0.754971886666
    H            2.331811729292    -0.525898911271    -0.611143665869
    H            2.351358294391    -1.143747629647     1.135723578623
    C            4.135700514338     1.866271816559    -0.243488210166
    H            4.668654013197    -0.160503288076     0.682697747386
    H            3.902567506356     0.939673600413     1.833465721798
    H            4.063839644624     1.554929188857    -1.331796638488
    H            3.386500218394     2.699785740514    -0.137239057711
    H            5.204516883342     2.319357083366    -0.026020721785

gradient() will perform analytic gradient computation.

*** tstart() called on cx1-27-2-1
*** at Sun Sep 11 04:07:18 2016


         ---------------------------------------------------------
                                   SCF
            by Justin Turney, Rob Parrish, and Andy Simmonett
                              RHF Reference
                        4 Threads,   2000 MiB Core
         ---------------------------------------------------------

  ==> Geometry <==

    Molecular point group: c1
    Full point group: C1

    Geometry (in Angstrom), charge = 0, multiplicity = 1:

       Center              X                  Y                   Z               Mass       
    ------------   -----------------  -----------------  -----------------  -----------------
           H         -3.030600676911    -0.080644651016    -2.089858175883     1.007825032070
           C         -3.354759488700    -0.455222636225    -1.039159796081    12.000000000000
           C         -2.445057319468    -1.586578077456    -0.355788155023    12.000000000000
           O         -4.348949595502     0.013113232289    -0.527898033594    15.994914619560
           C         -0.841647342406    -1.176462071443    -0.344817428473    12.000000000000
           H         -2.804822032360    -1.819414512634     0.695928094950     1.007825032070
           H         -2.645525392470    -2.534879525339    -0.963075077170     1.007825032070
           C         -0.446747779899     0.068159688402     0.605268071792    12.000000000000
           H         -0.270312819266    -2.109372600712    -0.008386339625     1.007825032070
           H         -0.543771975470    -0.919345713600    -1.418102195404     1.007825032070
           C          1.098889684094     0.709612153086     0.737235884612    12.000000000000
           H         -0.804104288580    -0.170387071319     1.662008750453     1.007825032070
           H         -1.098992475754     0.931376722611     0.235742630976     1.007825032070
           C          2.381574473097    -0.181776031243     0.465378888610    12.000000000000
           H          1.173695602970     1.636739700564     0.029984223339     1.007825032070
           H          1.249667036380     1.104278083760     1.786984501801     1.007825032070
           C          3.829757119882     0.593898030679     0.754971886666    12.000000000000
           H          2.331811729292    -0.525898911271    -0.611143665869     1.007825032070
           H          2.351358294391    -1.143747629647     1.135723578623     1.007825032070
           C          4.135700514338     1.866271816559    -0.243488210166    12.000000000000
           H          4.668654013197    -0.160503288076     0.682697747386     1.007825032070
           H          3.902567506356     0.939673600413     1.833465721798     1.007825032070
           H          4.063839644624     1.554929188857    -1.331796638488     1.007825032070
           H          3.386500218394     2.699785740514    -0.137239057711     1.007825032070
           H          5.204516883342     2.319357083366    -0.026020721785     1.007825032070

  Running in c1 symmetry.

  Rotational constants: A =      0.13433  B =      0.01365  C =      0.01318 [cm^-1]
  Rotational constants: A =   4026.98475  B =    409.29629  C =    395.19056 [MHz]
  Nuclear repulsion =  413.635882332591393

  Charge       = 0
  Multiplicity = 1
  Electrons    = 72
  Nalpha       = 36
  Nbeta        = 36

  ==> Algorithm <==

  SCF Algorithm Type is DF.
  DIIS enabled.
  MOM disabled.
  Fractional occupation disabled.
  Guess Type is READ.
  Energy threshold   = 1.00e-08
  Density threshold  = 1.00e-08
  Integral threshold = 0.00e+00

  ==> Primary Basis <==

  Basis Set: CC-PVTZ
    Number of shells: 186
    Number of basis function: 494
    Number of Cartesian functions: 555
    Spherical Harmonics?: true
    Max angular momentum: 3

  ==> Pre-Iterations <==

   -------------------------------------------------------
    Irrep   Nso     Nmo     Nalpha   Nbeta   Ndocc  Nsocc
   -------------------------------------------------------
     A        494     494       0       0       0       0
   -------------------------------------------------------
    Total     494     494      36      36      36       0
   -------------------------------------------------------

  ==> Integral Setup <==

  ==> DFJK: Density-Fitted J/K Matrices <==

    J tasked:                  Yes
    K tasked:                  Yes
    wK tasked:                  No
    OpenMP threads:              4
    Integrals threads:           4
    Memory (MB):              1430
    Algorithm:                Core
    Integral Cache:           NONE
    Schwarz Cutoff:          1E-12
    Fitting Condition:       1E-12

   => Auxiliary Basis Set <=

  Basis Set: 
    Number of shells: 385
    Number of basis function: 1191
    Number of Cartesian functions: 1424
    Spherical Harmonics?: true
    Max angular momentum: 4

  Minimum eigenvalue in the overlap matrix is 4.4022423412E-04.
  Using Symmetric Orthogonalization.
  SCF Guess: Reading in previously saved MOs, projecting if necessary.

  Using orbitals from previous SCF, no projection.
  Recomputing DOCC and SOCC from number of alpha and beta electrons from previous calculation.
              A 
    DOCC [    36 ]

  ==> Iterations <==

                           Total Energy        Delta E     RMS |[F,P]|

   @DF-RHF iter   0:  -385.50454214824452   -3.85505e+02   2.04475e-03 
   @DF-RHF iter   1:  -387.05068955347218   -1.54615e+00   7.74595e-04 
   @DF-RHF iter   2:  -387.13896779487703   -8.82782e-02   3.94366e-04 DIIS
   @DF-RHF iter   3:  -387.15921603852331   -2.02482e-02   8.73105e-05 DIIS
   @DF-RHF iter   4:  -387.16137525231142   -2.15921e-03   5.00421e-05 DIIS
   @DF-RHF iter   5:  -387.16187931626627   -5.04064e-04   1.78980e-05 DIIS
   @DF-RHF iter   6:  -387.16209203530622   -2.12719e-04   9.20780e-06 DIIS
   @DF-RHF iter   7:  -387.16216194891439   -6.99136e-05   3.91194e-06 DIIS
   @DF-RHF iter   8:  -387.16217344043042   -1.14915e-05   1.20630e-06 DIIS
   @DF-RHF iter   9:  -387.16217426899362   -8.28563e-07   4.68063e-07 DIIS
   @DF-RHF iter  10:  -387.16217436934966   -1.00356e-07   1.66219e-07 DIIS
   @DF-RHF iter  11:  -387.16217438155235   -1.22027e-08   4.95841e-08 DIIS
   @DF-RHF iter  12:  -387.16217438254768   -9.95328e-10   1.65041e-08 DIIS
   @DF-RHF iter  13:  -387.16217438264715   -9.94760e-11   5.13835e-09 DIIS

  ==> Post-Iterations <==

    Orbital Energies (a.u.)
    -----------------------

    Doubly Occupied:                                                      

       1A    -20.559300     2A    -11.345163     3A    -11.271757  
       4A    -11.269629     5A    -11.259898     6A    -11.256439  
       7A    -11.255717     8A    -11.254257     9A    -11.245435  
      10A     -1.389710    11A     -1.051269    12A     -1.024152  
      13A     -0.972134    14A     -0.920581    15A     -0.858535  
      16A     -0.809865    17A     -0.778871    18A     -0.751434  
      19A     -0.651202    20A     -0.633197    21A     -0.607556  
      22A     -0.591576    23A     -0.578202    24A     -0.568271  
      25A     -0.562433    26A     -0.529446    27A     -0.523872  
      28A     -0.512741    29A     -0.501158    30A     -0.490885  
      31A     -0.477614    32A     -0.471244    33A     -0.453681  
      34A     -0.445842    35A     -0.432145    36A     -0.407712  

    Virtual:                                                              

      37A      0.120069    38A      0.136330    39A      0.146995  
      40A      0.151126    41A      0.157326    42A      0.164067  
      43A      0.171183    44A      0.191536    45A      0.195010  
      46A      0.206112    47A      0.211339    48A      0.216764  
      49A      0.227345    50A      0.241905    51A      0.247023  
      52A      0.253357    53A      0.257228    54A      0.287009  
      55A      0.303948    56A      0.309560    57A      0.317689  
      58A      0.330454    59A      0.346233    60A      0.351208  
      61A      0.373417    62A      0.392574    63A      0.396455  
      64A      0.407988    65A      0.415185    66A      0.429338  
      67A      0.432171    68A      0.446997    69A      0.449819  
      70A      0.458648    71A      0.496217    72A      0.505094  
      73A      0.536365    74A      0.549973    75A      0.550798  
      76A      0.559791    77A      0.570601    78A      0.580783  
      79A      0.584542    80A      0.589625    81A      0.594313  
      82A      0.599014    83A      0.601882    84A      0.608420  
      85A      0.612632    86A      0.616473    87A      0.620859  
      88A      0.624507    89A      0.629463    90A      0.637442  
      91A      0.639678    92A      0.643291    93A      0.648686  
      94A      0.653932    95A      0.660832    96A      0.670367  
      97A      0.673393    98A      0.684832    99A      0.692437  
     100A      0.716269   101A      0.721616   102A      0.749186  
     103A      0.762961   104A      0.776698   105A      0.789020  
     106A      0.822792   107A      0.835619   108A      0.846231  
     109A      0.856139   110A      0.880266   111A      0.898440  
     112A      0.901445   113A      0.924439   114A      0.931068  
     115A      0.943930   116A      0.950077   117A      0.960869  
     118A      0.980856   119A      0.986039   120A      1.011614  
     121A      1.020265   122A      1.029698   123A      1.050840  
     124A      1.058857   125A      1.077295   126A      1.095469  
     127A      1.108892   128A      1.120658   129A      1.142911  
     130A      1.157233   131A      1.169900   132A      1.178622  
     133A      1.191418   134A      1.203328   135A      1.218681  
     136A      1.226276   137A      1.233315   138A      1.236712  
     139A      1.254135   140A      1.264224   141A      1.269272  
     142A      1.282742   143A      1.288997   144A      1.299694  
     145A      1.309681   146A      1.313631   147A      1.316555  
     148A      1.326708   149A      1.329353   150A      1.338938  
     151A      1.343826   152A      1.354721   153A      1.357596  
     154A      1.368951   155A      1.373274   156A      1.390667  
     157A      1.395909   158A      1.405807   159A      1.411047  
     160A      1.428496   161A      1.440113   162A      1.448719  
     163A      1.460350   164A      1.465398   165A      1.474586  
     166A      1.484095   167A      1.486878   168A      1.507520  
     169A      1.518423   170A      1.524769   171A      1.531923  
     172A      1.538900   173A      1.555569   174A      1.561154  
     175A      1.585900   176A      1.594642   177A      1.601981  
     178A      1.607035   179A      1.613570   180A      1.628888  
     181A      1.642771   182A      1.652197   183A      1.662864  
     184A      1.674181   185A      1.687356   186A      1.703151  
     187A      1.708033   188A      1.724307   189A      1.733472  
     190A      1.750529   191A      1.758381   192A      1.769484  
     193A      1.781011   194A      1.799106   195A      1.819791  
     196A      1.837285   197A      1.916021   198A      1.922680  
     199A      1.959386   200A      2.003099   201A      2.015380  
     202A      2.050419   203A      2.120702   204A      2.277467  
     205A      2.363357   206A      2.437638   207A      2.452230  
     208A      2.490340   209A      2.528412   210A      2.543058  
     211A      2.559219   212A      2.563205   213A      2.578059  
     214A      2.612100   215A      2.631631   216A      2.648852  
     217A      2.661657   218A      2.673587   219A      2.688674  
     220A      2.699859   221A      2.704830   222A      2.731931  
     223A      2.739318   224A      2.747599   225A      2.764379  
     226A      2.787575   227A      2.805987   228A      2.812100  
     229A      2.824537   230A      2.836298   231A      2.845530  
     232A      2.859601   233A      2.869610   234A      2.875347  
     235A      2.881651   236A      2.892250   237A      2.903669  
     238A      2.917577   239A      2.925500   240A      2.944750  
     241A      2.956790   242A      2.971914   243A      2.977764  
     244A      2.988648   245A      3.004672   246A      3.013878  
     247A      3.033604   248A      3.046384   249A      3.068385  
     250A      3.074727   251A      3.092044   252A      3.095788  
     253A      3.112862   254A      3.129481   255A      3.137365  
     256A      3.172441   257A      3.182718   258A      3.183926  
     259A      3.205479   260A      3.210052   261A      3.233819  
     262A      3.237831   263A      3.245052   264A      3.252293  
     265A      3.272651   266A      3.276222   267A      3.287499  
     268A      3.300522   269A      3.303226   270A      3.315259  
     271A      3.316693   272A      3.347082   273A      3.349309  
     274A      3.358717   275A      3.363464   276A      3.368103  
     277A      3.375078   278A      3.387748   279A      3.388671  
     280A      3.401028   281A      3.409737   282A      3.428698  
     283A      3.431778   284A      3.437562   285A      3.447401  
     286A      3.458773   287A      3.462127   288A      3.464119  
     289A      3.473588   290A      3.479978   291A      3.484728  
     292A      3.498964   293A      3.510879   294A      3.523768  
     295A      3.532451   296A      3.538224   297A      3.542114  
     298A      3.548120   299A      3.567184   300A      3.582989  
     301A      3.594843   302A      3.609204   303A      3.623569  
     304A      3.624207   305A      3.631761   306A      3.645567  
     307A      3.662878   308A      3.683298   309A      3.688173  
     310A      3.695233   311A      3.715194   312A      3.722370  
     313A      3.738325   314A      3.752704   315A      3.755712  
     316A      3.767303   317A      3.772673   318A      3.787330  
     319A      3.797636   320A      3.806988   321A      3.819248  
     322A      3.830945   323A      3.844808   324A      3.852132  
     325A      3.866377   326A      3.883597   327A      3.910491  
     328A      3.915030   329A      3.932575   330A      3.941004  
     331A      3.947401   332A      3.960862   333A      3.964038  
     334A      3.971853   335A      3.987575   336A      3.998621  
     337A      4.009289   338A      4.020160   339A      4.026727  
     340A      4.038468   341A      4.058696   342A      4.064652  
     343A      4.068836   344A      4.076429   345A      4.092804  
     346A      4.096043   347A      4.114188   348A      4.128999  
     349A      4.143194   350A      4.152165   351A      4.171814  
     352A      4.173194   353A      4.177671   354A      4.185505  
     355A      4.207165   356A      4.221658   357A      4.228156  
     358A      4.236030   359A      4.245675   360A      4.256666  
     361A      4.265971   362A      4.277517   363A      4.283110  
     364A      4.289750   365A      4.298273   366A      4.304044  
     367A      4.310279   368A      4.326512   369A      4.341603  
     370A      4.353953   371A      4.360591   372A      4.369763  
     373A      4.374123   374A      4.389352   375A      4.399510  
     376A      4.411722   377A      4.430883   378A      4.444590  
     379A      4.465063   380A      4.467074   381A      4.479910  
     382A      4.483674   383A      4.493067   384A      4.517702  
     385A      4.520657   386A      4.527394   387A      4.537566  
     388A      4.542250   389A      4.548303   390A      4.572514  
     391A      4.580737   392A      4.592975   393A      4.611031  
     394A      4.617344   395A      4.632174   396A      4.649766  
     397A      4.663914   398A      4.724949   399A      4.729130  
     400A      4.735811   401A      4.743068   402A      4.778962  
     403A      4.790005   404A      4.828952   405A      4.831448  
     406A      4.853817   407A      4.871966   408A      4.881521  
     409A      4.903466   410A      4.925726   411A      4.948054  
     412A      4.962963   413A      4.986247   414A      4.998643  
     415A      5.001761   416A      5.010513   417A      5.029580  
     418A      5.038564   419A      5.042852   420A      5.069719  
     421A      5.082558   422A      5.089909   423A      5.098144  
     424A      5.107846   425A      5.134412   426A      5.141211  
     427A      5.157405   428A      5.167568   429A      5.180780  
     430A      5.202467   431A      5.213716   432A      5.225997  
     433A      5.230012   434A      5.259635   435A      5.275995  
     436A      5.287444   437A      5.301619   438A      5.326305  
     439A      5.343467   440A      5.352928   441A      5.360550  
     442A      5.406294   443A      5.436719   444A      5.448942  
     445A      5.455357   446A      5.462389   447A      5.498430  
     448A      5.522386   449A      5.539590   450A      5.572449  
     451A      5.576085   452A      5.585367   453A      5.610876  
     454A      5.616867   455A      5.629531   456A      5.637220  
     457A      5.657033   458A      5.661701   459A      5.664153  
     460A      5.684500   461A      5.695890   462A      5.715657  
     463A      5.745770   464A      5.765033   465A      5.806419  
     466A      5.813375   467A      5.882505   468A      6.049323  
     469A      6.194756   470A      6.203208   471A      6.210461  
     472A      6.235470   473A      6.268082   474A      6.294207  
     475A      6.326342   476A      6.353433   477A      6.438141  
     478A      6.650096   479A      6.678170   480A      6.888492  
     481A      6.942739   482A      7.122658   483A      7.343123  
     484A      7.494325   485A      7.547869   486A      9.923547  
     487A     11.311253   488A     11.687785   489A     11.739851  
     490A     11.824196   491A     12.005762   492A     12.146557  
     493A     12.572341   494A     13.263842  

    Final Occupation by Irrep:
              A 
    DOCC [    36 ]

  Energy converged.

  @DF-RHF Final Energy:  -387.16217438264715

   => Energetics <=

    Nuclear Repulsion Energy =            413.6358823325913932
    One-Electron Energy =               -1344.1702659380309797
    Two-Electron Energy =                 543.3722092227926623
    DFT Exchange-Correlation Energy =       0.0000000000000000
    Empirical Dispersion Energy =           0.0000000000000000
    PCM Polarization Energy =               0.0000000000000000
    EFP Energy =                            0.0000000000000000
    Total Energy =                       -387.1621743826469810


  Saving occupied orbitals to File 180.

*** tstop() called on cx1-27-2-1 at Sun Sep 11 04:07:39 2016
Module time:
	user time   =      77.19 seconds =       1.29 minutes
	system time =       1.22 seconds =       0.02 minutes
	total time  =         21 seconds =       0.35 minutes
Total time:
	user time   =     243.40 seconds =       4.06 minutes
	system time =       3.76 seconds =       0.06 minutes
	total time  =         67 seconds =       1.12 minutes


Properties will be evaluated at   0.000000,   0.000000,   0.000000 Bohr

Properties computed using the SCF density matrix

  Nuclear Dipole Moment: (a.u.)
     X:    16.0422      Y:     1.6143      Z:     1.3820

  Electronic Dipole Moment: (a.u.)
     X:   -14.9190      Y:    -2.1318      Z:    -1.6549

  Dipole Moment: (a.u.)
     X:     1.1232      Y:    -0.5175      Z:    -0.2729     Total:     1.2664

  Dipole Moment: (Debye)
     X:     2.8549      Y:    -1.3153      Z:    -0.6937     Total:     3.2190


*** tstart() called on cx1-27-2-1
*** at Sun Sep 11 04:07:39 2016


         ------------------------------------------------------------
                                   SCF GRAD                          
                          Rob Parrish, Justin Turney,                
                       Andy Simmonett, and Alex Sokolov              
         ------------------------------------------------------------

  ==> Geometry <==

    Molecular point group: c1
    Full point group: C1

    Geometry (in Angstrom), charge = 0, multiplicity = 1:

       Center              X                  Y                   Z               Mass       
    ------------   -----------------  -----------------  -----------------  -----------------
           H         -3.030600676911    -0.080644651016    -2.089858175883     1.007825032070
           C         -3.354759488700    -0.455222636225    -1.039159796081    12.000000000000
           C         -2.445057319468    -1.586578077456    -0.355788155023    12.000000000000
           O         -4.348949595502     0.013113232289    -0.527898033594    15.994914619560
           C         -0.841647342406    -1.176462071443    -0.344817428473    12.000000000000
           H         -2.804822032360    -1.819414512634     0.695928094950     1.007825032070
           H         -2.645525392470    -2.534879525339    -0.963075077170     1.007825032070
           C         -0.446747779899     0.068159688402     0.605268071792    12.000000000000
           H         -0.270312819266    -2.109372600712    -0.008386339625     1.007825032070
           H         -0.543771975470    -0.919345713600    -1.418102195404     1.007825032070
           C          1.098889684094     0.709612153086     0.737235884612    12.000000000000
           H         -0.804104288580    -0.170387071319     1.662008750453     1.007825032070
           H         -1.098992475754     0.931376722611     0.235742630976     1.007825032070
           C          2.381574473097    -0.181776031243     0.465378888610    12.000000000000
           H          1.173695602970     1.636739700564     0.029984223339     1.007825032070
           H          1.249667036380     1.104278083760     1.786984501801     1.007825032070
           C          3.829757119882     0.593898030679     0.754971886666    12.000000000000
           H          2.331811729292    -0.525898911271    -0.611143665869     1.007825032070
           H          2.351358294391    -1.143747629647     1.135723578623     1.007825032070
           C          4.135700514338     1.866271816559    -0.243488210166    12.000000000000
           H          4.668654013197    -0.160503288076     0.682697747386     1.007825032070
           H          3.902567506356     0.939673600413     1.833465721798     1.007825032070
           H          4.063839644624     1.554929188857    -1.331796638488     1.007825032070
           H          3.386500218394     2.699785740514    -0.137239057711     1.007825032070
           H          5.204516883342     2.319357083366    -0.026020721785     1.007825032070

  Nuclear repulsion =  413.635882332591393

  ==> Basis Set <==

  Basis Set: CC-PVTZ
    Number of shells: 186
    Number of basis function: 494
    Number of Cartesian functions: 555
    Spherical Harmonics?: true
    Max angular momentum: 3

  ==> DFJKGrad: Density-Fitted SCF Gradients <==

    Gradient:                    1
    J tasked:                  Yes
    K tasked:                  Yes
    wK tasked:                  No
    OpenMP threads:              4
    Integrals threads:           4
    Memory (MB):              1430
    Schwarz Cutoff:          0E+00
    Fitting Condition:       1E-12

   => Auxiliary Basis Set <=

  Basis Set: 
    Number of shells: 385
    Number of basis function: 1191
    Number of Cartesian functions: 1424
    Spherical Harmonics?: true
    Max angular momentum: 4


  -Total Gradient:
     Atom            X                  Y                   Z
    ------   -----------------  -----------------  -----------------
       1        0.006907612505     0.015397461958    -0.033961787319
       2        0.018364592385    -0.007047930266    -0.019876227073
       3       -0.004625444980    -0.013758582171     0.002261405388
       4       -0.051600438405     0.025130079562     0.026300275022
       5       -0.005668375502     0.009142416605     0.005605662015
       6       -0.007725274294    -0.013640167026     0.030954071311
       7       -0.015039317007    -0.028940098578    -0.015133493917
       8        0.012788502275    -0.013333532442    -0.007679997815
       9        0.017202565350    -0.029891320718     0.014781536655
      10        0.006984538669     0.011896242011    -0.032553707351
      11       -0.002696958768    -0.012908815780     0.010844697383
      12       -0.011490425701    -0.006182555451     0.031981079370
      13       -0.020993680943     0.023524583952    -0.016091677867
      14       -0.009035451687     0.012315364703    -0.007057988219
      15        0.006627394667     0.038251211791    -0.027903780996
      16        0.015066899123     0.008325519830     0.026769141914
      17        0.010232982607    -0.005385914309     0.008388949127
      18       -0.008170903965    -0.006933530552    -0.027858560343
      19       -0.002022378001    -0.039647025058     0.026946263666
      20       -0.010617113639     0.006898157561    -0.008433753952
      21        0.023650742266    -0.018249049914     0.006238180879
      22        0.010223369887     0.006254470276     0.029478288218
[...]
	 D(22,17,20,25)   =         1.071850	      61.412503

	Current energy   :      -387.2526813095

	Energy change for the previous step:
		Projected    :         0.0000008933
		Actual       :         0.0000003113

	Performing BFGS update.
	Previous computed or guess Hessian on step 1.
	Steps to be used in Hessian update: 10 9
	Taking RFO optimization step.
	Going to follow RFO solution 1.
	Rejecting RFO root 1 because normalization gives large value.
	Using RFO vector 2.
	Norm of target step-size    0.01872
	Projected energy change by RFO approximation:         0.0000003425

	Back-transformation to cartesian coordinates...
	Could not converge backtransformation.
	Using first guess instead.

	Back-transformation to cartesian coordinates to adjust frozen coordinates...
	Successfully converged to displaced geometry.

	--- Internal Coordinate Step in ANG or DEG, aJ/ANG or AJ/DEG ---
	 ---------------------------------------------------------------------------
	   Coordinate                Previous        Force       Change         New 
	   ----------                --------       ------       ------       ------
	    1 R(1,2)          =      1.098647     0.000014    -0.000012     1.098634
	    2 R(2,3)          =      1.504691     0.000174     0.000011     1.504703
	    3 R(2,4)          =      1.182074    -0.000083    -0.000023     1.182051
	    4 R(3,5)          =      1.531713     0.000206     0.000022     1.531734
	    5 R(3,6)          =      1.082308     0.000072    -0.000001     1.082306
	    6 R(3,7)          =      1.087866     0.000144     0.000004     1.087869
	    7 R(5,8)          =      1.527053     0.000758     0.000074     1.527128
	    8 R(5,9)          =      1.082165     0.000352     0.000031     1.082195
	    9 R(5,10)         =      1.086919     0.000238     0.000027     1.086946
	   10 R(8,11)         =      1.544917    -0.000191     0.000000     1.544917
	   11 R(8,12)         =      1.085980     0.000197     0.000014     1.085994
	   12 R(8,13)         =      1.086730     0.000101     0.000011     1.086742
	   13 R(11,14)        =      1.529720     0.000520     0.000061     1.529781
	   14 R(11,15)        =      1.084428     0.000325     0.000023     1.084451
	   15 R(11,16)        =      1.084968     0.000130     0.000011     1.084979
	   16 R(14,17)        =      1.530686     0.000042     0.000005     1.530691
	   17 R(14,18)        =      1.085365     0.000303     0.000026     1.085391
	   18 R(14,19)        =      1.086740     0.000199     0.000013     1.086753
	   19 R(17,20)        =      1.526949     0.000236     0.000008     1.526957
	   20 R(17,21)        =      1.085625     0.000092    -0.000000     1.085624
	   21 R(17,22)        =      1.086667     0.000125    -0.000003     1.086664
	   22 R(20,23)        =      1.085476     0.000038    -0.000010     1.085466
	   23 R(20,24)        =      1.083037     0.000389     0.000019     1.083057
	   24 R(20,25)        =      1.083884     0.000239     0.000019     1.083903
	   25 B(1,2,3)        =    114.923081    -0.000002    -0.004632   114.918449
	   26 B(1,2,4)        =    120.004732     0.000003     0.008283   120.013014
	   27 B(2,3,5)        =    112.988178     0.000002     0.002319   112.990497
	   28 B(2,3,6)        =    108.559475    -0.000000     0.001678   108.561154
	   29 B(2,3,7)        =    106.440367    -0.000000    -0.000309   106.440058
	   30 B(3,2,4)        =    125.067594    -0.000002    -0.003622   125.063972
	   31 B(3,5,8)        =    112.682123     0.000001    -0.002595   112.679528
	   32 B(3,5,9)        =    108.187159    -0.000002    -0.006815   108.180343
	   33 B(3,5,10)       =    109.099597    -0.000000     0.000114   109.099710
	   34 B(5,3,6)        =    111.659746    -0.000000     0.000757   111.660503
	   35 B(5,3,7)        =    109.107082    -0.000001    -0.002584   109.104498
	   36 B(5,8,11)       =    117.043809     0.000002     0.006060   117.049869
	   37 B(5,8,12)       =    109.983810     0.000000     0.007238   109.991048
	   38 B(5,8,13)       =    108.311442     0.000002     0.005556   108.316998
	   39 B(6,3,7)        =    107.833531     0.000000    -0.002124   107.831406
	   40 B(8,5,9)        =    110.458708     0.000001     0.002328   110.461037
	   41 B(8,5,10)       =    109.959235     0.000001     0.005080   109.964314
	   42 B(8,11,14)      =    116.500573     0.000003     0.006498   116.507071
	   43 B(8,11,15)      =    108.126430    -0.000002    -0.006421   108.120009
	   44 B(8,11,16)      =    108.581201    -0.000002    -0.009191   108.572009
	   45 B(9,5,10)       =    106.229613     0.000000     0.001971   106.231585
	   46 B(11,8,12)      =    109.678301    -0.000002    -0.009491   109.668810
	   47 B(11,8,13)      =    107.307278    -0.000003    -0.011249   107.296029
	   48 B(11,14,17)     =    113.988573    -0.000007    -0.009233   113.979340
	   49 B(11,14,18)     =    109.913863     0.000003     0.005445   109.919308
	   50 B(11,14,19)     =    109.439186     0.000002     0.004739   109.443925
	   51 B(12,8,13)      =    103.624866     0.000001     0.001098   103.625964
	   52 B(14,11,15)     =    108.057244     0.000001     0.005364   108.062608
	   53 B(14,11,16)     =    109.180246     0.000000     0.004495   109.184741
	   54 B(14,17,20)     =    114.863504    -0.000004    -0.004434   114.859070
	   55 B(14,17,21)     =    108.269227     0.000001     0.000741   108.269968
	   56 B(14,17,22)     =    109.264951     0.000002     0.001267   109.266219
	   57 B(15,11,16)     =    105.883194     0.000000    -0.001448   105.881746
	   58 B(17,14,18)     =    108.853260     0.000001    -0.000473   108.852787
	   59 B(17,14,19)     =    108.029757     0.000002    -0.001417   108.028340
	   60 B(17,20,23)     =    111.035186    -0.000001    -0.001149   111.034036
	   61 B(17,20,24)     =    112.112064     0.000000    -0.000774   112.111290
	   62 B(17,20,25)     =    110.665975     0.000000     0.000375   110.666350
	   63 B(18,14,19)     =    106.319264    -0.000001     0.001519   106.320783
	   64 B(20,17,21)     =    108.574822     0.000002     0.004477   108.579299
	   65 B(20,17,22)     =    109.363459     0.000000    -0.000592   109.362867
	   66 B(21,17,22)     =    106.141137    -0.000001    -0.001213   106.139924
	   67 B(23,20,24)     =    107.790248    -0.000000    -0.002165   107.788083
	   68 B(23,20,25)     =    107.637266     0.000000     0.001553   107.638818
	   69 B(24,20,25)     =    107.406438     0.000000     0.002303   107.408741
	   70 D(1,2,3,5)      =     50.412091    -0.000000    -0.013673    50.398419
	   71 D(1,2,3,6)      =    174.839695     0.000000    -0.009827   174.829868
	   72 D(1,2,3,7)      =    -69.317853    -0.000000    -0.011635   -69.329488
	   73 D(2,3,5,8)      =     67.264830     0.000000     0.296768    67.561599
	   74 D(2,3,5,9)      =   -170.319257     0.000000     0.293222  -170.026034
	   75 D(2,3,5,10)     =    -55.163214     0.000000     0.291953   -54.871261
	   76 D(3,5,8,11)     =   -177.670492    -0.000000    -0.064796  -177.735288
	   77 D(3,5,8,12)     =     56.318522    -0.000000    -0.063051    56.255472
	   78 D(3,5,8,13)     =    -56.286239    -0.000001    -0.070993   -56.357232
	   79 D(4,2,3,5)      =   -130.371493    -0.000000    -0.011195  -130.382688
	   80 D(4,2,3,6)      =     -5.943889     0.000000    -0.007350    -5.951238
	   81 D(4,2,3,7)      =    109.898563     0.000000    -0.009157   109.889406
	   82 D(5,8,11,14)    =    -26.162161    -0.000000    -0.006509   -26.168669
	   83 D(5,8,11,15)    =     95.685722     0.000000    -0.000008    95.685714
	   84 D(5,8,11,16)    =   -149.867088    -0.000000    -0.009741  -149.876829
	   85 D(6,3,5,8)      =    -55.452186     0.000000     0.292256   -55.159930
	   86 D(6,3,5,9)      =     66.963727     0.000000     0.288710    67.252437
	   87 D(6,3,5,10)     =   -177.880231    -0.000000     0.287441  -177.592790
	   88 D(7,3,5,8)      =   -174.550289     0.000000     0.296097  -174.254193
	   89 D(7,3,5,9)      =    -52.134376     0.000000     0.292551   -51.841826
	   90 D(7,3,5,10)     =     63.021666     0.000000     0.291281    63.312947
	   91 D(8,11,14,17)   =   -175.406719    -0.000000    -0.121067  -175.527787
	   92 D(8,11,14,18)   =     62.086787     0.000000    -0.117995    61.968792
	   93 D(8,11,14,19)   =    -54.322427    -0.000000    -0.125705   -54.448133
	   94 D(9,5,8,11)     =     61.199702     0.000000    -0.055921    61.143781
	   95 D(9,5,8,12)     =    -64.811283     0.000000    -0.054176   -64.865459
	   96 D(9,5,8,13)     =   -177.416044    -0.000000    -0.062119  -177.478163
	   97 D(10,5,8,11)    =    -55.726910    -0.000000    -0.062785   -55.789695
	   98 D(10,5,8,12)    =    178.262105     0.000000    -0.061040   178.201065
	   99 D(10,5,8,13)    =     65.657344    -0.000000    -0.068982    65.588362
	  100 D(11,14,17,20)  =    -66.253683     0.000000     0.145167   -66.108516
	  101 D(11,14,17,21)  =    172.232612     0.000000     0.141813   172.374425
	  102 D(11,14,17,22)  =     57.049777     0.000000     0.142177    57.191954
	  103 *D(12,8,11,14)  =     99.999990    -0.000000    -0.000000    99.999990
	  104 D(12,8,11,15)   =   -138.152127     0.000000     0.006500  -138.145627
	  105 D(12,8,11,16)   =    -23.704938    -0.000000    -0.003232   -23.708170
	  106 D(13,8,11,14)   =   -148.069834    -0.000000    -0.009019  -148.078853
	  107 D(13,8,11,15)   =    -26.221951    -0.000000    -0.002518   -26.224469
	  108 D(13,8,11,16)   =     88.225239    -0.000000    -0.012251    88.212988
	  109 D(14,17,20,23)  =    -55.864334    -0.000000    -0.049472   -55.913806
	  110 D(14,17,20,24)  =     64.772005    -0.000000    -0.053580    64.718425
	  111 D(14,17,20,25)  =   -175.336641    -0.000000    -0.050917  -175.387558
	  112 D(15,11,14,17)  =     62.709037    -0.000000    -0.121369    62.587668
	  113 D(15,11,14,18)  =    -59.797457     0.000000    -0.118296   -59.915753
	  114 D(15,11,14,19)  =   -176.206671    -0.000000    -0.126007  -176.332678
	  115 D(16,11,14,17)  =    -52.010733    -0.000000    -0.124855   -52.135588
	  116 D(16,11,14,18)  =   -174.517227    -0.000000    -0.121782  -174.639009
	  117 D(16,11,14,19)  =     69.073559    -0.000000    -0.129492    68.944066
	  118 D(18,14,17,20)  =     56.831933     0.000000     0.145438    56.977372
	  119 D(18,14,17,21)  =    -64.681772     0.000000     0.142084   -64.539688
	  120 D(18,14,17,22)  =   -179.864607     0.000000     0.142448  -179.722158
	  121 D(19,14,17,20)  =    171.881182     0.000000     0.146231   172.027413
	  122 D(19,14,17,21)  =     50.367477     0.000000     0.142877    50.510354
	  123 D(19,14,17,22)  =    -64.815358     0.000000     0.143241   -64.672117
	  124 D(21,17,20,23)  =     65.482814    -0.000000    -0.048165    65.434649
	  125 D(21,17,20,24)  =   -173.880848    -0.000000    -0.052272  -173.933120
	  126 D(21,17,20,25)  =    -53.989494    -0.000000    -0.049609   -54.039103
	  127 D(22,17,20,23)  =   -179.115190     0.000000    -0.047469  -179.162659
	  128 D(22,17,20,24)  =    -58.478851    -0.000000    -0.051577   -58.530428
	  129 D(22,17,20,25)  =     61.412503    -0.000000    -0.048914    61.363589
	 ---------------------------------------------------------------------------
	Successfully symmetrized geometry.

  ==> Convergence Check <==

  Measures of convergence in internal coordinates in au.
  Criteria marked as inactive (o), active & met (*), and active & unmet ( ).
  ---------------------------------------------------------------------------------------------
   Step     Total Energy     Delta E     MAX Force     RMS Force      MAX Disp      RMS Disp   
  ---------------------------------------------------------------------------------------------
    Convergence Criteria    1.00e-06 *    3.00e-04 *             o    1.20e-03 *             o
  ---------------------------------------------------------------------------------------------
     11    -387.25268131    3.11e-07 *    9.20e-05 *    2.23e-05 o    5.18e-03      1.65e-03 o  ~
  ---------------------------------------------------------------------------------------------


  **** Optimization is complete! (in 11 steps) ****

  ==> Optimization Summary <==

  Measures of convergence in internal coordinates in au.
  --------------------------------------------------------------------------------------------------------------- ~
   Step         Total Energy             Delta E       MAX Force       RMS Force        MAX Disp        RMS Disp  ~
  --------------------------------------------------------------------------------------------------------------- ~
      1    -387.248752242348   -387.248752242348      0.03171573      0.00535794      0.28778573      0.07574426  ~
      2    -387.162174382647      0.086577859701      0.06312802      0.01950303      0.16635995      0.04402278  ~
      3    -387.239128178952     -0.076953796305      0.03289354      0.00778794      0.09886553      0.02577631  ~
      4    -387.251843680308     -0.012715501355      0.01046738      0.00178662      0.03953745      0.01116783  ~
      5    -387.252618994243     -0.000775313936      0.00349133      0.00057163      0.06332404      0.01629962  ~
      6    -387.252103521172      0.000515473072      0.00361021      0.00082092      0.05986391      0.01261257  ~
      7    -387.252662823449     -0.000559302278      0.00066345      0.00017876      0.03496546      0.01324131  ~
      8    -387.252662767222      0.000000056227      0.00079777      0.00015528      0.02688703      0.00897907  ~
      9    -387.252677635843     -0.000014868620      0.00044160      0.00010463      0.01006684      0.00356074  ~
     10    -387.252681620843     -0.000003985000      0.00015268      0.00002491      0.00695090      0.00227589  ~
     11    -387.252681309497      0.000000311346      0.00009196      0.00002232      0.00517959      0.00164851  ~
  --------------------------------------------------------------------------------------------------------------- ~

	Writing optimization data to binary file.
	Final energy is   -387.2526813094972
	Final (previous) structure:
	Cartesian Geometry (in Angstrom)
	    H    -2.6522953014  -0.2178928925  -2.0148865132
	    C    -3.0101813705  -0.5594403227  -1.0339238415
	    C    -2.0920896305  -1.5154270739  -0.3216785537
	    O    -4.0524741830  -0.1841763252  -0.6214899955
	    C    -0.6461353145  -1.0151608803  -0.2503114857
	    H    -2.4959248762  -1.7117826743   0.6630809490
	    H    -2.1196021578  -2.4458861260  -0.8846531447
	    C    -0.4930907220   0.2190371342   0.6358170926
	    H    -0.0268468384  -1.8232792075   0.1164402864
	    H    -0.2956156808  -0.7959543482  -1.2555369164
	    C     0.9171896164   0.8419427967   0.7351518386
	    H    -0.8714931018   0.0099077483   1.6320248516
	    H    -1.1620341879   0.9908948481   0.2646931032
	    C     2.0979488865  -0.0995733875   0.4914353449
	    H     0.9795124773   1.6521278067   0.0170286055
	    H     1.0238884626   1.3020642326   1.7119110524
	    C     3.4668000167   0.5488144226   0.7124314900
	    H     2.0550175866  -0.4923813956  -0.5194435822
	    H     2.0204286764  -0.9563155971   1.1555039285
	    C     3.8212800144   1.6542047565  -0.2795509333
	    H     4.2243766371  -0.2264018360   0.6516193531
	    H     3.5179320844   0.9424939108   1.7239881984
	    H     3.7634792871   1.2936220786  -1.3017534752
	    H     3.1605567843   2.5078663416  -0.1919331661
	    H     4.8321042205   2.0080914040  -0.1128081206
	Saving final (previous) structure.
			--------------------------
			 OPTKING Finished Execution 
			--------------------------

    Final optimized geometry and variables:
    Molecular point group: c1
    Full point group: C1

    Geometry (in Angstrom), charge = 0, multiplicity = 1:

    H           -2.652295301395    -0.217892892468    -2.014886513208
    C           -3.010181370548    -0.559440322740    -1.033923841506
    C           -2.092089630512    -1.515427073857    -0.321678553734
    O           -4.052474183010    -0.184176325158    -0.621489995503
    C           -0.646135314528    -1.015160880338    -0.250311485729
    H           -2.495924876187    -1.711782674338     0.663080949047
    H           -2.119602157814    -2.445886126013    -0.884653144693
    C           -0.493090721961     0.219037134230     0.635817092632
    H           -0.026846838353    -1.823279207486     0.116440286392
    H           -0.295615680846    -0.795954348181    -1.255536916421
    C            0.917189616439     0.841942796748     0.735151838575
    H           -0.871493101848     0.009907748301     1.632024851594
    H           -1.162034187888     0.990894848107     0.264693103212
    C            2.097948886531    -0.099573387471     0.491435344854
    H            0.979512477338     1.652127806656     0.017028605471
    H            1.023888462628     1.302064232648     1.711911052379
    C            3.466800016729     0.548814422606     0.712431490040
    H            2.055017586579    -0.492381395610    -0.519443582245
    H            2.020428676409    -0.956315597100     1.155503928467
    C            3.821280014412     1.654204756502    -0.279550933281
    H            4.224376637134    -0.226401836026     0.651619353102
    H            3.517932084351     0.942493910817     1.723988198380
    H            3.763479287087     1.293622078581    -1.301753475197
    H            3.160556784323     2.507866341575    -0.191933166106
    H            4.832104220479     2.008091404040    -0.112808120565

	Cleaning optimization helper files.


Properties will be evaluated at   0.000000,   0.000000,   0.000000 Bohr

Properties computed using the  density matrix

  Nuclear Dipole Moment: (a.u.)
     X:    14.9364      Y:     1.9089      Z:     1.5488

  Electronic Dipole Moment: (a.u.)
     X:   -13.7430      Y:    -2.3354      Z:    -1.7260

  Dipole Moment: (a.u.)
     X:     1.1935      Y:    -0.4265      Z:    -0.1772     Total:     1.2797

  Dipole Moment: (Debye)
     X:     3.0335      Y:    -1.0840      Z:    -0.4505     Total:     3.2527

  Quadrupole Moment: (Debye Ang)
    XX:   -77.6973     YY:   -57.0386     ZZ:   -56.4174
    XY:     2.3069     XZ:     0.5679     YZ:     1.1336

  Traceless Quadrupole Moment: (Debye Ang)
    XX:   -13.9795     YY:     6.6791     ZZ:     7.3004
    XY:     2.3069     XZ:     0.5679     YZ:     1.1336

  Mulliken Charges: (a.u.)
   Center  Symbol    Alpha    Beta     Spin     Total
       1     H     0.46391  0.46391  0.00000  0.07219
       2     C     2.90584  2.90584  0.00000  0.18833
       3     C     3.08779  3.08779  0.00000 -0.17557
       4     O     4.16619  4.16619  0.00000 -0.33237
       5     C     3.12286  3.12286  0.00000 -0.24571
       6     H     0.44274  0.44274  0.00000  0.11451
       7     H     0.43973  0.43973  0.00000  0.12054
       8     C     3.09667  3.09667  0.00000 -0.19334
       9     H     0.43824  0.43824  0.00000  0.12351
      10     H     0.44814  0.44814  0.00000  0.10371
      11     C     3.09912  3.09912  0.00000 -0.19824
      12     H     0.44682  0.44682  0.00000  0.10636
      13     H     0.44565  0.44565  0.00000  0.10869
      14     C     3.10058  3.10058  0.00000 -0.20116
      15     H     0.45045  0.45045  0.00000  0.09910
      16     H     0.44700  0.44700  0.00000  0.10600
      17     C     3.09070  3.09070  0.00000 -0.18139
      18     H     0.45057  0.45057  0.00000  0.09887
      19     H     0.44833  0.44833  0.00000  0.10334
      20     C     3.15301  3.15301  0.00000 -0.30602
      21     H     0.44783  0.44783  0.00000  0.10433
      22     H     0.45395  0.45395  0.00000  0.09209
      23     H     0.45544  0.45544  0.00000  0.08911
      24     H     0.45288  0.45288  0.00000  0.09424
      25     H     0.44556  0.44556  0.00000  0.10888

   Total alpha = 36.00000, Total beta = 36.00000, Total charge = -0.00000


*** Psi4 exiting successfully. Buy a developer a beer!
