    -----------------------------------------------------------------------
          Psi4: An Open-Source Ab Initio Electronic Structure Package
                              Psi4 1.0.54 Driver

                          Git: Rev {master} 8d4cec3 dirty

    J. M. Turney, A. C. Simmonett, R. M. Parrish, E. G. Hohenstein,
    F. A. Evangelista, J. T. Fermann, B. J. Mintz, L. A. Burns, J. J. Wilke,
    M. L. Abrams, N. J. Russ, M. L. Leininger, C. L. Janssen, E. T. Seidl,
    W. D. Allen, H. F. Schaefer, R. A. King, E. F. Valeev, C. D. Sherrill,
    and T. D. Crawford, WIREs Comput. Mol. Sci. 2, 556-565 (2012)
    (doi: 10.1002/wcms.93)

                         Additional Contributions by
    A. E. DePrince, U. Bozkaya, A. Yu. Sokolov, D. G. A. Smith, R. Di Remigio,
    R. M. Richard, J. F. Gonthier, H. R. McAlexander, M. Saitow, and
    B. P. Pritchard
    -----------------------------------------------------------------------


    Psi4 started on: Sat Sep 10 21:54:40 2016

    Process ID:  22271
    PSI4DATADIR: /export131/home/mjharvey/miniconda3/share/psi4
    Memory level set to 256.000 MB

  ==> Input File <==

--------------------------------------------------------------------------
set {
	reference rhf
	basis cc-pvtz
}


set_num_threads( 4 )
memory 2 gb

molecule MOL {
0 1

H	 3.721907	 -0.933076	 -0.066039
O	 2.824271	 -1.154299	 0.131461
C	 2.076458	 -0.067370	 -0.038225
C	 0.626018	 -0.337582	 0.258241
O	 2.538288	 0.965419	 -0.381593
C	 -0.267326	 0.883135	 0.076490
H	 0.325620	 -1.161483	 -0.378003
H	 0.574537	 -0.713685	 1.275261
C	 -1.726822	 0.642622	 0.463839
H	 -0.210803	 1.217591	 -0.953497
H	 0.129920	 1.693110	 0.675679
C	 -2.307382	 1.646921	 1.458009
H	 -1.800885	 -0.351479	 0.894574
H	 -2.342281	 0.628210	 -0.433071
C	 -3.728656	 1.296733	 1.886756
H	 -1.667267	 1.690735	 2.335145
H	 -2.305767	 2.643512	 1.028173
H	 -4.115813	 2.022421	 2.592568
H	 -3.765105	 0.321651	 2.360660
H	 -4.399716	 1.273921	 1.034516

	symmetry c1
}
set optking {
	frozen_dihedral = ("
		12 9 6 10
	")
}

ee,wfn = optimize('scf', return_wfn=True)
oeprop( wfn, 'DIPOLE', 'QUADRUPOLE', 'MULLIKEN_CHARGES')
f=open( 'psi4out.xyz', 'w' )
f.write( "20  " )
f.write( str(ee) + "\n" )
f.write( MOL.save_string_xyz() )
f.close()
--------------------------------------------------------------------------

  Memory set to   2.000 GiB by Python script.
gradient() will perform analytic gradient computation.

*** tstart() called on cx1-27-3-1
*** at Sat Sep 10 21:54:40 2016


         ---------------------------------------------------------
                                   SCF
            by Justin Turney, Rob Parrish, and Andy Simmonett
                              RHF Reference
                        4 Threads,   2000 MiB Core
         ---------------------------------------------------------

  ==> Geometry <==

    Molecular point group: c1
    Full point group: C1

    Geometry (in Angstrom), charge = 0, multiplicity = 1:

       Center              X                  Y                   Z               Mass       
    ------------   -----------------  -----------------  -----------------  -----------------
           H          3.671413882893    -1.399541114391    -0.545930197614     1.007825032070
           O          2.773777882893    -1.620764114391    -0.348430197614    15.994914619560
           C          2.025964882893    -0.533835114391    -0.518116197614    12.000000000000
           C          0.575524882893    -0.804047114391    -0.221650197614    12.000000000000
           O          2.487794882893     0.498953885609    -0.861484197614    15.994914619560
           C         -0.317819117107     0.416669885609    -0.403401197614    12.000000000000
           H          0.275126882893    -1.627948114391    -0.857894197614     1.007825032070
           H          0.524043882893    -1.180150114391     0.795369802386     1.007825032070
           C         -1.777315117107     0.176156885609    -0.016052197614    12.000000000000
           H         -0.261296117107     0.751125885609    -1.433388197614     1.007825032070
           H          0.079426882893     1.226644885609     0.195787802386     1.007825032070
           C         -2.357875117107     1.180455885609     0.978117802386    12.000000000000
           H         -1.851378117107    -0.817944114391     0.414682802386     1.007825032070
           H         -2.392774117107     0.161744885609    -0.912962197614     1.007825032070
           C         -3.779149117107     0.830267885609     1.406864802386    12.000000000000
           H         -1.717760117107     1.224269885609     1.855253802386     1.007825032070
           H         -2.356260117107     2.177046885609     0.548281802386     1.007825032070
           H         -4.166306117107     1.555955885609     2.112676802386     1.007825032070
           H         -3.815598117107    -0.144814114391     1.880768802386     1.007825032070
           H         -4.450209117107     0.807455885609     0.554624802386     1.007825032070

  Running in c1 symmetry.

  Rotational constants: A =      0.22114  B =      0.02235  C =      0.02130 [cm^-1]
  Rotational constants: A =   6629.61261  B =    670.00770  C =    638.42671 [MHz]
  Nuclear repulsion =  373.151880888736457

  Charge       = 0
  Multiplicity = 1
  Electrons    = 64
  Nalpha       = 32
  Nbeta        = 32

  ==> Algorithm <==

  SCF Algorithm Type is DF.
  DIIS enabled.
  MOM disabled.
  Fractional occupation disabled.
  Guess Type is SAD.
  Energy threshold   = 1.00e-08
  Density threshold  = 1.00e-08
  Integral threshold = 0.00e+00

  ==> Primary Basis <==

  Basis Set: CC-PVTZ
    Number of shells: 152
    Number of basis function: 408
    Number of Cartesian functions: 460
    Spherical Harmonics?: true
    Max angular momentum: 3

  ==> Pre-Iterations <==

   -------------------------------------------------------
    Irrep   Nso     Nmo     Nalpha   Nbeta   Ndocc  Nsocc
   -------------------------------------------------------
     A        408     408       0       0       0       0
   -------------------------------------------------------
    Total     408     408      32      32      32       0
   -------------------------------------------------------

  ==> Integral Setup <==

  ==> DFJK: Density-Fitted J/K Matrices <==

    J tasked:                  Yes
    K tasked:                  Yes
    wK tasked:                  No
    OpenMP threads:              4
    Integrals threads:           4
    Memory (MB):              1430
    Algorithm:                Core
    Integral Cache:           NONE
    Schwarz Cutoff:          1E-12
    Fitting Condition:       1E-12

   => Auxiliary Basis Set <=

  Basis Set: 
    Number of shells: 320
    Number of basis function: 992
    Number of Cartesian functions: 1188
    Spherical Harmonics?: true
    Max angular momentum: 4

  Minimum eigenvalue in the overlap matrix is 2.5560759585E-04.
  Using Symmetric Orthogonalization.
  SCF Guess: Superposition of Atomic Densities via on-the-fly atomic UHF.

  ==> Iterations <==

                           Total Energy        Delta E     RMS |[F,P]|

   @DF-RHF iter   0:  -387.90242546269934   -3.87902e+02   1.38083e-02 
   @DF-RHF iter   1:  -383.84067443565203    4.06175e+00   1.48687e-03 
   @DF-RHF iter   2:  -384.02928229186892   -1.88608e-01   9.33353e-04 DIIS
   @DF-RHF iter   3:  -384.08141718951271   -5.21349e-02   2.31146e-04 DIIS
   @DF-RHF iter   4:  -384.08959658247642   -8.17939e-03   8.63104e-05 DIIS
   @DF-RHF iter   5:  -384.09056714210504   -9.70560e-04   3.23710e-05 DIIS
   @DF-RHF iter   6:  -384.09075986906186   -1.92727e-04   1.31459e-05 DIIS
   @DF-RHF iter   7:  -384.09078803270819   -2.81636e-05   4.26868e-06 DIIS
   @DF-RHF iter   8:  -384.09079203395964   -4.00125e-06   1.21377e-06 DIIS
   @DF-RHF iter   9:  -384.09079238400528   -3.50046e-07   3.22197e-07 DIIS
   @DF-RHF iter  10:  -384.09079240891782   -2.49125e-08   1.07248e-07 DIIS
   @DF-RHF iter  11:  -384.09079241120565   -2.28783e-09   3.56796e-08 DIIS
   @DF-RHF iter  12:  -384.09079241151511   -3.09456e-10   1.25882e-08 DIIS
   @DF-RHF iter  13:  -384.09079241156934   -5.42286e-11   5.04712e-09 DIIS

  ==> Post-Iterations <==

    Orbital Energies (a.u.)
    -----------------------

    Doubly Occupied:                                                      

       1A    -20.603959     2A    -20.540584     3A    -11.373382  
       4A    -11.240079     5A    -11.219499     6A    -11.217860  
       7A    -11.216890     8A    -11.209327     9A     -1.477614  
      10A     -1.369051    11A     -1.096259    12A     -1.043962  
      13A     -0.961174    14A     -0.869521    15A     -0.808391  
      16A     -0.788988    17A     -0.703769    18A     -0.690782  
      19A     -0.668871    20A     -0.638021    21A     -0.601443  
      22A     -0.595805    23A     -0.571636    24A     -0.563689  
      25A     -0.541936    26A     -0.505556    27A     -0.496210  
      28A     -0.484437    29A     -0.472196    30A     -0.467602  
      31A     -0.458602    32A     -0.444697  

    Virtual:                                                              

      33A      0.135512    34A      0.149600    35A      0.163479  
      36A      0.166349    37A      0.168567    38A      0.183977  
      39A      0.208566    40A      0.216609    41A      0.224205  
      42A      0.233762    43A      0.241187    44A      0.250077  
      45A      0.269116    46A      0.307180    47A      0.345332  
      48A      0.356741    49A      0.362965    50A      0.365754  
      51A      0.381340    52A      0.393742    53A      0.410158  
      54A      0.424436    55A      0.439901    56A      0.445748  
      57A      0.462592    58A      0.472616    59A      0.481716  
      60A      0.514085    61A      0.523872    62A      0.530406  
      63A      0.571800    64A      0.581722    65A      0.584553  
      66A      0.590558    67A      0.599077    68A      0.621911  
      69A      0.629023    70A      0.639638    71A      0.644989  
      72A      0.645524    73A      0.649345    74A      0.662814  
      75A      0.672689    76A      0.680566    77A      0.682988  
      78A      0.697868    79A      0.710135    80A      0.716582  
      81A      0.722689    82A      0.743801    83A      0.763156  
      84A      0.768917    85A      0.783844    86A      0.808301  
      87A      0.812112    88A      0.836015    89A      0.851485  
      90A      0.869349    91A      0.871925    92A      0.910387  
      93A      0.916212    94A      0.935810    95A      0.945478  
      96A      0.953534    97A      0.984187    98A      0.996224  
      99A      1.012416   100A      1.034194   101A      1.062245  
     102A      1.071557   103A      1.074305   104A      1.103406  
     105A      1.128058   106A      1.147379   107A      1.161948  
     108A      1.187661   109A      1.199691   110A      1.224535  
     111A      1.234151   112A      1.236926   113A      1.254747  
     114A      1.262032   115A      1.267766   116A      1.292550  
     117A      1.297708   118A      1.304895   119A      1.322947  
     120A      1.332821   121A      1.355262   122A      1.364338  
     123A      1.383594   124A      1.384424   125A      1.388690  
     126A      1.405854   127A      1.414820   128A      1.434308  
     129A      1.442327   130A      1.455172   131A      1.470397  
     132A      1.481744   133A      1.496942   134A      1.502310  
     135A      1.528015   136A      1.536996   137A      1.545605  
     138A      1.561664   139A      1.571384   140A      1.579092  
     141A      1.597010   142A      1.605720   143A      1.624917  
     144A      1.630371   145A      1.635659   146A      1.673455  
     147A      1.685737   148A      1.714290   149A      1.724467  
     150A      1.734763   151A      1.749416   152A      1.750652  
     153A      1.796705   154A      1.809026   155A      1.830171  
     156A      1.831427   157A      1.854070   158A      1.861808  
     159A      1.920821   160A      1.949411   161A      1.974732  
     162A      1.996707   163A      2.025964   164A      2.044783  
     165A      2.080561   166A      2.247011   167A      2.289209  
     168A      2.330112   169A      2.347419   170A      2.377046  
     171A      2.481427   172A      2.482544   173A      2.526356  
     174A      2.559453   175A      2.589934   176A      2.602894  
     177A      2.622699   178A      2.672960   179A      2.697013  
     180A      2.716600   181A      2.725521   182A      2.741231  
     183A      2.769296   184A      2.786974   185A      2.805167  
     186A      2.823860   187A      2.829293   188A      2.853988  
     189A      2.871391   190A      2.892495   191A      2.904587  
     192A      2.920376   193A      2.927489   194A      2.943695  
     195A      2.955807   196A      2.976879   197A      2.998179  
     198A      3.008821   199A      3.019561   200A      3.043283  
     201A      3.058040   202A      3.078786   203A      3.114522  
     204A      3.130808   205A      3.136975   206A      3.180153  
     207A      3.198363   208A      3.209938   209A      3.222782  
     210A      3.230098   211A      3.247069   212A      3.259587  
     213A      3.260907   214A      3.275025   215A      3.291618  
     216A      3.312248   217A      3.328469   218A      3.348758  
     219A      3.355269   220A      3.376958   221A      3.385124  
     222A      3.406146   223A      3.408292   224A      3.419947  
     225A      3.425371   226A      3.428287   227A      3.445092  
     228A      3.459720   229A      3.462129   230A      3.471866  
     231A      3.493029   232A      3.504691   233A      3.519939  
     234A      3.523220   235A      3.539154   236A      3.540883  
     237A      3.566350   238A      3.576207   239A      3.595309  
     240A      3.605965   241A      3.621249   242A      3.632509  
     243A      3.643852   244A      3.650246   245A      3.678876  
     246A      3.683851   247A      3.710087   248A      3.734553  
     249A      3.764208   250A      3.776670   251A      3.794610  
     252A      3.804331   253A      3.820248   254A      3.836471  
     255A      3.849027   256A      3.858910   257A      3.868966  
     258A      3.878334   259A      3.891794   260A      3.918414  
     261A      3.930955   262A      3.941817   263A      3.975522  
     264A      3.982658   265A      3.996508   266A      4.017179  
     267A      4.032124   268A      4.046251   269A      4.080243  
     270A      4.099796   271A      4.116694   272A      4.125295  
     273A      4.140961   274A      4.150028   275A      4.171522  
     276A      4.176777   277A      4.187352   278A      4.193530  
     279A      4.196951   280A      4.205766   281A      4.208455  
     282A      4.225268   283A      4.235261   284A      4.251115  
     285A      4.271639   286A      4.283085   287A      4.297858  
     288A      4.310160   289A      4.347676   290A      4.357295  
     291A      4.369795   292A      4.380865   293A      4.394517  
     294A      4.420781   295A      4.439376   296A      4.443229  
     297A      4.454017   298A      4.476068   299A      4.489290  
     300A      4.518264   301A      4.520873   302A      4.548686  
     303A      4.574909   304A      4.581528   305A      4.586353  
     306A      4.611569   307A      4.621669   308A      4.629512  
     309A      4.640927   310A      4.664495   311A      4.673012  
     312A      4.674343   313A      4.689756   314A      4.716796  
     315A      4.741275   316A      4.751121   317A      4.763854  
     318A      4.777500   319A      4.809821   320A      4.820522  
     321A      4.861831   322A      4.913028   323A      4.944701  
     324A      4.955333   325A      4.978725   326A      5.025057  
     327A      5.028974   328A      5.047738   329A      5.077354  
     330A      5.085290   331A      5.143347   332A      5.153369  
     333A      5.190602   334A      5.220334   335A      5.223920  
     336A      5.245651   337A      5.260158   338A      5.278625  
     339A      5.307042   340A      5.339842   341A      5.356427  
     342A      5.373211   343A      5.377259   344A      5.403756  
     345A      5.433963   346A      5.451973   347A      5.496218  
     348A      5.523741   349A      5.539829   350A      5.558746  
     351A      5.576461   352A      5.598980   353A      5.620108  
     354A      5.628871   355A      5.660731   356A      5.685928  
     357A      5.715200   358A      5.743315   359A      5.746056  
     360A      5.766728   361A      5.790381   362A      5.816721  
     363A      5.822301   364A      5.853106   365A      5.894687  
     366A      5.903814   367A      5.907731   368A      5.916719  
     369A      5.949032   370A      5.960872   371A      5.982621  
     372A      6.024218   373A      6.038353   374A      6.072408  
     375A      6.167199   376A      6.269548   377A      6.311859  
     378A      6.314105   379A      6.328954   380A      6.353641  
     381A      6.423721   382A      6.483153   383A      6.507747  
     384A      6.637231   385A      6.804364   386A      6.808758  
     387A      6.874140   388A      6.990183   389A      7.039943  
     390A      7.040964   391A      7.102380   392A      7.216723  
     393A      7.280828   394A      7.315388   395A      7.407892  
     396A      7.484625   397A      7.604976   398A      7.751956  
     399A      7.843635   400A      8.026473   401A      9.909503  
     402A     12.945679   403A     13.299746   404A     13.360625  
     405A     13.744852   406A     14.162524   407A     14.242162  
     408A     14.425718  

    Final Occupation by Irrep:
              A 
    DOCC [    32 ]

  Energy converged.

  @DF-RHF Final Energy:  -384.09079241156934

   => Energetics <=

    Nuclear Repulsion Energy =            373.1518808887364571
    One-Electron Energy =               -1262.6017689282468837
    Two-Electron Energy =                 505.3590956279408601
    DFT Exchange-Correlation Energy =       0.0000000000000000
    Empirical Dispersion Energy =           0.0000000000000000
    PCM Polarization Energy =               0.0000000000000000
    EFP Energy =                            0.0000000000000000
    Total Energy =                       -384.0907924115695096


  Saving occupied orbitals to File 180.

*** tstop() called on cx1-27-3-1 at Sat Sep 10 21:54:54 2016
Module time:
	user time   =      49.03 seconds =       0.82 minutes
	system time =       1.07 seconds =       0.02 minutes
	total time  =         14 seconds =       0.23 minutes
Total time:
	user time   =      49.03 seconds =       0.82 minutes
	system time =       1.07 seconds =       0.02 minutes
	total time  =         14 seconds =       0.23 minutes


Properties will be evaluated at   0.000000,   0.000000,   0.000000 Bohr

Properties computed using the SCF density matrix

  Nuclear Dipole Moment: (a.u.)
     X:   -15.4069      Y:     2.5575      Z:     4.3134

  Electronic Dipole Moment: (a.u.)
     X:    15.0946      Y:    -3.1008      Z:    -4.1087

  Dipole Moment: (a.u.)
     X:    -0.3124      Y:    -0.5433      Z:     0.2047     Total:     0.6592

  Dipole Moment: (Debye)
     X:    -0.7939      Y:    -1.3808      Z:     0.5203     Total:     1.6756


*** tstart() called on cx1-27-3-1
*** at Sat Sep 10 21:54:54 2016


         ------------------------------------------------------------
                                   SCF GRAD                          
                          Rob Parrish, Justin Turney,                
                       Andy Simmonett, and Alex Sokolov              
         ------------------------------------------------------------

  ==> Geometry <==

    Molecular point group: c1
    Full point group: C1

    Geometry (in Angstrom), charge = 0, multiplicity = 1:

       Center              X                  Y                   Z               Mass       
    ------------   -----------------  -----------------  -----------------  -----------------
           H          3.671413882893    -1.399541114391    -0.545930197614     1.007825032070
           O          2.773777882893    -1.620764114391    -0.348430197614    15.994914619560
           C          2.025964882893    -0.533835114391    -0.518116197614    12.000000000000
           C          0.575524882893    -0.804047114391    -0.221650197614    12.000000000000
           O          2.487794882893     0.498953885609    -0.861484197614    15.994914619560
           C         -0.317819117107     0.416669885609    -0.403401197614    12.000000000000
           H          0.275126882893    -1.627948114391    -0.857894197614     1.007825032070
           H          0.524043882893    -1.180150114391     0.795369802386     1.007825032070
           C         -1.777315117107     0.176156885609    -0.016052197614    12.000000000000
           H         -0.261296117107     0.751125885609    -1.433388197614     1.007825032070
           H          0.079426882893     1.226644885609     0.195787802386     1.007825032070
           C         -2.357875117107     1.180455885609     0.978117802386    12.000000000000
           H         -1.851378117107    -0.817944114391     0.414682802386     1.007825032070
           H         -2.392774117107     0.161744885609    -0.912962197614     1.007825032070
           C         -3.779149117107     0.830267885609     1.406864802386    12.000000000000
           H         -1.717760117107     1.224269885609     1.855253802386     1.007825032070
           H         -2.356260117107     2.177046885609     0.548281802386     1.007825032070
           H         -4.166306117107     1.555955885609     2.112676802386     1.007825032070
           H         -3.815598117107    -0.144814114391     1.880768802386     1.007825032070
           H         -4.450209117107     0.807455885609     0.554624802386     1.007825032070

  Nuclear repulsion =  373.151880888736457

  ==> Basis Set <==

  Basis Set: CC-PVTZ
    Number of shells: 152
    Number of basis function: 408
    Number of Cartesian functions: 460
    Spherical Harmonics?: true
    Max angular momentum: 3

  ==> DFJKGrad: Density-Fitted SCF Gradients <==

    Gradient:                    1
    J tasked:                  Yes
    K tasked:                  Yes
    wK tasked:                  No
    OpenMP threads:              4
    Integrals threads:           4
    Memory (MB):              1430
    Schwarz Cutoff:          0E+00
    Fitting Condition:       1E-12

   => Auxiliary Basis Set <=

  Basis Set: 
    Number of shells: 320
    Number of basis function: 992
    Number of Cartesian functions: 1188
    Spherical Harmonics?: true
    Max angular momentum: 4


  -Total Gradient:
     Atom            X                  Y                   Z
    ------   -----------------  -----------------  -----------------
       1       -0.000018568692     0.000000123359    -0.000006640830
       2        0.000058450702     0.000143977483    -0.000032686036
       3       -0.000428644399    -0.000048803009     0.000194822714
       4       -0.000325313686    -0.001264397234    -0.000310118503
       5       -0.000009317454    -0.000042669661     0.000001332761
       6       -0.003775170039    -0.007968106941     0.001691046662
       7        0.001708999870     0.000588912085     0.000522254395
       8        0.000056632963    -0.000128084021     0.000180229178
       9        0.004273941937     0.007492797660     0.000598146622
      10       -0.002105778857    -0.000174569227    -0.001583210891
      11       -0.002195603339     0.000089193474     0.000919806061
      12        0.000347753822     0.000639876085    -0.000204134696
      13        0.003982255151     0.000209488008    -0.001111120991
      14        0.000196357056     0.000629695960    -0.002294825410
      15       -0.000050937641     0.000064678327     0.000188820743
      16       -0.000004804781    -0.000037267864     0.000107892949
      17       -0.001794938437    -0.000253389856     0.001192943295
      18       -0.000057301546    -0.000061493075     0.000043536821
      19        0.000103149581     0.000100732075    -0.000075886615
      20        0.000038837801     0.000019306366    -0.000022208234


*** tstop() called on cx1-27-3-1 at Sat Sep 10 21:55:07 2016
Module time:
	user time   =      46.35 seconds =       0.77 minutes
	system time =       0.87 seconds =       0.01 minutes
	total time  =         13 seconds =       0.22 minutes
Total time:
	user time   =      95.50 seconds =       1.59 minutes
	system time =       1.95 seconds =       0.03 minutes
	total time  =         27 seconds =       0.45 minutes

			-----------------------------------------
			 OPTKING 2.0: for geometry optimizations 
			  - R.A. King,  Bethel University        
			-----------------------------------------

	Internal coordinates to be generated automatically.
	Detected frag 1 with atoms:  1 2 3 4 5 6 7 8 9 10 11 12 13 14 15 16 17 18 19 20
	---Fragment 1 Bond Connectivity---
	 1 : 2
	 2 : 1 3
	 3 : 2 4 5
	 4 : 3 6 7 8
	 5 : 3
	 6 : 4 9 10 11
	 7 : 4
	 8 : 4
	 9 : 6 12 13 14
	 10 : 6
	 11 : 6
	 12 : 9 15 16 17
	 13 : 9
	 14 : 9
	 15 : 12 18 19 20
	 16 : 12
	 17 : 12
	 18 : 15
	 19 : 15
	 20 : 15

	Assuming in current code that numbering for constraints corresponds to unified fragment.
	Frozen dihedral atom list: 
	    12     9     6    10
	---Fragment 1 Geometry and Gradient---
	 H           6.9379667591       -2.6447494179       -1.0316585612
	 O           5.2416805521       -3.0628003022       -0.6584376499
	 C           3.8285187835       -1.0088021663       -0.9790977185
	 C           1.0875844113       -1.5194288441       -0.4188581708
	 O           4.7012510035        0.9428861967       -1.6279692013
	 C          -0.6005910911        0.7873919716       -0.7623177852
	 H           0.5199144605       -3.0763760947       -1.6211850845
	 H           0.9902994203       -2.2301605119        1.5030311009
	 C          -3.3586388232        0.3328882702       -0.0303342573
	 H          -0.4937781009        1.4194222151       -2.7087111356
	 H           0.1500950563        2.3180228961        0.3699853267
	 C          -4.4557382269        2.2307383358        1.8483747722
	 H          -3.4985976097       -1.5456903682        0.7836369285
	 H          -4.5216877792        0.3056535372       -1.7252485232
	 C          -7.1415568467        1.5689789207        2.6585891825
	 H          -3.2460961833        2.3135347965        3.5059215935
	 H          -4.4526863192        4.1140223923        1.0361024502
	 H          -7.8731775471        2.9403304987        3.9923805638
	 H          -7.2104354745       -0.2736590164        3.5541379558
	 H          -8.4096764654        1.5258704882        1.0480889830
	            -0.0000185687        0.0000001234       -0.0000066408
	             0.0000584507        0.0001439775       -0.0000326860
	            -0.0004286444       -0.0000488030        0.0001948227
	            -0.0003253137       -0.0012643972       -0.0003101185
	            -0.0000093175       -0.0000426697        0.0000013328
	            -0.0037751700       -0.0079681069        0.0016910467
	             0.0017089999        0.0005889121        0.0005222544
	             0.0000566330       -0.0001280840        0.0001802292
	             0.0042739419        0.0074927977        0.0005981466
	            -0.0021057789       -0.0001745692       -0.0015832109
	            -0.0021956033        0.0000891935        0.0009198061
	             0.0003477538        0.0006398761       -0.0002041347
	             0.0039822552        0.0002094880       -0.0011111210
	             0.0001963571        0.0006296960       -0.0022948254
	            -0.0000509376        0.0000646783        0.0001888207
	            -0.0000048048       -0.0000372679        0.0001078929
	            -0.0017949384       -0.0002533899        0.0011929433
	            -0.0000573015       -0.0000614931        0.0000435368
	             0.0001031496        0.0001007321       -0.0000758866
	             0.0000388378        0.0000193064       -0.0000222082

	Previous optimization step data not found.  Starting new optimization.

	---Fragment 1 Intrafragment Coordinates---
	 - Coordinate -           - BOHR/RAD -       - ANG/DEG -
	 R(1,2)           =         1.786462	       0.945355
	 R(2,3)           =         2.513714	       1.330200
	 R(3,4)           =         2.843823	       1.504886
	 R(3,5)           =         2.234230	       1.182304
	 R(4,6)           =         2.879118	       1.523564
	 R(4,7)           =         2.047419	       1.083447
	 R(4,8)           =         2.051405	       1.085557
	 R(6,9)           =         2.889498	       1.529057
	 R(6,10)          =         2.049224	       1.084403
	 R(6,11)          =         2.046575	       1.083001
	 R(9,12)          =         2.887042	       1.527757
	 R(9,13)          =         2.052120	       1.085935
	 R(9,14)          =         2.055762	       1.087863
	 R(12,15)         =         2.882359	       1.525279
	 R(12,16)         =         2.053668	       1.086754
	 R(12,17)         =         2.050989	       1.085336
	 R(15,18)         =         2.048139	       1.083828
	 R(15,19)         =         2.049894	       1.084757
	 R(15,20)         =         2.050292	       1.084968
	 B(1,2,3)         =         1.892243	     108.417523
	 B(2,3,4)         =         1.949797	     111.715141
	 B(2,3,5)         =         2.130852	     122.088814
	 B(3,4,6)         =         1.979883	     113.438933
	 B(3,4,7)         =         1.863023	     106.743341
	 B(3,4,8)         =         1.867617	     107.006585
	 B(4,3,5)         =         2.202536	     126.196045
	 B(4,6,9)         =         1.986057	     113.792668
	 B(4,6,10)        =         1.906953	     109.260368
	 B(4,6,11)        =         1.894584	     108.551647
	 B(6,4,7)         =         1.956984	     112.126951
	 B(6,4,8)         =         1.940724	     111.195287
	 B(6,9,12)        =         2.008840	     115.098042
	 B(6,9,13)        =         1.885541	     108.033545
	 B(6,9,14)        =         1.910532	     109.465418
	 B(7,4,8)         =         1.847880	     105.875742
	 B(9,6,10)        =         1.916522	     109.808624
	 B(9,6,11)        =         1.904557	     109.123075
	 B(9,12,15)       =         1.967186	     112.711444
	 B(9,12,16)       =         1.904869	     109.140944
	 B(9,12,17)       =         1.923390	     110.202150
	 B(10,6,11)       =         1.850130	     106.004635
	 B(12,9,13)       =         1.894146	     108.526598
	 B(12,9,14)       =         1.907347	     109.282932
	 B(12,15,18)      =         1.941408	     111.234482
	 B(12,15,19)      =         1.939589	     111.130276
	 B(12,15,20)      =         1.939451	     111.122357
	 B(13,9,14)       =         1.850751	     106.040224
	 B(15,12,16)      =         1.908406	     109.343620
	 B(15,12,17)      =         1.900251	     108.876383
	 B(16,12,17)      =         1.856417	     106.364871
	 B(18,15,19)      =         1.881111	     107.779707
	 B(18,15,20)      =         1.880391	     107.738456
	 B(19,15,20)      =         1.879142	     107.666904
	 D(1,2,3,4)       =        -3.141404	    -179.989188
	 D(1,2,3,5)       =         0.000140	       0.008003
	 D(2,3,4,6)       =         3.141244	     179.980004
	 D(2,3,4,7)       =        -0.977799	     -56.023770
	 D(2,3,4,8)       =         0.994432	      56.976732
	 D(3,4,6,9)       =        -3.075045	    -176.187091
	 D(3,4,6,10)      =         1.059318	      60.694424
	 D(3,4,6,11)      =        -0.950810	     -54.477406
	 D(4,6,9,12)      =         2.219734	     127.181392
	 D(4,6,9,13)      =         0.100338	       5.748919
	 D(4,6,9,14)      =        -1.907512	    -109.292378
	 D(5,3,4,6)       =        -0.000298	      -0.017048
	 D(5,3,4,7)       =         2.163845	     123.979178
	 D(5,3,4,8)       =        -2.147110	    -123.020320
	 D(6,9,12,15)     =        -3.065947	    -175.665849
	 D(6,9,12,16)     =        -0.942016	     -53.973554
	 D(6,9,12,17)     =         1.090522	      62.482294
	 D(7,4,6,9)       =         1.096056	      62.799390
	 D(7,4,6,10)      =        -1.052767	     -60.319095
	 D(7,4,6,11)      =        -3.062894	    -175.490925
	 D(8,4,6,9)       =        -0.969022	     -55.520860
	 D(8,4,6,10)      =        -3.117845	    -178.639345
	 D(8,4,6,11)      =         1.155213	      66.188824
	 D(9,12,15,18)    =         3.139423	     179.875685
	 D(9,12,15,19)    =         1.043426	      59.783934
	 D(9,12,15,20)    =        -1.048770	     -60.090098
	*D(10,6,9,12)     =        -1.919862	    -110.000017
	 D(10,6,9,13)     =         2.243926	     128.567509
	 D(10,6,9,14)     =         0.236077	      13.526212
	 D(11,6,9,12)     =         0.101041	       5.789199
	 D(11,6,9,13)     =        -2.018356	    -115.643274
	 D(11,6,9,14)     =         2.256980	     129.315428
	 D(13,9,12,15)    =        -0.951227	     -54.501269
	 D(13,9,12,16)    =         1.172705	      67.191026
	 D(13,9,12,17)    =        -3.077943	    -176.353126
	 D(14,9,12,15)    =         1.059611	      60.711244
	 D(14,9,12,16)    =        -3.099643	    -177.596462
	 D(14,9,12,17)    =        -1.067105	     -61.140614
	 D(16,12,15,18)   =         1.017496	      58.298232
	 D(16,12,15,19)   =        -1.078500	     -61.793518
	 D(16,12,15,20)   =         3.112488	     178.332449
	 D(17,12,15,18)   =        -1.004018	     -57.526016
	 D(17,12,15,19)   =        -3.100015	    -177.617766
	 D(17,12,15,20)   =         1.090974	      62.508201

	Current energy   :      -384.0907924116

	Generating empirical Hessian (Schlegel '84) for each fragment.
	Taking RFO optimization step.
	Going to follow RFO solution 1.
	Using RFO vector 1.
	Norm of target step-size    0.34895
	Projected energy change by RFO approximation:        -0.0013254009

	Back-transformation to cartesian coordinates...
	Could not converge backtransformation.
	Using first guess instead.

	Back-transformation to cartesian coordinates to adjust frozen coordinates...
	Successfully converged to displaced geometry.

	--- Internal Coordinate Step in ANG or DEG, aJ/ANG or AJ/DEG ---
	 ---------------------------------------------------------------------------
	   Coordinate                Previous        Force       Change         New 
	   ----------                --------       ------       ------       ------
	    1 R(1,2)          =      0.945355     0.000134     0.003518     0.948874
	    2 R(2,3)          =      1.330200     0.000827     0.007910     1.338110
	    3 R(3,4)          =      1.504886     0.003338     0.005900     1.510786
	    4 R(3,5)          =      1.182304     0.000340     0.010268     1.192571
	    5 R(4,6)          =      1.523564    -0.010532     0.006417     1.529981
	    6 R(4,7)          =      1.083447     0.010120     0.012450     1.095898
	    7 R(4,8)          =      1.085557    -0.001735     0.008816     1.094373
	    8 R(6,9)          =      1.529057     0.070018     0.018873     1.547929
	    9 R(6,10)         =      1.084403    -0.011041     0.005061     1.089463
	   10 R(6,11)         =      1.083001     0.001893     0.009453     1.092454
	   11 R(9,12)         =      1.527757    -0.013598     0.002310     1.530066
	   12 R(9,13)         =      1.085935     0.007449     0.010631     1.096566
	   13 R(9,14)         =      1.087863    -0.014604     0.006641     1.094503
	   14 R(12,15)        =      1.525279     0.000181     0.007918     1.533197
	   15 R(12,16)        =      1.086754    -0.000682     0.011588     1.098342
	   16 R(12,17)        =      1.085336     0.005831     0.013769     1.099105
	   17 R(15,18)        =      1.083828    -0.000063     0.004146     1.087974
	   18 R(15,19)        =      1.084757     0.001048     0.012282     1.097039
	   19 R(15,20)        =      1.084968     0.000057     0.012011     1.096979
	   20 B(1,2,3)        =    108.417523     0.000001    -0.331467   108.086056
	   21 B(2,3,4)        =    111.715141    -0.000015    -0.367293   111.347848
	   22 B(2,3,5)        =    122.088814     0.000008     0.295968   122.384783
	   23 B(3,4,6)        =    113.438933     0.000073    -0.019407   113.419526
	   24 B(3,4,7)        =    106.743341     0.000041     0.652148   107.395488
	   25 B(3,4,8)        =    107.006585    -0.000017    -0.059254   106.947331
	   26 B(4,3,5)        =    126.196045     0.000007     0.071313   126.267357
	   27 B(4,6,9)        =    113.792668    -0.000301    -1.424472   112.368196
	   28 B(4,6,10)       =    109.260368     0.000005    -0.844576   108.415792
	   29 B(4,6,11)       =    108.551647     0.000029    -0.005361   108.546286
	   30 B(6,4,7)        =    112.126951    -0.000101    -0.784414   111.342536
	   31 B(6,4,8)        =    111.195287    -0.000010     0.323737   111.519024
	   32 B(6,9,12)       =    115.098042    -0.000442    -1.915679   113.182363
	   33 B(6,9,13)       =    108.033545     0.000374     2.608766   110.642311
	   34 B(6,9,14)       =    109.465418     0.000147     0.516975   109.982393
	   35 B(7,4,8)        =    105.875742     0.000015    -0.080085   105.795656
	   36 B(9,6,10)       =    109.808624     0.000167     0.376112   110.184736
	   37 B(9,6,11)       =    109.123075     0.000212     2.067327   111.190403
	   38 B(9,12,15)      =    112.711444     0.000054    -0.215923   112.495521
	   39 B(9,12,16)      =    109.140944     0.000001     0.109893   109.250837
	   40 B(9,12,17)      =    110.202150    -0.000123    -0.866915   109.335235
	   41 B(10,6,11)      =    106.004635    -0.000100    -0.117516   105.887118
	   42 B(12,9,13)      =    108.526598    -0.000010    -0.341842   108.184755
	   43 B(12,9,14)      =    109.282932     0.000073    -0.272054   109.010878
	   44 B(12,15,18)     =    111.234482    -0.000012    -0.476985   110.757497
	   45 B(12,15,19)     =    111.130276     0.000013     0.121794   111.252070
	   46 B(12,15,20)     =    111.122357     0.000005     0.148178   111.270535
	   47 B(13,9,14)      =    106.040224    -0.000120    -0.507115   105.533109
	   48 B(15,12,16)     =    109.343620    -0.000012     0.409051   109.752671
	   49 B(15,12,17)     =    108.876383     0.000077     0.608138   109.484521
	   50 B(16,12,17)     =    106.364871     0.000001    -0.032920   106.331951
	   51 B(18,15,19)     =    107.779707     0.000000     0.118803   107.898510
	   52 B(18,15,20)     =    107.738456     0.000001     0.004755   107.743210
	   53 B(19,15,20)     =    107.666904    -0.000006     0.095475   107.762379
	   54 D(1,2,3,4)      =   -179.989188     0.000000     0.044590  -179.944598
	   55 D(1,2,3,5)      =      0.008003     0.000000     0.009755     0.017758
	   56 D(2,3,4,6)      =    179.980004     0.000006     0.277868   180.257871
	   57 D(2,3,4,7)      =    -56.023770    -0.000006    -0.260267   -56.284037
	   58 D(2,3,4,8)      =     56.976732     0.000001    -0.077550    56.899182
	   59 D(3,4,6,9)      =   -176.187091    -0.000009    -4.237407  -180.424497
	   60 D(3,4,6,10)     =     60.694424    -0.000011    -3.143503    57.550921
	   61 D(3,4,6,11)     =    -54.477406     0.000012    -2.555830   -57.033236
	   62 D(4,6,9,12)     =    127.181392     0.000019     1.804198   128.985590
	   63 D(4,6,9,13)     =      5.748919     0.000025     1.628357     7.377276
	   64 D(4,6,9,14)     =   -109.292378    -0.000007     0.471178  -108.821200
	   65 D(5,3,4,6)      =     -0.017048     0.000006     0.314347     0.297299
	   66 D(5,3,4,7)      =    123.979178    -0.000006    -0.223788   123.755391
	   67 D(5,3,4,8)      =   -123.020320     0.000001    -0.041071  -123.061391
	   68 D(6,9,12,15)    =   -175.665849    -0.000022    -6.313273  -181.979122
	   69 D(6,9,12,16)    =    -53.973554    -0.000017    -5.859210   -59.832764
	   70 D(6,9,12,17)    =     62.482294    -0.000033    -6.325883    56.156411
	   71 D(7,4,6,9)      =     62.799390    -0.000016    -4.491786    58.307605
	   72 D(7,4,6,10)     =    -60.319095    -0.000019    -3.397882   -63.716977
	   73 D(7,4,6,11)     =   -175.490925     0.000005    -2.810208  -178.301134
	   74 D(8,4,6,9)      =    -55.520860    -0.000004    -4.089889   -59.610748
	   75 D(8,4,6,10)     =   -178.639345    -0.000006    -2.995985  -181.635330
	   76 D(8,4,6,11)     =     66.188824     0.000017    -2.408311    63.780513
	   77 D(9,12,15,18)   =    179.875685     0.000008     0.636804   180.512489
	   78 D(9,12,15,19)   =     59.783934     0.000008     0.724930    60.508865
	   79 D(9,12,15,20)   =    -60.090098     0.000007     0.422687   -59.667411
	   80 *D(10,6,9,12)   =   -110.000017    -0.000000     0.000000  -110.000017
	   81 D(10,6,9,13)    =    128.567509     0.000006    -0.175841   128.391669
	   82 D(10,6,9,14)    =     13.526212    -0.000025    -1.333019    12.193193
	   83 D(11,6,9,12)    =      5.789199     0.000021     1.296784     7.085983
	   84 D(11,6,9,13)    =   -115.643274     0.000028     1.120943  -114.522331
	   85 D(11,6,9,14)    =    129.315428    -0.000004    -0.036235   129.279193
	   86 D(13,9,12,15)   =    -54.501269     0.000019    -4.499028   -59.000296
	   87 D(13,9,12,16)   =     67.191026     0.000024    -4.044964    63.146061
	   88 D(13,9,12,17)   =   -176.353126     0.000008    -4.511638  -180.864764
	   89 D(14,9,12,15)   =     60.711244    -0.000006    -5.424264    55.286980
	   90 D(14,9,12,16)   =   -177.596462    -0.000001    -4.970200  -182.566663
	   91 D(14,9,12,17)   =    -61.140614    -0.000017    -5.436874   -66.577488
	   92 D(16,12,15,18)  =     58.298232     0.000001     0.352276    58.650508
	   93 D(16,12,15,19)  =    -61.793518     0.000001     0.440402   -61.353116
	   94 D(16,12,15,20)  =    178.332449     0.000000     0.138159   178.470608
	   95 D(17,12,15,18)  =    -57.526016    -0.000007    -0.181791   -57.707807
	   96 D(17,12,15,19)  =   -177.617766    -0.000007    -0.093665  -177.711431
	   97 D(17,12,15,20)  =     62.508201    -0.000008    -0.395908    62.112293
	 ---------------------------------------------------------------------------
	Successfully symmetrized geometry.

  ==> Convergence Check <==

  Measures of convergence in internal coordinates in au.
  Criteria marked as inactive (o), active & met (*), and active & unmet ( ).
  --------------------------------------------------------------------------------------------- ~
   Step     Total Energy     Delta E     MAX Force     RMS Force      MAX Disp      RMS Disp    ~
  --------------------------------------------------------------------------------------------- ~
    Convergence Criteria    1.00e-06 *    3.00e-04 *             o    1.20e-03 *             o  ~
  --------------------------------------------------------------------------------------------- ~
      1    -384.09079241   -3.84e+02      8.50e-03      1.48e-03 o    1.10e-01      3.61e-02 o  ~
  ---------------------------------------------------------------------------------------------

	Writing optimization data to binary file.
	Structure for next step:
	Cartesian Geometry (in Angstrom)
	    H     3.5991682115  -1.5999657399  -0.7202859091
	    O     2.6912203243  -1.7817848380  -0.5130819562
	    C     2.0130778363  -0.6297154455  -0.5713746117
	    C     0.5510866146  -0.8352826792  -0.2507529103
	    O     2.5363687842   0.4063464492  -0.8451780762
	    C    -0.2714938663   0.4533988358  -0.3099347852
	    H     0.1652236835  -1.5871509647  -0.9484603590
	    H     0.5036908479  -1.2966053957   0.7405020517
	    C    -1.7664133373   0.2133380869   0.0120466681
	    H    -0.1657220539   0.8838267445  -1.3051605456
	    H     0.1690789274   1.1787541099   0.3779684936
	    C    -2.3108502452   1.1587450226   1.0848456400
	    H    -1.9284331076  -0.8172196487   0.3499193228
	    H    -2.3668185817   0.3216908900  -0.8966397136
	    C    -3.8037897349   0.9398745833   1.3567281641
	    H    -1.7402801450   1.0201069813   2.0130616381
	    H    -2.1438636214   2.1990271380   0.7718580228
	    H    -4.1628912005   1.6314247207   2.1159989008
	    H    -3.9981562527  -0.0801304099   1.7107143124
	    H    -4.4008694255   1.0990262715   0.4503457004
			--------------------------
			 OPTKING Finished Execution 
			--------------------------

    Structure for next step:
    Molecular point group: c1
    Full point group: C1

    Geometry (in Angstrom), charge = 0, multiplicity = 1:

    H            3.599551566957    -1.570505724954    -0.710204650519
    O            2.691603679782    -1.752324822975    -0.503000697546
    C            2.013461191803    -0.600255430501    -0.561293353127
    C            0.551469970126    -0.805822664219    -0.240671651719
    O            2.536752139733     0.435806464157    -0.835096817589
    C           -0.271110510803     0.482858850777    -0.299853526592
    H            0.165607039028    -1.557690949687    -0.938379100369
    H            0.504074203403    -1.267145380718     0.750583310351
    C           -1.766029981767     0.242798101871     0.022127926686
    H           -0.165338698444     0.913286759497    -1.295079287002
    H            0.169462282846     1.208214124922     0.388049752184
    C           -2.310466889687     1.188205037609     1.094926898604
    H           -1.928049752097    -0.787759633727     0.360000581391
    H           -2.366435226251     0.351150904941    -0.886558455028
    C           -3.803406379390     0.969334598289     1.366809422714
    H           -1.739896789519     1.049566996271     2.023142896682
    H           -2.143480265913     2.228487152988     0.781939281397
    H           -4.162507844990     1.660884735719     2.126080159360
    H           -3.997772897209    -0.050670394942     1.720795571036
    H           -4.400486070041     1.128486286478     0.460426958960

gradient() will perform analytic gradient computation.

*** tstart() called on cx1-27-3-1
*** at Sat Sep 10 21:55:08 2016


         ---------------------------------------------------------
                                   SCF
            by Justin Turney, Rob Parrish, and Andy Simmonett
                              RHF Reference
                        4 Threads,   2000 MiB Core
         ---------------------------------------------------------

  ==> Geometry <==

    Molecular point group: c1
    Full point group: C1

    Geometry (in Angstrom), charge = 0, multiplicity = 1:

       Center              X                  Y                   Z               Mass       
    ------------   -----------------  -----------------  -----------------  -----------------
           H          3.599551566957    -1.570505724954    -0.710204650519     1.007825032070
           O          2.691603679782    -1.752324822975    -0.503000697546    15.994914619560
           C          2.013461191803    -0.600255430501    -0.561293353127    12.000000000000
           C          0.551469970126    -0.805822664219    -0.240671651719    12.000000000000
           O          2.536752139733     0.435806464157    -0.835096817589    15.994914619560
           C         -0.271110510803     0.482858850777    -0.299853526592    12.000000000000
           H          0.165607039028    -1.557690949687    -0.938379100369     1.007825032070
           H          0.504074203403    -1.267145380718     0.750583310351     1.007825032070
           C         -1.766029981767     0.242798101871     0.022127926686    12.000000000000
           H         -0.165338698444     0.913286759497    -1.295079287002     1.007825032070
           H          0.169462282846     1.208214124922     0.388049752184     1.007825032070
           C         -2.310466889687     1.188205037609     1.094926898604    12.000000000000
           H         -1.928049752097    -0.787759633727     0.360000581391     1.007825032070
           H         -2.366435226251     0.351150904941    -0.886558455028     1.007825032070
           C         -3.803406379390     0.969334598289     1.366809422714    12.000000000000
           H         -1.739896789519     1.049566996271     2.023142896682     1.007825032070
           H         -2.143480265913     2.228487152988     0.781939281397     1.007825032070
           H         -4.162507844990     1.660884735719     2.126080159360     1.007825032070
           H         -3.997772897209    -0.050670394942     1.720795571036     1.007825032070
           H         -4.400486070041     1.128486286478     0.460426958960     1.007825032070

  Running in c1 symmetry.

  Rotational constants: A =      0.22601  B =      0.02206  C =      0.02098 [cm^-1]
  Rotational constants: A =   6775.67318  B =    661.34434  C =    628.87219 [MHz]
  Nuclear repulsion =  371.094341248220474

  Charge       = 0
  Multiplicity = 1
  Electrons    = 64
  Nalpha       = 32
  Nbeta        = 32

  ==> Algorithm <==

  SCF Algorithm Type is DF.
  DIIS enabled.
  MOM disabled.
  Fractional occupation disabled.
  Guess Type is READ.
  Energy threshold   = 1.00e-08
  Density threshold  = 1.00e-08
  Integral threshold = 0.00e+00

  ==> Primary Basis <==

  Basis Set: CC-PVTZ
    Number of shells: 152
    Number of basis function: 408
    Number of Cartesian functions: 460
    Spherical Harmonics?: true
    Max angular momentum: 3

  ==> Pre-Iterations <==

   -------------------------------------------------------
    Irrep   Nso     Nmo     Nalpha   Nbeta   Ndocc  Nsocc
   -------------------------------------------------------
     A        408     408       0       0       0       0
   -------------------------------------------------------
    Total     408     408      32      32      32       0
   -------------------------------------------------------

  ==> Integral Setup <==

  ==> DFJK: Density-Fitted J/K Matrices <==

    J tasked:                  Yes
    K tasked:                  Yes
    wK tasked:                  No
    OpenMP threads:              4
    Integrals threads:           4
    Memory (MB):              1430
    Algorithm:                Core
    Integral Cache:           NONE
    Schwarz Cutoff:          1E-12
    Fitting Condition:       1E-12

   => Auxiliary Basis Set <=

  Basis Set: 
    Number of shells: 320
    Number of basis function: 992
    Number of Cartesian functions: 1188
    Spherical Harmonics?: true
    Max angular momentum: 4

  Minimum eigenvalue in the overlap matrix is 2.6777948697E-04.
  Using Symmetric Orthogonalization.
  SCF Guess: Reading in previously saved MOs, projecting if necessary.

  Using orbitals from previous SCF, no projection.
  Recomputing DOCC and SOCC from number of alpha and beta electrons from previous calculation.
              A 
    DOCC [    32 ]

  ==> Iterations <==

                           Total Energy        Delta E     RMS |[F,P]|

   @DF-RHF iter   0:  -383.91907617054341   -3.83919e+02   8.65669e-04 
   @DF-RHF iter   1:  -384.08550800350650   -1.66432e-01   1.75827e-04 
   @DF-RHF iter   2:  -384.08951445382871   -4.00645e-03   6.93927e-05 DIIS
   @DF-RHF iter   3:  -384.09008140873419   -5.66955e-04   2.72568e-05 DIIS
   @DF-RHF iter   4:  -384.09020578808344   -1.24379e-04   7.50476e-06 DIIS
   @DF-RHF iter   5:  -384.09021375522758   -7.96714e-06   3.67154e-06 DIIS
   @DF-RHF iter   6:  -384.09021714942782   -3.39420e-06   1.43670e-06 DIIS
   @DF-RHF iter   7:  -384.09021784283840   -6.93411e-07   6.00207e-07 DIIS
   @DF-RHF iter   8:  -384.09021796717997   -1.24342e-07   1.75837e-07 DIIS
   @DF-RHF iter   9:  -384.09021797760391   -1.04239e-08   5.31180e-08 DIIS
   @DF-RHF iter  10:  -384.09021797841154   -8.07631e-10   1.92011e-08 DIIS
   @DF-RHF iter  11:  -384.09021797851045   -9.89075e-11   6.36482e-09 DIIS

  ==> Post-Iterations <==

    Orbital Energies (a.u.)
    -----------------------

    Doubly Occupied:                                                      

       1A    -20.605432     2A    -20.542666     3A    -11.377211  
       4A    -11.243979     5A    -11.224594     6A    -11.222345  
       7A    -11.221737     8A    -11.213855     9A     -1.472026  
      10A     -1.365206    11A     -1.091869    12A     -1.040455  
      13A     -0.955840    14A     -0.867722    15A     -0.803675  
      16A     -0.787229    17A     -0.703057    18A     -0.687503  
      19A     -0.663970    20A     -0.633651    21A     -0.599270  
      22A     -0.594579    23A     -0.569125    24A     -0.558065  
      25A     -0.541205    26A     -0.504722    27A     -0.494352  
      28A     -0.483164    29A     -0.473503    30A     -0.466444  
      31A     -0.458174    32A     -0.443422  

    Virtual:                                                              

      33A      0.135191    34A      0.148539    35A      0.163055  
      36A      0.163886    37A      0.167850    38A      0.181530  
      39A      0.206472    40A      0.216766    41A      0.222044  
      42A      0.232165    43A      0.240889    44A      0.250591  
      45A      0.266858    46A      0.305379    47A      0.341587  
      48A      0.355234    49A      0.360726    50A      0.366455  
      51A      0.383106    52A      0.392211    53A      0.405162  
      54A      0.421547    55A      0.436558    56A      0.447525  
      57A      0.462118    58A      0.470959    59A      0.477923  
      60A      0.511965    61A      0.518038    62A      0.531625  
      63A      0.570697    64A      0.579552    65A      0.583899  
      66A      0.590514    67A      0.597428    68A      0.619810  
      69A      0.627019    70A      0.639144    71A      0.640149  
      72A      0.643561    73A      0.645877    74A      0.657811  
      75A      0.671577    76A      0.675414    77A      0.680209  
      78A      0.691929    79A      0.704065    80A      0.710339  
      81A      0.718193    82A      0.741212    83A      0.759286  
      84A      0.768647    85A      0.778643    86A      0.806430  
      87A      0.809711    88A      0.829759    89A      0.843229  
      90A      0.866297    91A      0.873043    92A      0.905518  
      93A      0.915699    94A      0.937260    95A      0.945239  
      96A      0.948345    97A      0.982464    98A      0.995567  
      99A      1.011720   100A      1.031897   101A      1.053684  
     102A      1.070291   103A      1.070833   104A      1.096472  
     105A      1.125510   106A      1.151688   107A      1.159581  
     108A      1.184484   109A      1.197249   110A      1.217203  
     111A      1.231288   112A      1.236690   113A      1.247560  
     114A      1.256826   115A      1.259949   116A      1.286861  
     117A      1.297782   118A      1.303875   119A      1.320346  
     120A      1.336224   121A      1.347913   122A      1.356501  
     123A      1.376237   124A      1.387194   125A      1.390314  
     126A      1.399556   127A      1.405745   128A      1.425404  
     129A      1.439932   130A      1.455408   131A      1.466130  
     132A      1.480147   133A      1.487319   134A      1.496325  
     135A      1.523384   136A      1.529805   137A      1.542871  
     138A      1.555903   139A      1.568351   140A      1.576319  
     141A      1.591456   142A      1.596631   143A      1.615011  
     144A      1.621077   145A      1.637112   146A      1.667177  
     147A      1.683175   148A      1.709600   149A      1.720117  
     150A      1.721232   151A      1.733760   152A      1.746414  
     153A      1.789103   154A      1.802187   155A      1.819451  
     156A      1.833233   157A      1.839853   158A      1.853139  
     159A      1.915645   160A      1.938912   161A      1.960838  
     162A      1.982225   163A      2.019992   164A      2.037316  
     165A      2.067753   166A      2.245894   167A      2.282359  
     168A      2.330384   169A      2.342997   170A      2.375209  
     171A      2.473671   172A      2.480318   173A      2.530099  
     174A      2.567812   175A      2.591240   176A      2.602965  
     177A      2.631856   178A      2.664596   179A      2.693289  
     180A      2.706774   181A      2.727191   182A      2.740953  
     183A      2.769126   184A      2.782067   185A      2.806909  
     186A      2.820570   187A      2.828174   188A      2.858044  
     189A      2.877438   190A      2.886692   191A      2.890192  
     192A      2.912246   193A      2.917663   194A      2.938876  
     195A      2.949827   196A      2.973716   197A      2.992067  
     198A      3.003332   199A      3.014517   200A      3.035567  
     201A      3.052358   202A      3.070272   203A      3.101004  
     204A      3.124991   205A      3.129816   206A      3.169632  
     207A      3.188447   208A      3.200655   209A      3.213811  
     210A      3.224504   211A      3.246946   212A      3.251579  
     213A      3.253992   214A      3.275118   215A      3.281774  
     216A      3.305678   217A      3.314304   218A      3.338301  
     219A      3.355179   220A      3.367201   221A      3.387458  
     222A      3.394414   223A      3.402300   224A      3.413082  
     225A      3.416521   226A      3.426027   227A      3.437400  
     228A      3.454886   229A      3.463779   230A      3.478500  
     231A      3.484611   232A      3.504976   233A      3.512779  
     234A      3.519967   235A      3.527919   236A      3.530180  
     237A      3.558708   238A      3.567050   239A      3.589590  
     240A      3.592506   241A      3.608783   242A      3.625715  
     243A      3.634239   244A      3.641402   245A      3.667224  
     246A      3.673767   247A      3.701846   248A      3.722204  
     249A      3.747469   250A      3.765197   251A      3.785934  
     252A      3.793157   253A      3.809471   254A      3.822072  
     255A      3.835302   256A      3.846199   257A      3.856140  
     258A      3.861152   259A      3.875831   260A      3.902438  
     261A      3.926341   262A      3.936571   263A      3.958631  
     264A      3.975971   265A      3.981355   266A      3.997389  
     267A      4.018474   268A      4.034867   269A      4.053870  
     270A      4.086435   271A      4.103019   272A      4.114965  
     273A      4.125597   274A      4.137809   275A      4.158708  
     276A      4.162851   277A      4.170367   278A      4.176902  
     279A      4.185710   280A      4.190715   281A      4.198162  
     282A      4.204457   283A      4.225154   284A      4.246775  
     285A      4.254638   286A      4.258386   287A      4.279311  
     288A      4.302443   289A      4.331433   290A      4.334412  
     291A      4.357377   292A      4.365860   293A      4.381083  
     294A      4.397033   295A      4.412140   296A      4.429948  
     297A      4.433774   298A      4.459163   299A      4.469261  
     300A      4.506447   301A      4.515137   302A      4.525210  
     303A      4.555390   304A      4.561167   305A      4.573993  
     306A      4.586920   307A      4.598813   308A      4.611324  
     309A      4.620904   310A      4.645815   311A      4.649611  
     312A      4.653539   313A      4.672836   314A      4.699733  
     315A      4.717215   316A      4.729942   317A      4.742345  
     318A      4.757517   319A      4.788706   320A      4.792943  
     321A      4.857581   322A      4.891442   323A      4.913284  
     324A      4.937262   325A      4.956857   326A      4.998858  
     327A      5.000512   328A      5.022548   329A      5.052250  
     330A      5.054038   331A      5.110240   332A      5.126516  
     333A      5.169081   334A      5.189010   335A      5.198930  
     336A      5.215518   337A      5.227386   338A      5.250235  
     339A      5.277252   340A      5.301219   341A      5.326373  
     342A      5.334744   343A      5.343217   344A      5.395941  
     345A      5.403637   346A      5.421976   347A      5.478047  
     348A      5.486225   349A      5.504613   350A      5.523457  
     351A      5.536644   352A      5.568316   353A      5.603803  
     354A      5.618830   355A      5.644345   356A      5.666196  
     357A      5.687961   358A      5.700836   359A      5.710446  
     360A      5.743352   361A      5.756745   362A      5.783721  
     363A      5.795800   364A      5.814863   365A      5.856162  
     366A      5.866941   367A      5.879011   368A      5.889328  
     369A      5.914167   370A      5.930563   371A      5.937170  
     372A      6.001480   373A      6.015936   374A      6.055263  
     375A      6.120218   376A      6.241868   377A      6.288150  
     378A      6.293250   379A      6.311331   380A      6.331001  
     381A      6.406956   382A      6.469166   383A      6.491116  
     384A      6.621510   385A      6.774081   386A      6.774873  
     387A      6.870208   388A      6.983278   389A      7.028861  
     390A      7.029535   391A      7.089901   392A      7.206813  
     393A      7.273676   394A      7.306188   395A      7.401603  
     396A      7.459358   397A      7.588343   398A      7.731343  
     399A      7.822736   400A      8.007993   401A      9.834271  
     402A     12.734205   403A     13.141813   404A     13.195745  
     405A     13.515292   406A     13.947129   407A     14.032593  
     408A     14.187995  

    Final Occupation by Irrep:
              A 
    DOCC [    32 ]

  Energy converged.

  @DF-RHF Final Energy:  -384.09021797851045

   => Energetics <=

    Nuclear Repulsion Energy =            371.0943412482204735
    One-Electron Energy =               -1258.5490250926204681
    Two-Electron Energy =                 503.3644658658893150
    DFT Exchange-Correlation Energy =       0.0000000000000000
    Empirical Dispersion Energy =           0.0000000000000000
    PCM Polarization Energy =               0.0000000000000000
    EFP Energy =                            0.0000000000000000
    Total Energy =                       -384.0902179785107364


  Saving occupied orbitals to File 180.

*** tstop() called on cx1-27-3-1 at Sat Sep 10 21:55:19 2016
Module time:
	user time   =      40.04 seconds =       0.67 minutes
	system time =       0.74 seconds =       0.01 minutes
	total time  =         11 seconds =       0.18 minutes
Total time:
	user time   =     138.18 seconds =       2.30 minutes
	system time =       2.78 seconds =       0.05 minutes
	total time  =         39 seconds =       0.65 minutes


Properties will be evaluated at   0.000000,   0.000000,   0.000000 Bohr

Properties computed using the SCF density matrix

  Nuclear Dipole Moment: (a.u.)
     X:   -15.4106      Y:     3.0932      Z:     4.4754

  Electronic Dipole Moment: (a.u.)
     X:    15.0542      Y:    -3.6400      Z:    -4.3058

  Dipole Moment: (a.u.)
     X:    -0.3564      Y:    -0.5467      Z:     0.1696     Total:     0.6743

  Dipole Moment: (Debye)
     X:    -0.9058      Y:    -1.3897      Z:     0.4310     Total:     1.7139


*** tstart() called on cx1-27-3-1
*** at Sat Sep 10 21:55:19 2016


         ------------------------------------------------------------
                                   SCF GRAD                          
                          Rob Parrish, Justin Turney,                
                       Andy Simmonett, and Alex Sokolov              
         ------------------------------------------------------------

  ==> Geometry <==

    Molecular point group: c1
    Full point group: C1

    Geometry (in Angstrom), charge = 0, multiplicity = 1:

       Center              X                  Y                   Z               Mass       
    ------------   -----------------  -----------------  -----------------  -----------------
           H          3.599551566957    -1.570505724954    -0.710204650519     1.007825032070
           O          2.691603679782    -1.752324822975    -0.503000697546    15.994914619560
           C          2.013461191803    -0.600255430501    -0.561293353127    12.000000000000
           C          0.551469970126    -0.805822664219    -0.240671651719    12.000000000000
           O          2.536752139733     0.435806464157    -0.835096817589    15.994914619560
           C         -0.271110510803     0.482858850777    -0.299853526592    12.000000000000
           H          0.165607039028    -1.557690949687    -0.938379100369     1.007825032070
           H          0.504074203403    -1.267145380718     0.750583310351     1.007825032070
           C         -1.766029981767     0.242798101871     0.022127926686    12.000000000000
           H         -0.165338698444     0.913286759497    -1.295079287002     1.007825032070
           H          0.169462282846     1.208214124922     0.388049752184     1.007825032070
           C         -2.310466889687     1.188205037609     1.094926898604    12.000000000000
           H         -1.928049752097    -0.787759633727     0.360000581391     1.007825032070
           H         -2.366435226251     0.351150904941    -0.886558455028     1.007825032070
           C         -3.803406379390     0.969334598289     1.366809422714    12.000000000000
           H         -1.739896789519     1.049566996271     2.023142896682     1.007825032070
           H         -2.143480265913     2.228487152988     0.781939281397     1.007825032070
           H         -4.162507844990     1.660884735719     2.126080159360     1.007825032070
           H         -3.997772897209    -0.050670394942     1.720795571036     1.007825032070
           H         -4.400486070041     1.128486286478     0.460426958960     1.007825032070

  Nuclear repulsion =  371.094341248220474

  ==> Basis Set <==

  Basis Set: CC-PVTZ
    Number of shells: 152
    Number of basis function: 408
    Number of Cartesian functions: 460
    Spherical Harmonics?: true
    Max angular momentum: 3

  ==> DFJKGrad: Density-Fitted SCF Gradients <==

    Gradient:                    1
    J tasked:                  Yes
    K tasked:                  Yes
    wK tasked:                  No
    OpenMP threads:              4
    Integrals threads:           4
    Memory (MB):              1430
    Schwarz Cutoff:          0E+00
    Fitting Condition:       1E-12

   => Auxiliary Basis Set <=

  Basis Set: 
    Number of shells: 320
    Number of basis function: 992
    Number of Cartesian functions: 1188
    Spherical Harmonics?: true
    Max angular momentum: 4


  -Total Gradient:
     Atom            X                  Y                   Z
    ------   -----------------  -----------------  -----------------
       1        0.003431404587     0.001098029360    -0.000868827138
       2       -0.001051694509    -0.009912548543     0.001784172980
       3       -0.006894243071    -0.007767349406     0.003300883188
       4        0.000500590968     0.001835842555     0.000644602854
       5        0.008383701255     0.019046204812    -0.004901775052
       6       -0.001517398710     0.001416117967     0.001440375173
       7       -0.003085591825    -0.005063415329    -0.004537431502
       8        0.000039347459    -0.002938756747     0.005602334205
       9        0.000671422488     0.001734623724    -0.000279869703
      10        0.000405329692     0.000823443363    -0.005072822534
      11        0.004301320139     0.004506364543     0.003327008954
      12        0.000795163807    -0.003878536438    -0.000523631844
      13       -0.002409971648    -0.006059917772     0.002074582116
      14       -0.004093845572     0.000491001265    -0.004909231746
      15        0.001209084258     0.001637024283     0.000849683013
      16        0.004395727376    -0.001104085068     0.006584798889
      17        0.001413741945     0.007969185215    -0.002604850874
      18       -0.000145834921     0.002404690845     0.001942387344
      19       -0.001513653399    -0.007549088055     0.002760387916
      20       -0.004834600315     0.001311169422    -0.006612776242


*** tstop() called on cx1-27-3-1 at Sat Sep 10 21:55:32 2016
Module time:
	user time   =      46.25 seconds =       0.77 minutes
	system time =       0.85 seconds =       0.01 minutes
	total time  =         13 seconds =       0.22 minutes
Total time:
	user time   =     184.54 seconds =       3.08 minutes
	system time =       3.64 seconds =       0.06 minutes
	total time  =         52 seconds =       0.87 minutes

			-----------------------------------------
			 OPTKING 2.0: for geometry optimizations 
			  - R.A. King,  Bethel University        
			-----------------------------------------

	Previous internal coordinate definitions found.
	---Fragment 1 Geometry and Gradient---
	 H           6.8021666627       -2.9678257103       -1.3420922878
	 O           5.0863938131       -3.3114140113       -0.9505335630
	 C           3.8048902317       -1.1343183734       -1.0606907176
	 C           1.0421272140       -1.5227841470       -0.4548035097
	 O           4.7937668111        0.8235548642       -1.5781042797
	 C          -0.5123246172        0.9124709888       -0.5666410452
	 H           0.3129519494       -2.9436092946       -1.7732795085
	 H           0.9525621951       -2.3945577401        1.4183968965
	 C          -3.3373130080        0.4588219181        0.0418157213
	 H          -0.3124448592        1.7258618562       -2.4473451728
	 H           0.3202373044        2.2831938060        0.7333077576
	 C          -4.3661496606        2.2453821108        2.0691119739
	 H          -3.6434860020       -1.4886499663        0.6803025065
	 H          -4.4719144888        0.6635790417       -1.6753526808
	 C          -7.1873964291        1.8317769219        2.5828954848
	 H          -3.2879284317        1.9833941811        3.8231860024
	 H          -4.0505906738        4.2112304098        1.4776510944
	 H          -7.8659998530        3.1386172888        4.0177092378
	 H          -7.5546959172       -0.0957531695        3.2518323599
	 H          -8.3157135240        2.1325300262        0.8700808566
	             0.0034314046        0.0010980294       -0.0008688271
	            -0.0010516945       -0.0099125485        0.0017841730
	            -0.0068942431       -0.0077673494        0.0033008832
	             0.0005005910        0.0018358426        0.0006446029
	             0.0083837013        0.0190462048       -0.0049017751
	            -0.0015173987        0.0014161180        0.0014403752
	            -0.0030855918       -0.0050634153       -0.0045374315
	             0.0000393475       -0.0029387567        0.0056023342
	             0.0006714225        0.0017346237       -0.0002798697
	             0.0004053297        0.0008234434       -0.0050728225
	             0.0043013201        0.0045063645        0.0033270090
	             0.0007951638       -0.0038785364       -0.0005236318
	            -0.0024099716       -0.0060599178        0.0020745821
	            -0.0040938456        0.0004910013       -0.0049092317
	             0.0012090843        0.0016370243        0.0008496830
	             0.0043957274       -0.0011040851        0.0065847989
	             0.0014137419        0.0079691852       -0.0026048509
	            -0.0001458349        0.0024046908        0.0019423873
	            -0.0015136534       -0.0075490881        0.0027603879
	            -0.0048346003        0.0013111694       -0.0066127762

	---Fragment 1 Intrafragment Coordinates---
	 - Coordinate -           - BOHR/RAD -       - ANG/DEG -
	 R(1,2)           =         1.793111	       0.948874
	 R(2,3)           =         2.528662	       1.338110
	 R(3,4)           =         2.854972	       1.510786
	 R(3,5)           =         2.253633	       1.192571
	 R(4,6)           =         2.891245	       1.529981
	 R(4,7)           =         2.070947	       1.095898
	 R(4,8)           =         2.068065	       1.094373
	 R(6,9)           =         2.925163	       1.547929
	 R(6,10)          =         2.058787	       1.089463
	 R(6,11)          =         2.064439	       1.092454
	 R(9,12)          =         2.891407	       1.530066
	 R(9,13)          =         2.072210	       1.096566
	 R(9,14)          =         2.068312	       1.094503
	 R(12,15)         =         2.897322	       1.533197
	 R(12,16)         =         2.075566	       1.098342
	 R(12,17)         =         2.077008	       1.099105
	 R(15,18)         =         2.055973	       1.087974
	 R(15,19)         =         2.073103	       1.097039
	 R(15,20)         =         2.072990	       1.096979
	 B(1,2,3)         =         1.886458	     108.086056
	 B(2,3,4)         =         1.943387	     111.347848
	 B(2,3,5)         =         2.136017	     122.384783
	 B(3,4,6)         =         1.979544	     113.419526
	 B(3,4,7)         =         1.874405	     107.395488
	 B(3,4,8)         =         1.866583	     106.947331
	 B(4,3,5)         =         2.203781	     126.267357
	 B(4,6,9)         =         1.961195	     112.368196
	 B(4,6,10)        =         1.892213	     108.415792
	 B(4,6,11)        =         1.894490	     108.546286
	 B(6,4,7)         =         1.943294	     111.342536
	 B(6,4,8)         =         1.946374	     111.519024
	 B(6,9,12)        =         1.975405	     113.182363
	 B(6,9,13)        =         1.931073	     110.642311
	 B(6,9,14)        =         1.919555	     109.982393
	 B(7,4,8)         =         1.846483	     105.795656
	 B(9,6,10)        =         1.923086	     110.184736
	 B(9,6,11)        =         1.940639	     111.190403
	 B(9,12,15)       =         1.963417	     112.495521
	 B(9,12,16)       =         1.906787	     109.250837
	 B(9,12,17)       =         1.908260	     109.335235
	 B(10,6,11)       =         1.848079	     105.887118
	 B(12,9,13)       =         1.888180	     108.184755
	 B(12,9,14)       =         1.902599	     109.010878
	 B(12,15,18)      =         1.933083	     110.757497
	 B(12,15,19)      =         1.941715	     111.252070
	 B(12,15,20)      =         1.942037	     111.270535
	 B(13,9,14)       =         1.841900	     105.533109
	 B(15,12,16)      =         1.915545	     109.752671
	 B(15,12,17)      =         1.910865	     109.484521
	 B(16,12,17)      =         1.855843	     106.331951
	 B(18,15,19)      =         1.883184	     107.898510
	 B(18,15,20)      =         1.880474	     107.743210
	 B(19,15,20)      =         1.880808	     107.762379
	 D(1,2,3,4)       =        -3.140626	    -179.944598
	 D(1,2,3,5)       =         0.000310	       0.017758
	 D(2,3,4,6)       =        -3.137092	    -179.742129
	 D(2,3,4,7)       =        -0.982342	     -56.284037
	 D(2,3,4,8)       =         0.993078	      56.899182
	 D(3,4,6,9)       =         3.134184	     179.575503
	 D(3,4,6,10)      =         1.004453	      57.550921
	 D(3,4,6,11)      =        -0.995418	     -57.033236
	 D(4,6,9,12)      =         2.251223	     128.985590
	 D(4,6,9,13)      =         0.128758	       7.377276
	 D(4,6,9,14)      =        -1.899288	    -108.821200
	 D(5,3,4,6)       =         0.005189	       0.297299
	 D(5,3,4,7)       =         2.159939	     123.755391
	 D(5,3,4,8)       =        -2.147826	    -123.061391
	 D(6,9,12,15)     =         3.107050	     178.020878
	 D(6,9,12,16)     =        -1.044279	     -59.832764
	 D(6,9,12,17)     =         0.980114	      56.156411
	 D(7,4,6,9)       =         1.017660	      58.307605
	 D(7,4,6,10)      =        -1.112071	     -63.716977
	 D(7,4,6,11)      =        -3.111942	    -178.301134
	 D(8,4,6,9)       =        -1.040404	     -59.610748
	 D(8,4,6,10)      =         3.113051	     178.364670
	 D(8,4,6,11)      =         1.113180	      63.780513
	 D(9,12,15,18)    =        -3.132648	    -179.487511
	 D(9,12,15,19)    =         1.056079	      60.508865
	 D(9,12,15,20)    =        -1.041393	     -59.667411
	*D(10,6,9,12)     =        -1.919862	    -110.000017
	 D(10,6,9,13)     =         2.240857	     128.391669
	 D(10,6,9,14)     =         0.212811	      12.193193
	 D(11,6,9,12)     =         0.123674	       7.085983
	 D(11,6,9,13)     =        -1.998792	    -114.522331
	 D(11,6,9,14)     =         2.256348	     129.279193
	 D(13,9,12,15)    =        -1.029749	     -59.000296
	 D(13,9,12,16)    =         1.102107	      63.146061
	 D(13,9,12,17)    =         3.126500	     179.135236
	 D(14,9,12,15)    =         0.964940	      55.286980
	 D(14,9,12,16)    =         3.096796	     177.433337
	 D(14,9,12,17)    =        -1.161996	     -66.577488
	 D(16,12,15,18)   =         1.023644	      58.650508
	 D(16,12,15,19)   =        -1.070814	     -61.353116
	 D(16,12,15,20)   =         3.114900	     178.470608
	 D(17,12,15,18)   =        -1.007191	     -57.707807
	 D(17,12,15,19)   =        -3.101650	    -177.711431
	 D(17,12,15,20)   =         1.084064	      62.112293

	Current energy   :      -384.0902179785

	Energy change for the previous step:
		Projected    :        -0.0013254009
		Actual       :         0.0005744331

	Performing BFGS update.
	Previous computed or guess Hessian on step 1.
	Steps to be used in Hessian update: 1
	Taking RFO optimization step.
	Going to follow RFO solution 1.
	Using RFO vector 1.
	Norm of target step-size    0.10572
	Projected energy change by RFO approximation:        -0.0023621648

	Back-transformation to cartesian coordinates...
	Successfully converged to displaced geometry.

	Back-transformation to cartesian coordinates to adjust frozen coordinates...
	Successfully converged to displaced geometry.

	--- Internal Coordinate Step in ANG or DEG, aJ/ANG or AJ/DEG ---
	 ---------------------------------------------------------------------------
	   Coordinate                Previous        Force       Change         New 
	   ----------                --------       ------       ------       ------
	    1 R(1,2)          =      0.948874    -0.030348    -0.003662     0.945212
	    2 R(2,3)          =      1.338110    -0.072788    -0.008347     1.329763
	    3 R(3,4)          =      1.510786    -0.034809    -0.006248     1.504538
	    4 R(3,5)          =      1.192571    -0.175903    -0.010801     1.181770
	    5 R(4,6)          =      1.529981    -0.031878    -0.008352     1.521628
	    6 R(4,7)          =      1.095898    -0.061371    -0.011568     1.084329
	    7 R(4,8)          =      1.094373    -0.051999    -0.009788     1.084585
	    8 R(6,9)          =      1.547929    -0.038564    -0.006649     1.541280
	    9 R(6,10)         =      1.089463    -0.041183    -0.007502     1.081961
	   10 R(6,11)         =      1.092454    -0.056202    -0.010070     1.082384
	   11 R(9,12)         =      1.530066    -0.013995    -0.004550     1.525516
	   12 R(9,13)         =      1.096566    -0.055121    -0.010216     1.086350
	   13 R(9,14)         =      1.094503    -0.052482    -0.009813     1.084691
	   14 R(12,15)        =      1.533197    -0.043432    -0.008892     1.524305
	   15 R(12,16)        =      1.098342    -0.065809    -0.012531     1.085811
	   16 R(12,17)        =      1.099105    -0.070023    -0.013565     1.085540
	   17 R(15,18)        =      1.087974    -0.024157    -0.004488     1.083486
	   18 R(15,19)        =      1.097039    -0.067375    -0.012892     1.084148
	   19 R(15,20)        =      1.096979    -0.068262    -0.012879     1.084100
	   20 B(1,2,3)        =    108.086056     0.000056     0.315382   108.401438
	   21 B(2,3,4)        =    111.347848     0.000218     0.458802   111.806650
	   22 B(2,3,5)        =    122.384783    -0.000203    -0.410993   121.973790
	   23 B(3,4,6)        =    113.419526     0.000118     0.361176   113.780702
	   24 B(3,4,7)        =    107.395488    -0.000073    -0.352641   107.042848
	   25 B(3,4,8)        =    106.947331    -0.000010     0.176990   107.124321
	   26 B(4,3,5)        =    126.267357    -0.000015    -0.048404   126.218953
	   27 B(4,6,9)        =    112.368196     0.000094     0.364930   112.733126
	   28 B(4,6,10)       =    108.415792    -0.000069    -0.286924   108.128868
	   29 B(4,6,11)       =    108.546286     0.000046     0.136632   108.682919
	   30 B(6,4,7)        =    111.342536    -0.000002     0.123564   111.466101
	   31 B(6,4,8)        =    111.519024    -0.000062    -0.330645   111.188379
	   32 B(6,9,12)       =    113.182363     0.000131     0.553425   113.735787
	   33 B(6,9,13)       =    110.642311    -0.000120    -0.492382   110.149928
[...]
	 B(4,6,9)         =         1.964191	     112.539880
	 B(4,6,10)        =         1.889026	     108.233208
	 B(4,6,11)        =         1.899656	     108.842264
	 B(6,4,7)         =         1.942451	     111.294270
	 B(6,4,8)         =         1.942362	     111.289160
	 B(6,9,12)        =         1.980243	     113.459595
	 B(6,9,13)        =         1.918275	     109.909055
	 B(6,9,14)        =         1.917164	     109.845417
	 B(7,4,8)         =         1.846129	     105.775372
	 B(9,6,10)        =         1.926027	     110.353244
	 B(9,6,11)        =         1.926489	     110.379681
	 B(9,12,15)       =         1.975065	     113.162907
	 B(9,12,16)       =         1.902867	     109.026248
	 B(9,12,17)       =         1.907595	     109.297125
	 B(10,6,11)       =         1.854758	     106.269827
	 B(12,9,13)       =         1.889524	     108.261752
	 B(12,9,14)       =         1.907374	     109.284472
	 B(12,15,18)      =         1.941278	     111.227013
	 B(12,15,19)      =         1.940274	     111.169526
	 B(12,15,20)      =         1.939808	     111.142809
	 B(13,9,14)       =         1.846277	     105.783866
	 B(15,12,16)      =         1.910855	     109.483955
	 B(15,12,17)      =         1.910118	     109.441673
	 B(16,12,17)      =         1.853370	     106.190281
	 B(18,15,19)      =         1.880409	     107.739522
	 B(18,15,20)      =         1.880419	     107.740050
	 B(19,15,20)      =         1.878850	     107.650149
	 D(1,2,3,4)       =        -3.140488	    -179.936736
	 D(1,2,3,5)       =         0.000290	       0.016618
	 D(2,3,4,6)       =        -3.139093	    -179.856780
	 D(2,3,4,7)       =        -0.984337	     -56.398357
	 D(2,3,4,8)       =         0.989886	      56.716272
	 D(3,4,6,9)       =         3.131427	     179.417524
	 D(3,4,6,10)      =         0.998251	      57.195570
	 D(3,4,6,11)      =        -1.010503	     -57.897541
	 D(4,6,9,12)      =         2.251188	     128.983556
	 D(4,6,9,13)      =         0.132976	       7.618982
	 D(4,6,9,14)      =        -1.891504	    -108.375214
	 D(5,3,4,6)       =         0.003353	       0.192124
	 D(5,3,4,7)       =         2.158109	     123.650547
	 D(5,3,4,8)       =        -2.150853	    -123.234824
	 D(6,9,12,15)     =         3.130078	     179.340236
	 D(6,9,12,16)     =        -1.022193	     -58.567368
	 D(6,9,12,17)     =         0.996687	      57.105975
	 D(7,4,6,9)       =         1.016647	      58.249591
	 D(7,4,6,10)      =        -1.116528	     -63.972362
	 D(7,4,6,11)      =        -3.125282	    -179.065473
	 D(8,4,6,9)       =        -1.037826	     -59.463026
	 D(8,4,6,10)      =         3.112184	     178.315021
	 D(8,4,6,11)      =         1.103430	      63.221909
	 D(9,12,15,18)    =         3.135747	     179.665056
	 D(9,12,15,19)    =         1.040265	      59.602783
	 D(9,12,15,20)    =        -1.052259	     -60.289974
	*D(10,6,9,12)     =        -1.919862	    -110.000017
	 D(10,6,9,13)     =         2.245111	     128.635409
	 D(10,6,9,14)     =         0.220631	      12.641212
	 D(11,6,9,12)     =         0.125084	       7.166808
	 D(11,6,9,13)     =        -1.993127	    -114.197765
	 D(11,6,9,14)     =         2.265578	     129.808038
	 D(13,9,12,15)    =        -1.018866	     -58.376748
	 D(13,9,12,16)    =         1.112048	      63.715649
	 D(13,9,12,17)    =         3.130929	     179.388991
	 D(14,9,12,15)    =         0.984184	      56.389614
	 D(14,9,12,16)    =         3.115099	     178.482011
	 D(14,9,12,17)    =        -1.149206	     -65.844647
	 D(16,12,15,18)   =         1.009304	      57.828884
	 D(16,12,15,19)   =        -1.086178	     -62.233389
	 D(16,12,15,20)   =         3.104484	     177.873854
	 D(17,12,15,18)   =        -1.015457	     -58.181398
	 D(17,12,15,19)   =        -3.110939	    -178.243671
	 D(17,12,15,20)   =         1.079723	      61.863573

	Current energy   :      -384.0914952581

	Energy change for the previous step:
		Projected    :        -0.0000003041
		Actual       :        -0.0000001008

	Performing BFGS update.
	Previous computed or guess Hessian on step 1.
	Steps to be used in Hessian update: 7 6
	Taking RFO optimization step.
	Going to follow RFO solution 1.
	Rejecting RFO root 1 because normalization gives large value.
	Using RFO vector 2.
	Norm of target step-size    0.00301
	Projected energy change by RFO approximation:         0.0000000538

	Back-transformation to cartesian coordinates...
	Successfully converged to displaced geometry.

	Back-transformation to cartesian coordinates to adjust frozen coordinates...
	Successfully converged to displaced geometry.

	--- Internal Coordinate Step in ANG or DEG, aJ/ANG or AJ/DEG ---
	 ---------------------------------------------------------------------------
	   Coordinate                Previous        Force       Change         New 
	   ----------                --------       ------       ------       ------
	    1 R(1,2)          =      0.945386    -0.000047    -0.000005     0.945381
	    2 R(2,3)          =      1.330139    -0.000021    -0.000004     1.330135
	    3 R(3,4)          =      1.504806    -0.000084    -0.000010     1.504795
	    4 R(3,5)          =      1.182450     0.000117     0.000002     1.182452
	    5 R(4,6)          =      1.523658    -0.000045    -0.000008     1.523650
	    6 R(4,7)          =      1.085180     0.000029     0.000002     1.085182
	    7 R(4,8)          =      1.085262    -0.000037    -0.000006     1.085256
	    8 R(6,9)          =      1.541328     0.000005    -0.000004     1.541324
	    9 R(6,10)         =      1.082282    -0.000000     0.000001     1.082283
	   10 R(6,11)         =      1.082627     0.000041     0.000004     1.082631
	   11 R(9,12)         =      1.527082    -0.000015     0.000003     1.527085
	   12 R(9,13)         =      1.086726     0.000011     0.000001     1.086727
	   13 R(9,14)         =      1.085144     0.000043     0.000006     1.085150
	   14 R(12,15)        =      1.524421    -0.000187    -0.000022     1.524399
	   15 R(12,16)        =      1.086637     0.000088     0.000013     1.086650
	   16 R(12,17)        =      1.086503     0.000098     0.000014     1.086517
	   17 R(15,18)        =      1.083835     0.000025     0.000003     1.083838
	   18 R(15,19)        =      1.085089     0.000102     0.000014     1.085104
	   19 R(15,20)        =      1.084917     0.000084     0.000013     1.084930
	   20 B(1,2,3)        =    108.435287    -0.000001    -0.003937   108.431350
	   21 B(2,3,4)        =    111.764046    -0.000001    -0.002265   111.761781
	   22 B(2,3,5)        =    122.120586     0.000002     0.002844   122.123430
	   23 B(3,4,6)        =    113.795646    -0.000001    -0.002280   113.793366
	   24 B(3,4,7)        =    107.139285    -0.000000    -0.002743   107.136542
	   25 B(3,4,8)        =    107.105198     0.000001     0.002440   107.107637
	   26 B(4,3,5)        =    126.115350    -0.000000    -0.000576   126.114773
	   27 B(4,6,9)        =    112.539880     0.000000     0.001339   112.541219
	   28 B(4,6,10)       =    108.233208     0.000000    -0.001480   108.231728
	   29 B(4,6,11)       =    108.842264    -0.000000     0.000461   108.842725
	   30 B(6,4,7)        =    111.294270     0.000000     0.001122   111.295392
	   31 B(6,4,8)        =    111.289160     0.000000     0.000558   111.289717
	   32 B(6,9,12)       =    113.459595    -0.000001    -0.000809   113.458786
	   33 B(6,9,13)       =    109.909055     0.000000     0.000857   109.909912
	   34 B(6,9,14)       =    109.845417     0.000001     0.000923   109.846340
	   35 B(7,4,8)        =    105.775372    -0.000000     0.001075   105.776446
	   36 B(9,6,10)       =    110.353244    -0.000001    -0.003664   110.349580
	   37 B(9,6,11)       =    110.379681     0.000001     0.004405   110.384085
	   38 B(9,12,15)      =    113.162907    -0.000001    -0.000737   113.162170
	   39 B(9,12,16)      =    109.026248     0.000000     0.000320   109.026568
	   40 B(9,12,17)      =    109.297125     0.000000     0.000707   109.297832
	   41 B(10,6,11)      =    106.269827    -0.000000    -0.001276   106.268551
	   42 B(12,9,13)      =    108.261752     0.000000     0.000762   108.262515
	   43 B(12,9,14)      =    109.284472     0.000000    -0.000503   109.283969
	   44 B(12,15,18)     =    111.227013    -0.000000    -0.000146   111.226866
	   45 B(12,15,19)     =    111.169526     0.000000     0.000797   111.170323
	   46 B(12,15,20)     =    111.142809    -0.000000     0.000153   111.142962
	   47 B(13,9,14)      =    105.783866    -0.000000    -0.001276   105.782590
	   48 B(15,12,16)     =    109.483955    -0.000000    -0.000273   109.483682
	   49 B(15,12,17)     =    109.441673    -0.000000    -0.001397   109.440276
	   50 B(16,12,17)     =    106.190281     0.000000     0.001535   106.191816
	   51 B(18,15,19)     =    107.739522     0.000000    -0.000297   107.739225
	   52 B(18,15,20)     =    107.740050     0.000000    -0.000335   107.739715
	   53 B(19,15,20)     =    107.650149     0.000000    -0.000221   107.649928
	   54 D(1,2,3,4)      =   -179.936736    -0.000000    -0.003363  -179.940099
	   55 D(1,2,3,5)      =      0.016618     0.000000     0.001090     0.017708
	   56 D(2,3,4,6)      =   -179.856780    -0.000000    -0.017014  -179.873793
	   57 D(2,3,4,7)      =    -56.398357    -0.000000    -0.019096   -56.417453
	   58 D(2,3,4,8)      =     56.716272     0.000000    -0.018006    56.698267
	   59 D(3,4,6,9)      =    179.417524    -0.000000    -0.053514   179.364010
	   60 D(3,4,6,10)     =     57.195570    -0.000000    -0.048723    57.146847
	   61 D(3,4,6,11)     =    -57.897541    -0.000000    -0.046674   -57.944214
	   62 D(4,6,9,12)     =    128.983556     0.000000     0.003572   128.987128
	   63 D(4,6,9,13)     =      7.618982     0.000000     0.002521     7.621503
	   64 D(4,6,9,14)     =   -108.375214    -0.000000     0.003036  -108.372178
	   65 D(5,3,4,6)      =      0.192124    -0.000000    -0.021684     0.170441
	   66 D(5,3,4,7)      =    123.650547    -0.000000    -0.023766   123.626781
	   67 D(5,3,4,8)      =   -123.234824    -0.000000    -0.022676  -123.257500
	   68 D(6,9,12,15)    =    179.340236     0.000000     0.015199   179.355435
	   69 D(6,9,12,16)    =    -58.567368    -0.000000     0.014584   -58.552784
	   70 D(6,9,12,17)    =     57.105975     0.000000     0.016984    57.122958
	   71 D(7,4,6,9)      =     58.249591    -0.000000    -0.049117    58.200475
	   72 D(7,4,6,10)     =    -63.972362     0.000000    -0.044326   -64.016688
	   73 D(7,4,6,11)     =   -179.065473     0.000000    -0.042277  -179.107750
	   74 D(8,4,6,9)      =    -59.463026    -0.000000    -0.051545   -59.514571
	   75 D(8,4,6,10)     =    178.315021    -0.000000    -0.046755   178.268266
	   76 D(8,4,6,11)     =     63.221909     0.000000    -0.044705    63.177204
	   77 D(9,12,15,18)   =    179.665056     0.000000     0.022003   179.687059
	   78 D(9,12,15,19)   =     59.602783     0.000000     0.021940    59.624723
	   79 D(9,12,15,20)   =    -60.289974    -0.000000     0.021584   -60.268390
	   80 *D(10,6,9,12)   =   -110.000017    -0.000000    -0.000000  -110.000017
	   81 D(10,6,9,13)    =    128.635409    -0.000000    -0.001051   128.634358
	   82 D(10,6,9,14)    =     12.641212    -0.000000    -0.000536    12.640677
	   83 D(11,6,9,12)    =      7.166808     0.000000    -0.001118     7.165690
	   84 D(11,6,9,13)    =   -114.197765    -0.000000    -0.002169  -114.199934
	   85 D(11,6,9,14)    =    129.808038    -0.000000    -0.001654   129.806385
	   86 D(13,9,12,15)   =    -58.376748     0.000000     0.016306   -58.360441
	   87 D(13,9,12,16)   =     63.715649    -0.000000     0.015691    63.731340
	   88 D(13,9,12,17)   =    179.388991     0.000000     0.018091   179.407082
	   89 D(14,9,12,15)   =     56.389614    -0.000000     0.014943    56.404558
	   90 D(14,9,12,16)   =    178.482011    -0.000000     0.014328   178.496338
	   91 D(14,9,12,17)   =    -65.844647     0.000000     0.016728   -65.827919
	   92 D(16,12,15,18)  =     57.828884     0.000000     0.022291    57.851175
	   93 D(16,12,15,19)  =    -62.233389     0.000000     0.022229   -62.211161
	   94 D(16,12,15,20)  =    177.873854     0.000000     0.021872   177.895727
	   95 D(17,12,15,18)  =    -58.181398     0.000000     0.021391   -58.160007
	   96 D(17,12,15,19)  =   -178.243671     0.000000     0.021328  -178.222343
	   97 D(17,12,15,20)  =     61.863573     0.000000     0.020972    61.884545
	 ---------------------------------------------------------------------------
	Successfully symmetrized geometry.

  ==> Convergence Check <==

  Measures of convergence in internal coordinates in au.
  Criteria marked as inactive (o), active & met (*), and active & unmet ( ).
  ---------------------------------------------------------------------------------------------
   Step     Total Energy     Delta E     MAX Force     RMS Force      MAX Disp      RMS Disp   
  ---------------------------------------------------------------------------------------------
    Convergence Criteria    1.00e-06 *    3.00e-04 *             o    1.20e-03 *             o
  ---------------------------------------------------------------------------------------------
      8    -384.09149526   -1.01e-07 *    2.40e-05 *    6.33e-06 o    9.34e-04 *    3.05e-04 o  ~
  ---------------------------------------------------------------------------------------------


  **** Optimization is complete! (in 8 steps) ****

  ==> Optimization Summary <==

  Measures of convergence in internal coordinates in au.
  --------------------------------------------------------------------------------------------------------------- ~
   Step         Total Energy             Delta E       MAX Force       RMS Force        MAX Disp        RMS Disp  ~
  --------------------------------------------------------------------------------------------------------------- ~
      1    -384.090792411569   -384.090792411569      0.00849864      0.00148245      0.11040748      0.03614460  ~
      2    -384.090217978510      0.000574433059      0.02135075      0.00354193      0.02563418      0.01073003  ~
      3    -384.091448938969     -0.001230960458      0.00158983      0.00038016      0.05860291      0.01831611  ~
      4    -384.091430798079      0.000018140890      0.00092116      0.00031150      0.03833812      0.01394999  ~
      5    -384.091318383565      0.000112414514      0.00136901      0.00047747      0.05057851      0.01623065  ~
      6    -384.091491043252     -0.000172659687      0.00076623      0.00013905      0.00797771      0.00279428  ~
      7    -384.091495157249     -0.000004113997      0.00008382      0.00002054      0.00205896      0.00068933  ~
      8    -384.091495258091     -0.000000100842      0.00002399      0.00000633      0.00093399      0.00030515  ~
  --------------------------------------------------------------------------------------------------------------- ~

	Writing optimization data to binary file.
	Final energy is   -384.0914952580912
	Final (previous) structure:
	Cartesian Geometry (in Angstrom)
	    H     3.5925793430  -1.5634277671  -0.7026854587
	    O     2.6873355540  -1.7415439963  -0.4963770783
	    C     2.0089578266  -0.5991204339  -0.5591535202
	    C     0.5516866358  -0.7973084071  -0.2405281321
	    O     2.5288079489   0.4264169622  -0.8352278675
	    C    -0.2708816443   0.4837386993  -0.3024324389
	    H     0.1719095036  -1.5432648128  -0.9311328598
	    H     0.4990642300  -1.2522064750   0.7433887007
	    C    -1.7603282278   0.2453961445   0.0144804602
	    H    -0.1598998567   0.9099902510  -1.2910311685
	    H     0.1508280532   1.2037233188   0.3873961539
	    C    -2.3130686667   1.1873334701   1.0818192269
	    H    -1.9077035990  -0.7767034803   0.3529565638
	    H    -2.3500588277   0.3443934230  -0.8910335524
	    C    -3.7904024780   0.9563845884   1.3784780701
	    H    -1.7366548270   1.0652975259   1.9948554203
	    H    -2.1643422860   2.2158767038   0.7648514627
	    H    -4.1481072571   1.6363196033   2.1429602534
	    H    -3.9663998531  -0.0558034817   1.7276476498
	    H    -4.3960989472   1.1082972250   0.4912925364
	Saving final (previous) structure.
			--------------------------
			 OPTKING Finished Execution 
			--------------------------

    Final optimized geometry and variables:
    Molecular point group: c1
    Full point group: C1

    Geometry (in Angstrom), charge = 0, multiplicity = 1:

    H            3.592579343042    -1.563427767095    -0.702685458729
    O            2.687335553959    -1.741543996270    -0.496377078253
    C            2.008957826600    -0.599120433906    -0.559153520238
    C            0.551686635818    -0.797308407112    -0.240528132114
    O            2.528807948942     0.426416962208    -0.835227867523
    C           -0.270881644252     0.483738699255    -0.302432438939
    H            0.171909503596    -1.543264812839    -0.931132859841
    H            0.499064230013    -1.252206475041     0.743388700662
    C           -1.760328227825     0.245396144526     0.014480460173
    H           -0.159899856696     0.909990250965    -1.291031168544
    H            0.150828053177     1.203723318789     0.387396153876
    C           -2.313068666693     1.187333470051     1.081819226854
    H           -1.907703599004    -0.776703480331     0.352956563833
    H           -2.350058827716     0.344393423028    -0.891033552372
    C           -3.790402477993     0.956384588364     1.378478070138
    H           -1.736654826988     1.065297525866     1.994855420270
    H           -2.164342285956     2.215876703832     0.764851462748
    H           -4.148107257052     1.636319603278     2.142960253445
    H           -3.966399853081    -0.055803481677     1.727647649755
    H           -4.396098947209     1.108297225033     0.491292536358

	Cleaning optimization helper files.


Properties will be evaluated at   0.000000,   0.000000,   0.000000 Bohr

Properties computed using the  density matrix

  Nuclear Dipole Moment: (a.u.)
     X:   -15.3634      Y:     3.0803      Z:     4.4836

  Electronic Dipole Moment: (a.u.)
     X:    15.0163      Y:    -3.6207      Z:    -4.3146

  Dipole Moment: (a.u.)
     X:    -0.3471      Y:    -0.5404      Z:     0.1689     Total:     0.6641

  Dipole Moment: (Debye)
     X:    -0.8823      Y:    -1.3736      Z:     0.4294     Total:     1.6880

  Quadrupole Moment: (Debye Ang)
    XX:   -49.5270     YY:   -52.5275     ZZ:   -49.8049
    XY:    -5.2218     XZ:     1.1766     YZ:     1.7441

  Traceless Quadrupole Moment: (Debye Ang)
    XX:     1.0928     YY:    -1.9077     ZZ:     0.8149
    XY:    -5.2218     XZ:     1.1766     YZ:     1.7441

  Mulliken Charges: (a.u.)
   Center  Symbol    Alpha    Beta     Spin     Total
       1     H     0.38238  0.38238  0.00000  0.23524
       2     O     4.16011  4.16011  0.00000 -0.32021
       3     C     2.80719  2.80719  0.00000  0.38563
       4     C     3.11024  3.11024  0.00000 -0.22048
       5     O     4.19117  4.19117  0.00000 -0.38234
       6     C     3.09137  3.09137  0.00000 -0.18274
       7     H     0.43627  0.43627  0.00000  0.12746
       8     H     0.43767  0.43767  0.00000  0.12465
       9     C     3.09360  3.09360  0.00000 -0.18721
      10     H     0.44202  0.44202  0.00000  0.11595
      11     H     0.44515  0.44515  0.00000  0.10971
      12     C     3.08343  3.08343  0.00000 -0.16686
      13     H     0.45653  0.45653  0.00000  0.08694
      14     H     0.44900  0.44900  0.00000  0.10200
      15     C     3.15043  3.15043  0.00000 -0.30085
      16     H     0.45435  0.45435  0.00000  0.09129
      17     H     0.45133  0.45133  0.00000  0.09734
      18     H     0.44774  0.44774  0.00000  0.10451
      19     H     0.45536  0.45536  0.00000  0.08929
      20     H     0.45465  0.45465  0.00000  0.09071

   Total alpha = 32.00000, Total beta = 32.00000, Total charge = -0.00000


*** Psi4 exiting successfully. Buy a developer a beer!
