    -----------------------------------------------------------------------
          Psi4: An Open-Source Ab Initio Electronic Structure Package
                              Psi4 (no tag) Driver

                          Git: Rev {detached?}  

    J. M. Turney, A. C. Simmonett, R. M. Parrish, E. G. Hohenstein,
    F. A. Evangelista, J. T. Fermann, B. J. Mintz, L. A. Burns, J. J. Wilke,
    M. L. Abrams, N. J. Russ, M. L. Leininger, C. L. Janssen, E. T. Seidl,
    W. D. Allen, H. F. Schaefer, R. A. King, E. F. Valeev, C. D. Sherrill,
    and T. D. Crawford, WIREs Comput. Mol. Sci. 2, 556-565 (2012)
    (doi: 10.1002/wcms.93)

                         Additional Contributions by
    A. E. DePrince, M. Saitow, U. Bozkaya, A. Yu. Sokolov
    -----------------------------------------------------------------------


    Psi4 started on: Thu Sep  1 22:49:59 2016

    Process ID:  22074
    PSI4DATADIR: /export131/home/mjharvey/miniconda3/share
    Memory level set to 256.000 MB

  ==> Input File <==

--------------------------------------------------------------------------
set {
	reference rhf
	basis 6-31G*
}


set_num_threads( 1 )
memory 2 gb

molecule MOL {
0 1

H	 -3.581306	 -0.272170	 0.702178
C	 -3.377600	 -0.051814	 -0.353080
C	 -2.525885	 1.167999	 -0.596485
O	 -3.818757	 -0.752290	 -1.205409
C	 -1.220012	 1.144545	 0.209990
H	 -2.335782	 1.245689	 -1.660691
H	 -3.115294	 2.034282	 -0.298482
C	 -0.252658	 0.041456	 -0.226725
H	 -0.735193	 2.110853	 0.107597
H	 -1.450926	 1.032563	 1.268241
C	 1.180775	 0.282413	 0.250794
H	 -0.266029	 -0.034465	 -1.312038
H	 -0.597733	 -0.921000	 0.146291
C	 2.148627	 -0.814315	 -0.201312
H	 1.516199	 1.249228	 -0.115937
H	 1.192670	 0.346017	 1.338083
C	 3.580890	 -0.659131	 0.322722
H	 2.166869	 -0.852443	 -1.289387
H	 1.762857	 -1.776509	 0.128956
C	 4.324889	 0.564933	 -0.213704
H	 4.142010	 -1.551473	 0.056605
H	 3.564836	 -0.624694	 1.410140
H	 4.342616	 0.565491	 -1.300421
H	 3.866655	 1.493402	 0.110242
H	 5.353900	 0.572371	 0.132816

	symmetry c1
}
set optking {
	frozen_dihedral = ("
		6 3 5 8,
		6 3 2 4,
		12 8 11 14,
		8 11 14 18,
		20 17 14 18
	")
}

ee = energy('scf')
oeprop('DIPOLE', 'QUADRUPOLE', 'MULLIKEN_CHARGES')
f=open( 'psi4out.xyz', 'w' )
f.write( "25  " )
f.write( str(ee) + "\n" )
f.write( MOL.save_string_xyz() )
f.close()
--------------------------------------------------------------------------

  Memory set to   2.000 GiB by Python script.

*** tstart() called on cx1-3-4-3.cx1.hpc.ic.ac.uk
*** at Thu Sep  1 22:50:00 2016


         ---------------------------------------------------------
                                   SCF
            by Justin Turney, Rob Parrish, and Andy Simmonett
                              RHF Reference
                        1 Threads,   2000 MiB Core
         ---------------------------------------------------------

  ==> Geometry <==

    Molecular point group: c1
    Full point group: C1

    Geometry (in Angstrom), charge = 0, multiplicity = 1:

       Center              X                  Y                   Z               Mass       
    ------------   -----------------  -----------------  -----------------  -----------------
           H         -3.590499017969    -0.371557117721     0.932854710790     1.007825032070
           C         -3.386793017969    -0.151201117721    -0.122403289210    12.000000000000
           C         -2.535078017969     1.068611882279    -0.365808289210    12.000000000000
           O         -3.827950017969    -0.851677117721    -0.974732289210    15.994914619560
           C         -1.229205017969     1.045157882279     0.440666710790    12.000000000000
           H         -2.344975017969     1.146301882279    -1.430014289210     1.007825032070
           H         -3.124487017969     1.934894882279    -0.067805289210     1.007825032070
           C         -0.261851017969    -0.057931117721     0.003951710790    12.000000000000
           H         -0.744386017969     2.011465882279     0.338273710790     1.007825032070
           H         -1.460119017969     0.933175882279     1.498917710790     1.007825032070
           C          1.171581982031     0.183025882279     0.481470710790    12.000000000000
           H         -0.275222017969    -0.133852117721    -1.081361289210     1.007825032070
           H         -0.606926017969    -1.020387117721     0.376967710790     1.007825032070
           C          2.139433982031    -0.913702117721     0.029364710790    12.000000000000
           H          1.507005982031     1.149840882279     0.114739710790     1.007825032070
           H          1.183476982031     0.246629882279     1.568759710790     1.007825032070
           C          3.571696982031    -0.758518117721     0.553398710790    12.000000000000
           H          2.157675982031    -0.951830117721    -1.058710289210     1.007825032070
           H          1.753663982031    -1.875896117721     0.359632710790     1.007825032070
           C          4.315695982031     0.465545882279     0.016972710790    12.000000000000
           H          4.132816982031    -1.650860117721     0.287281710790     1.007825032070
           H          3.555642982031    -0.724081117721     1.640816710790     1.007825032070
           H          4.333422982031     0.466103882279    -1.069744289210     1.007825032070
           H          3.857461982031     1.394014882279     0.340918710790     1.007825032070
           H          5.344706982031     0.472983882279     0.363492710790     1.007825032070

  Running in c1 symmetry.

  Rotational constants: A =      0.15317  B =      0.01546  C =      0.01470 [cm^-1]
  Rotational constants: A =   4591.98772  B =    463.54528  C =    440.65678 [MHz]
  Nuclear repulsion =  438.896061906910347

  Charge       = 0
  Multiplicity = 1
  Electrons    = 72
  Nalpha       = 36
  Nbeta        = 36

  ==> Algorithm <==

  SCF Algorithm Type is DF.
  DIIS enabled.
  MOM disabled.
  Fractional occupation disabled.
  Guess Type is CORE.
  Energy threshold   = 1.00e-06
  Density threshold  = 1.00e-06
  Integral threshold = 0.00e+00

  ==> Primary Basis <==

  Basis Set: 6-31G*
    Number of shells: 86
    Number of basis function: 167
    Number of Cartesian functions: 167
    Spherical Harmonics?: false
    Max angular momentum: 2

  ==> Pre-Iterations <==

   -------------------------------------------------------
    Irrep   Nso     Nmo     Nalpha   Nbeta   Ndocc  Nsocc
   -------------------------------------------------------
     A        167     167       0       0       0       0
   -------------------------------------------------------
    Total     167     167      36      36      36       0
   -------------------------------------------------------

 OEINTS: Overlap, kinetic, potential, dipole, and quadrupole integrals
         stored in file 35.

  ==> Integral Setup <==

  ==> DFJK: Density-Fitted J/K Matrices <==

    J tasked:                  Yes
    K tasked:                  Yes
    wK tasked:                  No
    OpenMP threads:              1
    Integrals threads:           1
    Memory (MB):              1430
    Algorithm:                Core
    Integral Cache:           NONE
    Schwarz Cutoff:          1E-12
    Fitting Condition:       1E-12

   => Auxiliary Basis Set <=

  Basis Set: 
    Number of shells: 360
    Number of basis function: 1129
    Number of Cartesian functions: 1129
    Spherical Harmonics?: false
    Max angular momentum: 3

  Minimum eigenvalue in the overlap matrix is 3.1011577216E-03.
  Using Symmetric Orthogonalization.
  SCF Guess: Core (One-Electron) Hamiltonian.

  ==> Iterations <==

                           Total Energy        Delta E     RMS |[F,P]|

   @DF-RHF iter   1:  -292.40562958097058   -2.92406e+02   5.76466e-02 
   @DF-RHF iter   2:   -32.35228942167078    2.60053e+02   7.51922e-02 DIIS
   @DF-RHF iter   3:  -268.03844099895986   -2.35686e+02   4.45788e-02 DIIS
   @DF-RHF iter   4:  -205.08986381805352    6.29486e+01   6.69215e-02 DIIS
   @DF-RHF iter   5:  -321.59673714872787   -1.16507e+02   3.56951e-02 DIIS
   @DF-RHF iter   6:  -352.62658826962848   -3.10299e+01   3.26928e-02 DIIS
   @DF-RHF iter   7:  -379.44164244376947   -2.68151e+01   1.42200e-02 DIIS
   @DF-RHF iter   8:  -386.60467178664459   -7.16303e+00   5.83305e-03 DIIS
   @DF-RHF iter   9:  -387.08568462781551   -4.81013e-01   1.40032e-03 DIIS
   @DF-RHF iter  10:  -387.11224185473776   -2.65572e-02   6.75220e-04 DIIS
   @DF-RHF iter  11:  -387.11927439130244   -7.03254e-03   2.92178e-04 DIIS
   @DF-RHF iter  12:  -387.12071093308310   -1.43654e-03   1.11720e-04 DIIS
   @DF-RHF iter  13:  -387.12096563386996   -2.54701e-04   4.26155e-05 DIIS
   @DF-RHF iter  14:  -387.12099836165493   -3.27278e-05   1.55109e-05 DIIS
   @DF-RHF iter  15:  -387.12100429557364   -5.93392e-06   3.21822e-06 DIIS
   @DF-RHF iter  16:  -387.12100458450544   -2.88932e-07   1.15424e-06 DIIS
   @DF-RHF iter  17:  -387.12100461671861   -3.22132e-08   2.63121e-07 DIIS

  ==> Post-Iterations <==

    Orbital Energies (a.u.)
    -----------------------

    Doubly Occupied:                                                      

       1A    -20.561875     2A    -11.326020     3A    -11.235155  
       4A    -11.234571     5A    -11.223560     6A    -11.219958  
       7A    -11.218013     8A    -11.216932     9A    -11.210668  
      10A     -1.401817    11A     -1.103993    12A     -1.069701  
      13A     -1.013349    14A     -0.942430    15A     -0.875084  
      16A     -0.820945    17A     -0.787669    18A     -0.781723  
      19A     -0.664812    20A     -0.660832    21A     -0.633229  
      22A     -0.625883    23A     -0.600556    24A     -0.595143  
      25A     -0.576805    26A     -0.547354    27A     -0.536792  
      28A     -0.524696    29A     -0.508488    30A     -0.495760  
      31A     -0.491889    32A     -0.478272    33A     -0.464406  
      34A     -0.459251    35A     -0.441040    36A     -0.409280  

    Virtual:                                                              

      37A      0.160502    38A      0.222907    39A      0.240118  
      40A      0.253282    41A      0.260904    42A      0.272543  
      43A      0.282450    44A      0.301855    45A      0.305590  
      46A      0.311135    47A      0.312860    48A      0.327647  
      49A      0.334955    50A      0.338769    51A      0.350154  
      52A      0.356848    53A      0.373927    54A      0.389101  
      55A      0.397201    56A      0.423711    57A      0.429430  
      58A      0.467101    59A      0.472558    60A      0.474357  
      61A      0.501978    62A      0.682190    63A      0.699008  
      64A      0.717705    65A      0.729834    66A      0.747521  
      67A      0.754863    68A      0.776904    69A      0.785684  
      70A      0.811376    71A      0.848307    72A      0.875980  
      73A      0.891609    74A      0.921538    75A      0.939586  
      76A      0.954638    77A      0.967458    78A      0.976604  
      79A      0.989306    80A      1.019120    81A      1.049561  
      82A      1.068452    83A      1.099375    84A      1.114695  
      85A      1.120277    86A      1.123294    87A      1.134104  
      88A      1.146948    89A      1.158743    90A      1.172292  
      91A      1.180667    92A      1.189257    93A      1.193881  
      94A      1.205741    95A      1.214039    96A      1.217057  
      97A      1.231350    98A      1.244352    99A      1.250642  
     100A      1.261921   101A      1.282997   102A      1.293983  
     103A      1.340359   104A      1.354038   105A      1.390337  
     106A      1.450251   107A      1.484570   108A      1.591929  
     109A      1.639552   110A      1.692063   111A      1.726264  
     112A      1.768039   113A      1.773995   114A      1.836567  
     115A      1.848666   116A      1.877515   117A      1.895622  
     118A      1.940561   119A      1.966101   120A      2.066760  
     121A      2.070803   122A      2.114644   123A      2.136800  
     124A      2.153768   125A      2.172017   126A      2.200078  
     127A      2.224154   128A      2.248423   129A      2.261381  
     130A      2.294268   131A      2.299479   132A      2.332084  
     133A      2.351429   134A      2.359686   135A      2.406900  
     136A      2.422168   137A      2.468672   138A      2.512079  
     139A      2.578258   140A      2.614832   141A      2.633502  
     142A      2.660504   143A      2.686922   144A      2.718986  
     145A      2.731942   146A      2.768313   147A      2.777008  
     148A      2.831546   149A      2.900347   150A      2.943277  
     151A      2.964976   152A      2.980306   153A      3.005883  
     154A      3.018717   155A      3.130974   156A      3.197037  
     157A      3.264603   158A      3.369639   159A      4.316369  
     160A      4.523970   161A      4.573029   162A      4.642585  
     163A      4.732202   164A      4.819980   165A      4.873015  
     166A      4.917106   167A      5.006148  

    Final Occupation by Irrep:
              A 
    DOCC [    36 ]

  Energy converged.

  @DF-RHF Final Energy:  -387.12100461671861

   => Energetics <=

    Nuclear Repulsion Energy =            438.8960619069103473
    One-Electron Energy =               -1394.1182259317238277
    Two-Electron Energy =                 568.1011594080938494
    DFT Exchange-Correlation Energy =       0.0000000000000000
    Empirical Dispersion Energy =           0.0000000000000000
    PCM Polarization Energy =               0.0000000000000000
    EFP Energy =                            0.0000000000000000
    Total Energy =                       -387.1210046167196879

    Alert: EFP and PCM quantities not currently incorporated into SCF psivars.

Properties will be evaluated at   0.000000,   0.000000,   0.000000 Bohr
  ==> Properties <==


Properties computed using the SCF density matrix

  Nuclear Dipole Moment: (a.u.)
     X:    14.6804      Y:     2.8336      Z:     2.9156

  Electronic Dipole Moment: (a.u.)
     X:   -14.0346      Y:    -2.0890      Z:    -2.1941

  Dipole Moment: (a.u.)
     X:     0.6459      Y:     0.7446      Z:     0.7215     Total:     1.2215

  Dipole Moment: (Debye)
     X:     1.6416      Y:     1.8926      Z:     1.8339     Total:     3.1048


  Saving occupied orbitals to File 180.

*** tstop() called on cx1-3-4-3.cx1.hpc.ic.ac.uk at Thu Sep  1 22:50:27 2016
Module time:
	user time   =      26.66 seconds =       0.44 minutes
	system time =       0.27 seconds =       0.00 minutes
	total time  =         27 seconds =       0.45 minutes
Total time:
	user time   =      26.66 seconds =       0.44 minutes
	system time =       0.27 seconds =       0.00 minutes
	total time  =         27 seconds =       0.45 minutes


Properties will be evaluated at   0.000000,   0.000000,   0.000000 Bohr

Properties computed using the  density matrix

  Nuclear Dipole Moment: (a.u.)
     X:    14.6804      Y:     2.8336      Z:     2.9156

  Electronic Dipole Moment: (a.u.)
     X:   -14.0346      Y:    -2.0890      Z:    -2.1941

  Dipole Moment: (a.u.)
     X:     0.6459      Y:     0.7446      Z:     0.7215     Total:     1.2215

  Dipole Moment: (Debye)
     X:     1.6416      Y:     1.8926      Z:     1.8339     Total:     3.1048

  Quadrupole Moment: (Debye Ang)
    XX:   -68.0691     YY:   -59.6003     ZZ:   -59.9846
    XY:    -7.7408     XZ:    -7.5938     YZ:    -2.2675

  Traceless Quadrupole Moment: (Debye Ang)
    XX:    -5.5178     YY:     2.9510     ZZ:     2.5668
    XY:    -7.7408     XZ:    -7.5938     YZ:    -2.2675

  Mulliken Charges: (a.u.)
   Center  Symbol    Alpha    Beta     Spin     Total
       1     H     0.43268  0.43268  0.00000  0.13464
       2     C     2.83059  2.83059  0.00000  0.33883
       3     C     3.20897  3.20897  0.00000 -0.41794
       4     O     4.23763  4.23763  0.00000 -0.47525
       5     C     3.16641  3.16641  0.00000 -0.33281
       6     H     0.39960  0.39960  0.00000  0.20080
       7     H     0.40693  0.40693  0.00000  0.18614
       8     C     3.15552  3.15552  0.00000 -0.31104
       9     H     0.41281  0.41281  0.00000  0.17438
      10     H     0.41874  0.41874  0.00000  0.16253
      11     C     3.15469  3.15469  0.00000 -0.30939
      12     H     0.41670  0.41670  0.00000  0.16661
      13     H     0.41904  0.41904  0.00000  0.16192
      14     C     3.15319  3.15319  0.00000 -0.30637
      15     H     0.42066  0.42066  0.00000  0.15869
      16     H     0.42361  0.42361  0.00000  0.15279
      17     C     3.15274  3.15274  0.00000 -0.30549
      18     H     0.42264  0.42264  0.00000  0.15472
      19     H     0.42104  0.42104  0.00000  0.15791
      20     C     3.24135  3.24135  0.00000 -0.48270
      21     H     0.42000  0.42000  0.00000  0.16000
      22     H     0.42330  0.42330  0.00000  0.15340
      23     H     0.42177  0.42177  0.00000  0.15646
      24     H     0.42073  0.42073  0.00000  0.15854
      25     H     0.41867  0.41867  0.00000  0.16265

   Total alpha = 36.00000, Total beta = 36.00000, Total charge =  0.00000


*** PSI4 exiting successfully. Buy a developer a beer!
