    -----------------------------------------------------------------------
          Psi4: An Open-Source Ab Initio Electronic Structure Package
                              Psi4 (no tag) Driver

                          Git: Rev {detached?}  

    J. M. Turney, A. C. Simmonett, R. M. Parrish, E. G. Hohenstein,
    F. A. Evangelista, J. T. Fermann, B. J. Mintz, L. A. Burns, J. J. Wilke,
    M. L. Abrams, N. J. Russ, M. L. Leininger, C. L. Janssen, E. T. Seidl,
    W. D. Allen, H. F. Schaefer, R. A. King, E. F. Valeev, C. D. Sherrill,
    and T. D. Crawford, WIREs Comput. Mol. Sci. 2, 556-565 (2012)
    (doi: 10.1002/wcms.93)

                         Additional Contributions by
    A. E. DePrince, M. Saitow, U. Bozkaya, A. Yu. Sokolov
    -----------------------------------------------------------------------


    Psi4 started on: Thu Sep  1 23:24:21 2016

    Process ID:  20777
    PSI4DATADIR: /export131/home/mjharvey/miniconda3/share
    Memory level set to 256.000 MB

  ==> Input File <==

--------------------------------------------------------------------------
set {
	reference rhf
	basis 6-31G*
}


set_num_threads( 1 )
memory 2 gb

molecule MOL {
0 1

H	 -3.420663	 1.227371	 -1.044276
O	 -3.452007	 0.283848	 -0.965577
C	 -3.181085	 -0.079926	 0.364119
C	 -1.765924	 0.277073	 0.805136
H	 -3.327791	 -1.152017	 0.410903
H	 -3.905698	 0.375695	 1.036898
C	 -1.199385	 1.509931	 0.099719
H	 -1.759997	 0.435789	 1.883902
H	 -1.123313	 -0.582431	 0.622042
C	 0.212122	 1.872669	 0.565816
H	 -1.866332	 2.351195	 0.261478
H	 -1.189695	 1.330465	 -0.974102
C	 0.774777	 3.104161	 -0.148979
H	 0.197485	 2.040959	 1.640005
H	 0.877425	 1.026529	 0.398408
C	 2.220809	 3.455146	 0.219740
H	 0.134954	 3.961496	 0.054242
H	 0.723738	 2.936597	 -1.222820
C	 2.417694	 3.896711	 1.671174
H	 2.559002	 4.253906	 -0.435926
H	 2.862332	 2.601054	 0.011946
H	 1.778803	 4.742378	 1.911599
H	 3.445423	 4.200259	 1.845728
H	 2.190800	 3.100681	 2.372614

	symmetry c1
}
set optking {
	frozen_dihedral = ("
		20 16 13 17,
		17 13 10 7,
		13 10 7 11,
		11 7 4 3,
		1 2 3 5
	")
}

ee = energy('scf')
oeprop('DIPOLE', 'QUADRUPOLE', 'MULLIKEN_CHARGES')
f=open( 'psi4out.xyz', 'w' )
f.write( "24  " )
f.write( str(ee) + "\n" )
f.write( MOL.save_string_xyz() )
f.close()
--------------------------------------------------------------------------

  Memory set to   2.000 GiB by Python script.

*** tstart() called on cx1-3-15-4.cx1.hpc.ic.ac.uk
*** at Thu Sep  1 23:24:21 2016


         ---------------------------------------------------------
                                   SCF
            by Justin Turney, Rob Parrish, and Andy Simmonett
                              RHF Reference
                        1 Threads,   2000 MiB Core
         ---------------------------------------------------------

  ==> Geometry <==

    Molecular point group: c1
    Full point group: C1

    Geometry (in Angstrom), charge = 0, multiplicity = 1:

       Center              X                  Y                   Z               Mass       
    ------------   -----------------  -----------------  -----------------  -----------------
           H         -2.875501144829    -0.547311035183    -1.357035468780     1.007825032070
           O         -2.906845144829    -1.490834035183    -1.278336468780    15.994914619560
           C         -2.635923144829    -1.854608035183     0.051359531220    12.000000000000
           C         -1.220762144829    -1.497609035183     0.492376531220    12.000000000000
           H         -2.782629144829    -2.926699035183     0.098143531220     1.007825032070
           H         -3.360536144829    -1.398987035183     0.724138531220     1.007825032070
           C         -0.654223144829    -0.264751035183    -0.213040468780    12.000000000000
           H         -1.214835144829    -1.338893035183     1.571142531220     1.007825032070
           H         -0.578151144829    -2.357113035183     0.309282531220     1.007825032070
           C          0.757283855171     0.097986964817     0.253056531220    12.000000000000
           H         -1.321170144829     0.576512964817    -0.051281468780     1.007825032070
           H         -0.644533144829    -0.444217035183    -1.286861468780     1.007825032070
           C          1.319938855171     1.329478964817    -0.461738468780    12.000000000000
           H          0.742646855171     0.266276964817     1.327245531220     1.007825032070
           H          1.422586855171    -0.748153035183     0.085648531220     1.007825032070
           C          2.765970855171     1.680463964817    -0.093019468780    12.000000000000
           H          0.680115855171     2.186813964817    -0.258517468780     1.007825032070
           H          1.268899855171     1.161914964817    -1.535579468780     1.007825032070
           C          2.962855855171     2.122028964817     1.358414531220    12.000000000000
           H          3.104163855171     2.479223964817    -0.748685468780     1.007825032070
           H          3.407493855171     0.826371964817    -0.300813468780     1.007825032070
           H          2.323964855171     2.967695964817     1.598839531220     1.007825032070
           H          3.990584855171     2.425576964817     1.532968531220     1.007825032070
           H          2.735961855171     1.325998964817     2.059854531220     1.007825032070

  Running in c1 symmetry.

  Rotational constants: A =      0.20474  B =      0.02036  C =      0.01930 [cm^-1]
  Rotational constants: A =   6138.05278  B =    610.29226  C =    578.46100 [MHz]
  Nuclear repulsion =  386.624530746380458

  Charge       = 0
  Multiplicity = 1
  Electrons    = 66
  Nalpha       = 33
  Nbeta        = 33

  ==> Algorithm <==

  SCF Algorithm Type is DF.
  DIIS enabled.
  MOM disabled.
  Fractional occupation disabled.
  Guess Type is CORE.
  Energy threshold   = 1.00e-06
  Density threshold  = 1.00e-06
  Integral threshold = 0.00e+00

  ==> Primary Basis <==

  Basis Set: 6-31G*
    Number of shells: 80
    Number of basis function: 152
    Number of Cartesian functions: 152
    Spherical Harmonics?: false
    Max angular momentum: 2

  ==> Pre-Iterations <==

   -------------------------------------------------------
    Irrep   Nso     Nmo     Nalpha   Nbeta   Ndocc  Nsocc
   -------------------------------------------------------
     A        152     152       0       0       0       0
   -------------------------------------------------------
    Total     152     152      33      33      33       0
   -------------------------------------------------------

 OEINTS: Overlap, kinetic, potential, dipole, and quadrupole integrals
         stored in file 35.

  ==> Integral Setup <==

  ==> DFJK: Density-Fitted J/K Matrices <==

    J tasked:                  Yes
    K tasked:                  Yes
    wK tasked:                  No
    OpenMP threads:              1
    Integrals threads:           1
    Memory (MB):              1430
    Algorithm:                Core
    Integral Cache:           NONE
    Schwarz Cutoff:          1E-12
    Fitting Condition:       1E-12

   => Auxiliary Basis Set <=

  Basis Set: 
    Number of shells: 336
    Number of basis function: 1048
    Number of Cartesian functions: 1048
    Spherical Harmonics?: false
    Max angular momentum: 3

  Minimum eigenvalue in the overlap matrix is 2.9443622721E-03.
  Using Symmetric Orthogonalization.
  SCF Guess: Core (One-Electron) Hamiltonian.

  ==> Iterations <==

                           Total Energy        Delta E     RMS |[F,P]|

   @DF-RHF iter   1:  -267.09135512960262   -2.67091e+02   6.08395e-02 
   @DF-RHF iter   2:   -63.57320211215534    2.03518e+02   7.89214e-02 DIIS
   @DF-RHF iter   3:  -233.46807709667343   -1.69895e+02   5.37959e-02 DIIS
   @DF-RHF iter   4:  -222.94758658085385    1.05205e+01   6.18893e-02 DIIS
   @DF-RHF iter   5:  -347.80586064642324   -1.24858e+02   1.08869e-02 DIIS
   @DF-RHF iter   6:  -349.05753192833419   -1.25167e+00   4.18235e-03 DIIS
   @DF-RHF iter   7:  -349.23488545040863   -1.77354e-01   6.62616e-04 DIIS
   @DF-RHF iter   8:  -349.24132264169958   -6.43719e-03   1.84661e-04 DIIS
   @DF-RHF iter   9:  -349.24191502332820   -5.92382e-04   6.48270e-05 DIIS
   @DF-RHF iter  10:  -349.24197124389053   -5.62206e-05   2.09370e-05 DIIS
   @DF-RHF iter  11:  -349.24197858078304   -7.33689e-06   6.98313e-06 DIIS
   @DF-RHF iter  12:  -349.24197956786878   -9.87086e-07   1.83257e-06 DIIS
   @DF-RHF iter  13:  -349.24197963913804   -7.12693e-08   6.41736e-07 DIIS

  ==> Post-Iterations <==

    Orbital Energies (a.u.)
    -----------------------

    Doubly Occupied:                                                      

       1A    -20.551536     2A    -11.266380     3A    -11.219522  
       4A    -11.216641     5A    -11.216521     6A    -11.215878  
       7A    -11.215196     8A    -11.209391     9A     -1.359479  
      10A     -1.091902    11A     -1.049700    12A     -0.987787  
      13A     -0.920712    14A     -0.854749    15A     -0.793785  
      16A     -0.780307    17A     -0.692663    18A     -0.650968  
      19A     -0.626845    20A     -0.611102    21A     -0.606864  
      22A     -0.587581    23A     -0.560389    24A     -0.541068  
      25A     -0.520975    26A     -0.512157    27A     -0.491945  
      28A     -0.487166    29A     -0.468665    30A     -0.462695  
      31A     -0.456181    32A     -0.443978    33A     -0.423116  

    Virtual:                                                              

      34A      0.219161    35A      0.228821    36A      0.253135  
      37A      0.262178    38A      0.276460    39A      0.281183  
      40A      0.291750    41A      0.312685    42A      0.317382  
      43A      0.321774    44A      0.334200    45A      0.342127  
      46A      0.350542    47A      0.362791    48A      0.365737  
      49A      0.382852    50A      0.394951    51A      0.403541  
      52A      0.417890    53A      0.441804    54A      0.456174  
      55A      0.498783    56A      0.512929    57A      0.707874  
      58A      0.714808    59A      0.726621    60A      0.733677  
      61A      0.753433    62A      0.762226    63A      0.796670  
      64A      0.813424    65A      0.835736    66A      0.870422  
      67A      0.889038    68A      0.935920    69A      0.940895  
      70A      0.961628    71A      0.979783    72A      0.995278  
      73A      1.035143    74A      1.065625    75A      1.076029  
      76A      1.106261    77A      1.119741    78A      1.127738  
      79A      1.145223    80A      1.159978    81A      1.165092  
      82A      1.172100    83A      1.185082    84A      1.189878  
      85A      1.197192    86A      1.201180    87A      1.212290  
      88A      1.222493    89A      1.230400    90A      1.252592  
      91A      1.260498    92A      1.280777    93A      1.286276  
      94A      1.292231    95A      1.383173    96A      1.410108  
      97A      1.470068    98A      1.502527    99A      1.588666  
     100A      1.652587   101A      1.695775   102A      1.716114  
     103A      1.749783   104A      1.770463   105A      1.844935  
     106A      1.876115   107A      1.895180   108A      1.943146  
     109A      2.016197   110A      2.049139   111A      2.059798  
     112A      2.128559   113A      2.162907   114A      2.190897  
     115A      2.211703   116A      2.247839   117A      2.268631  
     118A      2.298083   119A      2.315535   120A      2.331943  
     121A      2.343200   122A      2.373349   123A      2.405466  
     124A      2.455747   125A      2.471495   126A      2.524395  
     127A      2.599957   128A      2.610081   129A      2.636822  
     130A      2.673406   131A      2.687532   132A      2.728370  
     133A      2.738392   134A      2.782578   135A      2.796190  
     136A      2.822816   137A      2.888222   138A      2.960701  
     139A      2.980235   140A      2.991247   141A      3.056276  
     142A      3.142380   143A      3.169406   144A      3.245264  
     145A      4.197434   146A      4.554640   147A      4.621444  
     148A      4.700948   149A      4.784055   150A      4.857639  
     151A      4.918199   152A      5.016899  

    Final Occupation by Irrep:
              A 
    DOCC [    33 ]

  Energy converged.

  @DF-RHF Final Energy:  -349.24197963913804

   => Energetics <=

    Nuclear Repulsion Energy =            386.6245307463804579
    One-Electron Energy =               -1239.5452466960707625
    Two-Electron Energy =                 503.6787363105532904
    DFT Exchange-Correlation Energy =       0.0000000000000000
    Empirical Dispersion Energy =           0.0000000000000000
    PCM Polarization Energy =               0.0000000000000000
    EFP Energy =                            0.0000000000000000
    Total Energy =                       -349.2419796391369573

    Alert: EFP and PCM quantities not currently incorporated into SCF psivars.

Properties will be evaluated at   0.000000,   0.000000,   0.000000 Bohr
  ==> Properties <==


Properties computed using the SCF density matrix

  Nuclear Dipole Moment: (a.u.)
     X:     6.4537      Y:     4.1693      Z:     3.5267

  Electronic Dipole Moment: (a.u.)
     X:    -6.2143      Y:    -3.7214      Z:    -3.0414

  Dipole Moment: (a.u.)
     X:     0.2394      Y:     0.4479      Z:     0.4853     Total:     0.7024

  Dipole Moment: (Debye)
     X:     0.6084      Y:     1.1384      Z:     1.2335     Total:     1.7854


  Saving occupied orbitals to File 180.

*** tstop() called on cx1-3-15-4.cx1.hpc.ic.ac.uk at Thu Sep  1 23:24:38 2016
Module time:
	user time   =      16.80 seconds =       0.28 minutes
	system time =       0.18 seconds =       0.00 minutes
	total time  =         17 seconds =       0.28 minutes
Total time:
	user time   =      16.80 seconds =       0.28 minutes
	system time =       0.18 seconds =       0.00 minutes
	total time  =         17 seconds =       0.28 minutes


Properties will be evaluated at   0.000000,   0.000000,   0.000000 Bohr

Properties computed using the  density matrix

  Nuclear Dipole Moment: (a.u.)
     X:     6.4537      Y:     4.1693      Z:     3.5267

  Electronic Dipole Moment: (a.u.)
     X:    -6.2143      Y:    -3.7214      Z:    -3.0414

  Dipole Moment: (a.u.)
     X:     0.2394      Y:     0.4479      Z:     0.4853     Total:     0.7024

  Dipole Moment: (Debye)
     X:     0.6084      Y:     1.1384      Z:     1.2335     Total:     1.7854

  Quadrupole Moment: (Debye Ang)
    XX:   -56.7073     YY:   -54.6985     ZZ:   -55.9022
    XY:    -4.5572     XZ:    -4.5490     YZ:    -4.2655

  Traceless Quadrupole Moment: (Debye Ang)
    XX:    -0.9380     YY:     1.0708     ZZ:    -0.1329
    XY:    -4.5572     XZ:    -4.5490     YZ:    -4.2655

  Mulliken Charges: (a.u.)
   Center  Symbol    Alpha    Beta     Spin     Total
       1     H     0.27872  0.27872  0.00000  0.44256
       2     O     4.37038  4.37038  0.00000 -0.74076
       3     C     2.99556  2.99556  0.00000  0.00888
       4     C     3.16732  3.16732  0.00000 -0.33463
       5     H     0.41419  0.41419  0.00000  0.17163
       6     H     0.43069  0.43069  0.00000  0.13862
       7     C     3.16782  3.16782  0.00000 -0.33565
       8     H     0.42219  0.42219  0.00000  0.15562
       9     H     0.41780  0.41780  0.00000  0.16440
      10     C     3.15256  3.15256  0.00000 -0.30512
      11     H     0.42961  0.42961  0.00000  0.14077
      12     H     0.41124  0.41124  0.00000  0.17753
      13     C     3.15286  3.15286  0.00000 -0.30573
      14     H     0.42165  0.42165  0.00000  0.15669
      15     H     0.42180  0.42180  0.00000  0.15640
      16     C     3.15254  3.15254  0.00000 -0.30508
      17     H     0.42508  0.42508  0.00000  0.14985
      18     H     0.42165  0.42165  0.00000  0.15671
      19     C     3.24125  3.24125  0.00000 -0.48249
      20     H     0.42072  0.42072  0.00000  0.15856
      21     H     0.42284  0.42284  0.00000  0.15433
      22     H     0.42251  0.42251  0.00000  0.15498
      23     H     0.41894  0.41894  0.00000  0.16211
      24     H     0.42009  0.42009  0.00000  0.15981

   Total alpha = 33.00000, Total beta = 33.00000, Total charge =  0.00000


*** PSI4 exiting successfully. Buy a developer a beer!
