    -----------------------------------------------------------------------
          Psi4: An Open-Source Ab Initio Electronic Structure Package
                              Psi4 1.0.54 Driver

                          Git: Rev {master} 8d4cec3 dirty

    J. M. Turney, A. C. Simmonett, R. M. Parrish, E. G. Hohenstein,
    F. A. Evangelista, J. T. Fermann, B. J. Mintz, L. A. Burns, J. J. Wilke,
    M. L. Abrams, N. J. Russ, M. L. Leininger, C. L. Janssen, E. T. Seidl,
    W. D. Allen, H. F. Schaefer, R. A. King, E. F. Valeev, C. D. Sherrill,
    and T. D. Crawford, WIREs Comput. Mol. Sci. 2, 556-565 (2012)
    (doi: 10.1002/wcms.93)

                         Additional Contributions by
    A. E. DePrince, U. Bozkaya, A. Yu. Sokolov, D. G. A. Smith, R. Di Remigio,
    R. M. Richard, J. F. Gonthier, H. R. McAlexander, M. Saitow, and
    B. P. Pritchard
    -----------------------------------------------------------------------


    Psi4 started on: Sat Sep 10 18:27:05 2016

    Process ID:  14401
    PSI4DATADIR: /export131/home/mjharvey/miniconda3/share/psi4
    Memory level set to 256.000 MB

  ==> Input File <==

--------------------------------------------------------------------------
set {
	reference rhf
	basis cc-pvtz
}


set_num_threads( 4 )
memory 2 gb

molecule MOL {
0 1

H	 -2.483218	 1.445524	 -0.946672
O	 -1.655211	 0.991526	 -0.991463
C	 -1.605397	 0.107680	 0.001145
C	 -0.310616	 -0.658853	 0.000791
O	 -2.493097	 -0.024382	 0.770897
C	 0.926581	 0.227233	 0.000178
H	 -0.327628	 -1.313681	 -0.864448
H	 -0.327041	 -1.313334	 0.866298
C	 2.220156	 -0.582071	 -0.000088
H	 0.899945	 0.878221	 -0.866390
H	 0.900542	 0.878581	 0.866486
C	 3.466689	 0.296012	 -0.000457
H	 2.239073	 -1.234095	 -0.869382
H	 2.239505	 -1.233985	 0.869270
H	 3.493549	 0.935857	 -0.875887
H	 4.368821	 -0.304526	 -0.001199
H	 3.494559	 0.935166	 0.875458

	symmetry c1
}
set optking {
	frozen_dihedral = ("
		2 3 4 7
	")
}

ee,wfn = optimize('scf', return_wfn=True)
oeprop( wfn, 'DIPOLE', 'QUADRUPOLE', 'MULLIKEN_CHARGES')
f=open( 'psi4out.xyz', 'w' )
f.write( "17  " )
f.write( str(ee) + "\n" )
f.write( MOL.save_string_xyz() )
f.close()
--------------------------------------------------------------------------

  Memory set to   2.000 GiB by Python script.
gradient() will perform analytic gradient computation.

*** tstart() called on cx1-27-3-1
*** at Sat Sep 10 18:27:05 2016


         ---------------------------------------------------------
                                   SCF
            by Justin Turney, Rob Parrish, and Andy Simmonett
                              RHF Reference
                        4 Threads,   2000 MiB Core
         ---------------------------------------------------------

  ==> Geometry <==

    Molecular point group: c1
    Full point group: C1

    Geometry (in Angstrom), charge = 0, multiplicity = 1:

       Center              X                  Y                   Z               Mass       
    ------------   -----------------  -----------------  -----------------  -----------------
           H         -2.528566936676     1.368902859976    -0.902946493612     1.007825032070
           O         -1.700559936676     0.914904859976    -0.947737493612    15.994914619560
           C         -1.650745936676     0.031058859976     0.044870506388    12.000000000000
           C         -0.355964936676    -0.735474140024     0.044516506388    12.000000000000
           O         -2.538445936676    -0.101003140024     0.814622506388    15.994914619560
           C          0.881232063324     0.150611859976     0.043903506388    12.000000000000
           H         -0.372976936676    -1.390302140024    -0.820722493612     1.007825032070
           H         -0.372389936676    -1.389955140024     0.910023506388     1.007825032070
           C          2.174807063324    -0.658692140024     0.043637506388    12.000000000000
           H          0.854596063324     0.801599859976    -0.822664493612     1.007825032070
           H          0.855193063324     0.801959859976     0.910211506388     1.007825032070
           C          3.421340063324     0.219390859976     0.043268506388    12.000000000000
           H          2.193724063324    -1.310716140024    -0.825656493612     1.007825032070
           H          2.194156063324    -1.310606140024     0.912995506388     1.007825032070
           H          3.448200063324     0.859235859976    -0.832161493612     1.007825032070
           H          4.323472063324    -0.381147140024     0.042526506388     1.007825032070
           H          3.449210063324     0.858544859976     0.919183506388     1.007825032070

  Running in c1 symmetry.

  Rotational constants: A =      0.24609  B =      0.03590  C =      0.03344 [cm^-1]
  Rotational constants: A =   7377.71490  B =   1076.29467  C =   1002.40687 [MHz]
  Nuclear repulsion =  305.860843481349605

  Charge       = 0
  Multiplicity = 1
  Electrons    = 56
  Nalpha       = 28
  Nbeta        = 28

  ==> Algorithm <==

  SCF Algorithm Type is DF.
  DIIS enabled.
  MOM disabled.
  Fractional occupation disabled.
  Guess Type is SAD.
  Energy threshold   = 1.00e-08
  Density threshold  = 1.00e-08
  Integral threshold = 0.00e+00

  ==> Primary Basis <==

  Basis Set: CC-PVTZ
    Number of shells: 130
    Number of basis function: 350
    Number of Cartesian functions: 395
    Spherical Harmonics?: true
    Max angular momentum: 3

  ==> Pre-Iterations <==

   -------------------------------------------------------
    Irrep   Nso     Nmo     Nalpha   Nbeta   Ndocc  Nsocc
   -------------------------------------------------------
     A        350     350       0       0       0       0
   -------------------------------------------------------
    Total     350     350      28      28      28       0
   -------------------------------------------------------

  ==> Integral Setup <==

  ==> DFJK: Density-Fitted J/K Matrices <==

    J tasked:                  Yes
    K tasked:                  Yes
    wK tasked:                  No
    OpenMP threads:              4
    Integrals threads:           4
    Memory (MB):              1430
    Algorithm:                Core
    Integral Cache:           NONE
    Schwarz Cutoff:          1E-12
    Fitting Condition:       1E-12

   => Auxiliary Basis Set <=

  Basis Set: 
    Number of shells: 275
    Number of basis function: 853
    Number of Cartesian functions: 1022
    Spherical Harmonics?: true
    Max angular momentum: 4

  Minimum eigenvalue in the overlap matrix is 3.2042637573E-04.
  Using Symmetric Orthogonalization.
  SCF Guess: Superposition of Atomic Densities via on-the-fly atomic UHF.

  ==> Iterations <==

                           Total Energy        Delta E     RMS |[F,P]|

   @DF-RHF iter   0:  -348.35991403954171   -3.48360e+02   1.52921e-02 
   @DF-RHF iter   1:  -344.82400321513745    3.53591e+00   1.83943e-03 
   @DF-RHF iter   2:  -344.98591811579280   -1.61915e-01   1.12311e-03 DIIS
   @DF-RHF iter   3:  -345.04104754918461   -5.51294e-02   2.43320e-04 DIIS
   @DF-RHF iter   4:  -345.04607554933267   -5.02800e-03   9.53174e-05 DIIS
   @DF-RHF iter   5:  -345.04685200762748   -7.76458e-04   3.19685e-05 DIIS
   @DF-RHF iter   6:  -345.04703352197231   -1.81514e-04   1.54776e-05 DIIS
   @DF-RHF iter   7:  -345.04708383995029   -5.03180e-05   5.78839e-06 DIIS
   @DF-RHF iter   8:  -345.04709286189365   -9.02194e-06   1.88825e-06 DIIS
   @DF-RHF iter   9:  -345.04709380118283   -9.39289e-07   5.78972e-07 DIIS
   @DF-RHF iter  10:  -345.04709387126167   -7.00788e-08   2.24936e-07 DIIS
   @DF-RHF iter  11:  -345.04709388004511   -8.78345e-09   8.75185e-08 DIIS
   @DF-RHF iter  12:  -345.04709388167720   -1.63209e-09   2.46209e-08 DIIS
   @DF-RHF iter  13:  -345.04709388179884   -1.21645e-10   5.00302e-09 DIIS

  ==> Post-Iterations <==

    Orbital Energies (a.u.)
    -----------------------

    Doubly Occupied:                                                      

       1A    -20.604384     2A    -20.539785     3A    -11.372917  
       4A    -11.238011     5A    -11.228338     6A    -11.224326  
       7A    -11.213849     8A     -1.477602     9A     -1.368451  
      10A     -1.096988    11A     -1.021357    12A     -0.911470  
      13A     -0.825208    14A     -0.809631    15A     -0.705249  
      16A     -0.684187    17A     -0.657562    18A     -0.639102  
      19A     -0.591216    20A     -0.586270    21A     -0.579294  
      22A     -0.539335    23A     -0.512451    24A     -0.499549  
      25A     -0.488256    26A     -0.477905    27A     -0.476155  
      28A     -0.437627  

    Virtual:                                                              

      29A      0.135337    30A      0.151030    31A      0.163810  
      32A      0.173311    33A      0.182219    34A      0.194402  
      35A      0.212221    36A      0.223991    37A      0.235899  
      38A      0.244224    39A      0.266696    40A      0.300314  
      41A      0.323983    42A      0.331904    43A      0.361022  
      44A      0.387199    45A      0.393097    46A      0.412927  
      47A      0.425466    48A      0.448050    49A      0.456757  
      50A      0.462905    51A      0.498268    52A      0.501842  
      53A      0.524629    54A      0.549208    55A      0.560758  
      56A      0.566937    57A      0.593661    58A      0.612607  
      59A      0.622679    60A      0.631946    61A      0.638101  
      62A      0.640589    63A      0.646247    64A      0.666159  
      65A      0.672442    66A      0.678252    67A      0.688106  
      68A      0.696674    69A      0.713349    70A      0.730497  
      71A      0.747032    72A      0.774442    73A      0.802340  
      74A      0.813624    75A      0.826623    76A      0.828452  
      77A      0.857710    78A      0.877773    79A      0.892730  
      80A      0.905499    81A      0.926200    82A      0.940604  
      83A      0.951267    84A      0.966325    85A      1.000447  
      86A      1.006526    87A      1.038382    88A      1.079116  
      89A      1.084328    90A      1.092705    91A      1.115768  
      92A      1.146584    93A      1.152677    94A      1.189538  
      95A      1.219839    96A      1.226604    97A      1.256103  
      98A      1.268187    99A      1.276086   100A      1.298950  
     101A      1.303926   102A      1.314184   103A      1.330307  
     104A      1.345540   105A      1.359715   106A      1.378036  
     107A      1.388144   108A      1.394609   109A      1.407417  
     110A      1.419151   111A      1.441966   112A      1.463077  
     113A      1.471108   114A      1.486230   115A      1.492628  
     116A      1.499182   117A      1.525566   118A      1.538524  
     119A      1.553243   120A      1.586659   121A      1.590372  
     122A      1.607417   123A      1.627780   124A      1.638241  
     125A      1.654021   126A      1.686982   127A      1.694795  
     128A      1.727636   129A      1.757215   130A      1.791012  
     131A      1.794216   132A      1.807950   133A      1.826350  
     134A      1.851837   135A      1.883657   136A      1.894800  
     137A      1.941708   138A      1.951796   139A      1.986165  
     140A      2.036817   141A      2.064698   142A      2.261281  
     143A      2.311270   144A      2.347534   145A      2.366649  
     146A      2.400140   147A      2.459610   148A      2.484456  
     149A      2.540076   150A      2.554841   151A      2.592820  
     152A      2.632088   153A      2.661305   154A      2.685495  
     155A      2.707069   156A      2.731626   157A      2.749276  
     158A      2.767171   159A      2.807450   160A      2.818764  
     161A      2.837684   162A      2.856855   163A      2.864922  
     164A      2.900191   165A      2.904852   166A      2.918988  
     167A      2.922125   168A      2.958351   169A      2.995244  
     170A      3.014897   171A      3.022396   172A      3.047445  
     173A      3.067353   174A      3.110750   175A      3.123531  
     176A      3.148644   177A      3.161746   178A      3.180978  
     179A      3.211924   180A      3.235768   181A      3.248591  
     182A      3.263809   183A      3.280854   184A      3.302262  
     185A      3.319341   186A      3.332216   187A      3.341578  
     188A      3.359670   189A      3.376589   190A      3.397686  
     191A      3.401134   192A      3.409315   193A      3.423418  
     194A      3.428151   195A      3.442045   196A      3.446770  
     197A      3.470327   198A      3.479564   199A      3.501369  
     200A      3.530159   201A      3.538756   202A      3.550765  
     203A      3.557383   204A      3.573042   205A      3.577272  
     206A      3.604520   207A      3.624499   208A      3.656513  
     209A      3.673254   210A      3.679947   211A      3.699938  
     212A      3.731719   213A      3.740483   214A      3.768569  
     215A      3.786772   216A      3.801311   217A      3.822834  
     218A      3.839826   219A      3.869269   220A      3.877084  
     221A      3.888332   222A      3.914265   223A      3.939453  
     224A      3.959115   225A      3.963575   226A      3.985916  
     227A      4.003124   228A      4.023826   229A      4.062348  
     230A      4.074537   231A      4.085058   232A      4.118525  
     233A      4.136655   234A      4.146425   235A      4.158194  
     236A      4.168122   237A      4.182635   238A      4.196053  
     239A      4.202300   240A      4.208755   241A      4.221261  
     242A      4.233201   243A      4.267447   244A      4.278197  
     245A      4.284749   246A      4.323298   247A      4.335825  
     248A      4.356557   249A      4.371280   250A      4.390589  
     251A      4.406712   252A      4.424543   253A      4.439053  
     254A      4.446946   255A      4.461884   256A      4.496463  
     257A      4.514371   258A      4.552976   259A      4.558873  
     260A      4.589394   261A      4.595395   262A      4.627470  
     263A      4.629925   264A      4.645043   265A      4.659838  
     266A      4.673704   267A      4.680523   268A      4.687107  
     269A      4.712277   270A      4.745325   271A      4.770991  
     272A      4.787666   273A      4.816698   274A      4.877725  
     275A      4.909604   276A      4.938047   277A      5.006960  
     278A      5.019600   279A      5.028807   280A      5.047443  
     281A      5.097118   282A      5.130961   283A      5.168078  
     284A      5.193763   285A      5.221514   286A      5.224364  
     287A      5.253447   288A      5.287237   289A      5.296765  
     290A      5.333086   291A      5.353409   292A      5.382993  
     293A      5.400471   294A      5.407690   295A      5.452837  
     296A      5.486955   297A      5.505059   298A      5.540995  
     299A      5.615612   300A      5.623878   301A      5.628801  
     302A      5.660999   303A      5.710627   304A      5.725602  
     305A      5.745306   306A      5.754520   307A      5.771687  
     308A      5.801444   309A      5.842292   310A      5.869129  
     311A      5.884920   312A      5.896482   313A      5.913870  
     314A      5.926950   315A      5.932048   316A      6.025276  
     317A      6.039791   318A      6.051257   319A      6.106841  
     320A      6.265867   321A      6.287233   322A      6.322929  
     323A      6.337775   324A      6.403438   325A      6.464251  
     326A      6.493433   327A      6.666166   328A      6.788651  
     329A      6.801496   330A      6.870998   331A      6.963213  
     332A      7.038496   333A      7.051023   334A      7.098211  
     335A      7.210050   336A      7.287028   337A      7.326873  
     338A      7.404263   339A      7.488402   340A      7.602661  
     341A      7.736978   342A      7.871909   343A      8.032638  
     344A     10.044292   345A     13.228557   346A     13.358559  
     347A     13.389449   348A     13.896988   349A     14.194371  
     350A     14.278276  

    Final Occupation by Irrep:
              A 
    DOCC [    28 ]

  Energy converged.

  @DF-RHF Final Energy:  -345.04709388179884

   => Energetics <=

    Nuclear Repulsion Energy =            305.8608434813496046
    One-Electron Energy =               -1076.2029276499854404
    Two-Electron Energy =                 425.2949902868368781
    DFT Exchange-Correlation Energy =       0.0000000000000000
    Empirical Dispersion Energy =           0.0000000000000000
    PCM Polarization Energy =               0.0000000000000000
    EFP Energy =                            0.0000000000000000
    Total Energy =                       -345.0470938817990145


  Saving occupied orbitals to File 180.

*** tstop() called on cx1-27-3-1 at Sat Sep 10 18:27:14 2016
Module time:
	user time   =      31.42 seconds =       0.52 minutes
	system time =       0.82 seconds =       0.01 minutes
	total time  =          9 seconds =       0.15 minutes
Total time:
	user time   =      31.42 seconds =       0.52 minutes
	system time =       0.82 seconds =       0.01 minutes
	total time  =          9 seconds =       0.15 minutes


Properties will be evaluated at   0.000000,   0.000000,   0.000000 Bohr

Properties computed using the SCF density matrix

  Nuclear Dipole Moment: (a.u.)
     X:    13.1460      Y:    -1.0203      Z:    -0.4780

  Electronic Dipole Moment: (a.u.)
     X:   -12.4966      Y:     1.1497      Z:    -0.0315

  Dipole Moment: (a.u.)
     X:     0.6495      Y:     0.1294      Z:    -0.5095     Total:     0.8356

  Dipole Moment: (Debye)
     X:     1.6508      Y:     0.3290      Z:    -1.2950     Total:     2.1238


*** tstart() called on cx1-27-3-1
*** at Sat Sep 10 18:27:14 2016


         ------------------------------------------------------------
                                   SCF GRAD                          
                          Rob Parrish, Justin Turney,                
                       Andy Simmonett, and Alex Sokolov              
         ------------------------------------------------------------

  ==> Geometry <==

    Molecular point group: c1
    Full point group: C1

    Geometry (in Angstrom), charge = 0, multiplicity = 1:

       Center              X                  Y                   Z               Mass       
    ------------   -----------------  -----------------  -----------------  -----------------
           H         -2.528566936676     1.368902859976    -0.902946493612     1.007825032070
           O         -1.700559936676     0.914904859976    -0.947737493612    15.994914619560
           C         -1.650745936676     0.031058859976     0.044870506388    12.000000000000
           C         -0.355964936676    -0.735474140024     0.044516506388    12.000000000000
           O         -2.538445936676    -0.101003140024     0.814622506388    15.994914619560
           C          0.881232063324     0.150611859976     0.043903506388    12.000000000000
           H         -0.372976936676    -1.390302140024    -0.820722493612     1.007825032070
           H         -0.372389936676    -1.389955140024     0.910023506388     1.007825032070
           C          2.174807063324    -0.658692140024     0.043637506388    12.000000000000
           H          0.854596063324     0.801599859976    -0.822664493612     1.007825032070
           H          0.855193063324     0.801959859976     0.910211506388     1.007825032070
           C          3.421340063324     0.219390859976     0.043268506388    12.000000000000
           H          2.193724063324    -1.310716140024    -0.825656493612     1.007825032070
           H          2.194156063324    -1.310606140024     0.912995506388     1.007825032070
           H          3.448200063324     0.859235859976    -0.832161493612     1.007825032070
           H          4.323472063324    -0.381147140024     0.042526506388     1.007825032070
           H          3.449210063324     0.858544859976     0.919183506388     1.007825032070

  Nuclear repulsion =  305.860843481349605

  ==> Basis Set <==

  Basis Set: CC-PVTZ
    Number of shells: 130
    Number of basis function: 350
    Number of Cartesian functions: 395
    Spherical Harmonics?: true
    Max angular momentum: 3

  ==> DFJKGrad: Density-Fitted SCF Gradients <==

    Gradient:                    1
    J tasked:                  Yes
    K tasked:                  Yes
    wK tasked:                  No
    OpenMP threads:              4
    Integrals threads:           4
    Memory (MB):              1430
    Schwarz Cutoff:          0E+00
    Fitting Condition:       1E-12

   => Auxiliary Basis Set <=

  Basis Set: 
    Number of shells: 275
    Number of basis function: 853
    Number of Cartesian functions: 1022
    Spherical Harmonics?: true
    Max angular momentum: 4


  -Total Gradient:
     Atom            X                  Y                   Z
    ------   -----------------  -----------------  -----------------
       1        0.000113655166     0.000066685178     0.000159428571
       2        0.002763670223    -0.000654750924     0.000730959333
       3       -0.002561270474    -0.002481051775     0.000238389050
       4        0.005586515633     0.009492106354    -0.006375549691
       5       -0.000432885887     0.001103967538     0.000317669681
       6       -0.002520291369    -0.001535244349     0.004245404030
       7       -0.001652273883    -0.002646521788     0.002903590459
       8       -0.000009712364    -0.003481228251     0.000626110440
       9       -0.000623813214     0.000075189841    -0.000992399923
      10       -0.000889185214     0.000876022566    -0.000069082001
      11       -0.000479467353    -0.000009355699    -0.001930393132
      12        0.000043131513    -0.000175202382     0.000020758902
      13        0.000530964868    -0.000413631058    -0.000031784641
      14        0.000166729020    -0.000230794085     0.000206184799
      15       -0.000050963427     0.000018016271     0.000070418863
      16        0.000116141802    -0.000027242128    -0.000034168562
      17       -0.000100945049     0.000023034692    -0.000085536181


*** tstop() called on cx1-27-3-1 at Sat Sep 10 18:27:22 2016
Module time:
	user time   =      30.60 seconds =       0.51 minutes
	system time =       0.66 seconds =       0.01 minutes
	total time  =          8 seconds =       0.13 minutes
Total time:
	user time   =      62.11 seconds =       1.04 minutes
	system time =       1.48 seconds =       0.02 minutes
	total time  =         17 seconds =       0.28 minutes

			-----------------------------------------
			 OPTKING 2.0: for geometry optimizations 
			  - R.A. King,  Bethel University        
			-----------------------------------------

	Internal coordinates to be generated automatically.
	Detected frag 1 with atoms:  1 2 3 4 5 6 7 8 9 10 11 12 13 14 15 16 17
	---Fragment 1 Bond Connectivity---
	 1 : 2
	 2 : 1 3
	 3 : 2 4 5
	 4 : 3 6 7 8
	 5 : 3
	 6 : 4 9 10 11
	 7 : 4
	 8 : 4
	 9 : 6 12 13 14
	 10 : 6
	 11 : 6
	 12 : 9 15 16 17
	 13 : 9
	 14 : 9
	 15 : 12
	 16 : 12
	 17 : 12

	Assuming in current code that numbering for constraints corresponds to unified fragment.
	Frozen dihedral atom list: 
	     2     3     4     7
	---Fragment 1 Geometry and Gradient---
	 H          -4.7782990190        2.5868515079       -1.7063215856
	 O          -3.2135925529        1.7289196230       -1.7909643088
	 C          -3.1194577353        0.0586927394        0.0847929685
	 C          -0.6726762432       -1.3898447025        0.0841240055
	 O          -4.7969676235       -0.1908682732        1.5394134388
	 C           1.6652872592        0.2846151677        0.0829656033
	 H          -0.7048242642       -2.6272902866       -1.5509407440
	 H          -0.7037149950       -2.6266345516        1.7196952016
	 C           4.1097897415       -1.2447477505        0.0824629362
	 H           1.6149525139        1.5148042035       -1.5546105922
	 H           1.6160806804        1.5154845049        1.7200504701
	 C           6.4653957272        0.4145886414        0.0817656273
	 H           4.1455376908       -2.4768945426       -1.5602646528
	 H           4.1463540525       -2.4766866727        1.7253114676
	 H           6.5161537711        1.6237204589       -1.5725573213
	 H           8.1701781429       -0.7202637110        0.0803634505
	 H           6.5180623945        1.6224146582        1.7370050929
	             0.0001136552        0.0000666852        0.0001594286
	             0.0027636702       -0.0006547509        0.0007309593
	            -0.0025612705       -0.0024810518        0.0002383891
	             0.0055865156        0.0094921064       -0.0063755497
	            -0.0004328859        0.0011039675        0.0003176697
	            -0.0025202914       -0.0015352443        0.0042454040
	            -0.0016522739       -0.0026465218        0.0029035905
	            -0.0000097124       -0.0034812283        0.0006261104
	            -0.0006238132        0.0000751898       -0.0009923999
	            -0.0008891852        0.0008760226       -0.0000690820
	            -0.0004794674       -0.0000093557       -0.0019303931
	             0.0000431315       -0.0001752024        0.0000207589
	             0.0005309649       -0.0004136311       -0.0000317846
	             0.0001667290       -0.0002307941        0.0002061848
	            -0.0000509634        0.0000180163        0.0000704189
	             0.0001161418       -0.0000272421       -0.0000341686
	            -0.0001009450        0.0000230347       -0.0000855362

	Previous optimization step data not found.  Starting new optimization.

	---Fragment 1 Intrafragment Coordinates---
	 - Coordinate -           - BOHR/RAD -       - ANG/DEG -
	 R(1,2)           =         1.786482	       0.945366
	 R(2,3)           =         2.513361	       1.330013
	 R(3,4)           =         2.843414	       1.504670
	 R(3,5)           =         2.234332	       1.182358
	 R(4,6)           =         2.875742	       1.521777
	 R(4,7)           =         2.050791	       1.085232
	 R(4,8)           =         2.050782	       1.085227
	 R(6,9)           =         2.883495	       1.525880
	 R(6,10)          =         2.048793	       1.084175
	 R(6,11)          =         2.048782	       1.084169
	 R(9,12)          =         2.881367	       1.524754
	 R(9,13)          =         2.053781	       1.086814
	 R(9,14)          =         2.053768	       1.086807
	 R(12,15)         =         2.049722	       1.084666
	 R(12,16)         =         2.047968	       1.083738
	 R(12,17)         =         2.049740	       1.084676
	 B(1,2,3)         =         1.892918	     108.456187
	 B(2,3,4)         =         1.950445	     111.752249
	 B(2,3,5)         =         2.131732	     122.139270
	 B(3,4,6)         =         1.985545	     113.763321
	 B(3,4,7)         =         1.869301	     107.103079
	 B(3,4,8)         =         1.869227	     107.098799
	 B(4,3,5)         =         2.201003	     126.108184
	 B(4,6,9)         =         1.961019	     112.358114
	 B(4,6,10)        =         1.907068	     109.266964
	 B(4,6,11)        =         1.907067	     109.266904
	 B(6,4,7)         =         1.943103	     111.331596
	 B(6,4,8)         =         1.943122	     111.332706
	 B(6,9,12)        =         1.968851	     112.806881
	 B(6,9,13)        =         1.910380	     109.456738
	 B(6,9,14)        =         1.910387	     109.457140
	 B(7,4,8)         =         1.845983	     105.767033
	 B(9,6,10)        =         1.916816	     109.825448
	 B(9,6,11)        =         1.916805	     109.824829
	 B(9,12,15)       =         1.939230	     111.109713
	 B(9,12,16)       =         1.940582	     111.187155
	 B(9,12,17)       =         1.939231	     111.109739
	 B(10,6,11)       =         1.851828	     106.101927
	 B(12,9,13)       =         1.908237	     109.333939
	 B(12,9,14)       =         1.908244	     109.334309
	 B(13,9,14)       =         1.854215	     106.238682
	 B(15,12,16)      =         1.881489	     107.801399
	 B(15,12,17)      =         1.879181	     107.669120
	 B(16,12,17)      =         1.881463	     107.799873
	 D(1,2,3,4)       =        -3.139927	    -179.904555
	 D(1,2,3,5)       =        -0.001598	      -0.091538
	 D(2,3,4,6)       =         0.933022	      53.458241
	*D(2,3,4,7)       =        -1.221730	     -70.000001
	 D(2,3,4,8)       =         3.087745	     176.914772
	 D(3,4,6,9)       =         3.141536	     179.996740
	 D(3,4,6,10)      =        -1.009589	     -57.845162
	 D(3,4,6,11)      =         1.009489	      57.839472
	 D(4,6,9,12)      =        -3.141418	    -179.989994
	 D(4,6,9,13)      =         1.013012	      58.041297
	 D(4,6,9,14)      =        -1.012649	     -58.020524
	 D(5,3,4,6)       =        -2.205150	    -126.345784
	 D(5,3,4,7)       =         1.923283	     110.195974
	 D(5,3,4,8)       =        -0.050427	      -2.889254
	 D(6,9,12,15)     =        -1.045360	     -59.894698
	 D(6,9,12,16)     =        -3.141040	    -179.968307
	 D(6,9,12,17)     =         1.046499	      59.959997
	 D(7,4,6,9)       =        -1.027616	     -58.878076
	 D(7,4,6,10)      =         1.104445	      63.280022
	 D(7,4,6,11)      =         3.123522	     178.964656
	 D(8,4,6,9)       =         1.027586	      58.876328
	 D(8,4,6,10)      =        -3.123539	    -178.965574
	 D(8,4,6,11)      =        -1.104461	     -63.280940
	 D(10,6,9,12)     =         1.015245	      58.169225
	 D(10,6,9,13)     =        -1.113511	     -63.799484
	 D(10,6,9,14)     =        -3.139172	    -179.861304
	 D(11,6,9,12)     =        -1.014904	     -58.149728
	 D(11,6,9,13)     =         3.139526	     179.881563
	 D(11,6,9,14)     =         1.113865	      63.819742
	 D(13,9,12,15)    =         1.084603	      62.143189
	 D(13,9,12,16)    =        -1.011077	     -57.930420
	 D(13,9,12,17)    =        -3.106723	    -178.002115
	 D(14,9,12,15)    =         3.107849	     178.066636
	 D(14,9,12,16)    =         1.012169	      57.993027
	 D(14,9,12,17)    =        -1.083477	     -62.078669

	Current energy   :      -345.0470938818

	Generating empirical Hessian (Schlegel '84) for each fragment.
	Taking RFO optimization step.
	Going to follow RFO solution 1.
	Using RFO vector 1.
	Norm of target step-size    0.19953
	Projected energy change by RFO approximation:        -0.0009354904

	Back-transformation to cartesian coordinates...
	Successfully converged to displaced geometry.

	Back-transformation to cartesian coordinates to adjust frozen coordinates...
	Successfully converged to displaced geometry.

	--- Internal Coordinate Step in ANG or DEG, aJ/ANG or AJ/DEG ---
	 ---------------------------------------------------------------------------
	   Coordinate                Previous        Force       Change         New 
	   ----------                --------       ------       ------       ------
	    1 R(1,2)          =      0.945366     0.000494     0.000054     0.945420
	    2 R(2,3)          =      1.330013     0.009582     0.001033     1.331047
	    3 R(3,4)          =      1.504670     0.007417     0.001491     1.506161
	    4 R(3,5)          =      1.182358    -0.003366    -0.000189     1.182169
	    5 R(4,6)          =      1.521777     0.032221     0.006840     1.528617
	    6 R(4,7)          =      1.085232     0.005703     0.001034     1.086265
	    7 R(4,8)          =      1.085227    -0.021412    -0.003882     1.081345
	    8 R(6,9)          =      1.525880    -0.003761    -0.000809     1.525071
	    9 R(6,10)         =      1.084175    -0.004968    -0.000898     1.083277
	   10 R(6,11)         =      1.084169     0.012660     0.002287     1.086456
	   11 R(9,12)         =      1.524754     0.000716     0.000153     1.524907
	   12 R(9,13)         =      1.086814    -0.002330    -0.000425     1.086390
	   13 R(9,14)         =      1.086807    -0.002524    -0.000460     1.086347
	   14 R(12,15)        =      1.084666     0.000391     0.000071     1.084737
	   15 R(12,16)        =      1.083738    -0.000921    -0.000166     1.083572
	   16 R(12,17)        =      1.084676     0.000479     0.000087     1.084762
	   17 B(1,2,3)        =    108.456187     0.000009    -0.004137   108.452050
	   18 B(2,3,4)        =    111.752249     0.000365     1.129770   112.882019
	   19 B(2,3,5)        =    122.139270    -0.000109    -0.333628   121.805641
	   20 B(3,4,6)        =    113.763321     0.000210     0.474822   114.238143
	   21 B(3,4,7)        =    107.103079    -0.000023     0.011844   107.114923
	   22 B(3,4,8)        =    107.098799    -0.000113    -0.472318   106.626482
	   23 B(4,3,5)        =    126.108184    -0.000255    -0.886175   125.222010
	   24 B(4,6,9)        =    112.358114     0.000021    -0.074197   112.283916
	   25 B(4,6,10)       =    109.266964     0.000037     0.522630   109.789593
	   26 B(4,6,11)       =    109.266904    -0.000007    -0.194143   109.072761
	   27 B(6,4,7)        =    111.331596    -0.000143    -0.977652   110.353944
	   28 B(6,4,8)        =    111.332706    -0.000057    -0.273841   111.058866
	   29 B(6,9,12)       =    112.806881     0.000019     0.035635   112.842516
	   30 B(6,9,13)       =    109.456738    -0.000039    -0.324664   109.132073
	   31 B(6,9,14)       =    109.457140    -0.000006    -0.014389   109.442751
	   32 B(7,4,8)        =    105.767033     0.000122     1.333501   107.100534
	   33 B(9,6,10)       =    109.825448    -0.000039    -0.121479   109.703969
	   34 B(9,6,11)       =    109.824829    -0.000052    -0.635129   109.189699
	   35 B(9,12,15)      =    111.109713     0.000003     0.032168   111.141881
	   36 B(9,12,16)      =    111.187155    -0.000008    -0.067368   111.119787
	   37 B(9,12,17)      =    111.109739     0.000007     0.030561   111.140300
	   38 B(10,6,11)      =    106.101927     0.000041     0.533859   106.635785
	   39 B(12,9,13)      =    109.333939     0.000017     0.102691   109.436631
	   40 B(12,9,14)      =    109.334309    -0.000002     0.103008   109.437317
	   41 B(13,9,14)      =    106.238682     0.000011     0.101610   106.340292
	   42 B(15,12,16)     =    107.801399     0.000000    -0.010322   107.791077
	   43 B(15,12,17)     =    107.669120     0.000001     0.050060   107.719181
	   44 B(16,12,17)     =    107.799873    -0.000003    -0.034676   107.765197
	   45 D(1,2,3,4)      =   -179.904555    -0.000002    -2.350865  -182.255420
	   46 D(1,2,3,5)      =     -0.091538    -0.000003     1.121983     1.030445
	   47 D(2,3,4,6)      =     53.458241    -0.000014    -0.927509    52.530732
	   48 *D(2,3,4,7)     =    -70.000001    -0.000000    -0.000000   -70.000001
	   49 D(2,3,4,8)      =    176.914772    -0.000018    -1.311390   175.603381
	   50 D(3,4,6,9)      =    179.996740    -0.000010    -2.778295   177.218445
	   51 D(3,4,6,10)     =    -57.845162    -0.000012    -2.613051   -60.458213
	   52 D(3,4,6,11)     =     57.839472     0.000003    -1.788953    56.050519
	   53 D(4,6,9,12)     =   -179.989994     0.000005     0.852331  -179.137663
	   54 D(4,6,9,13)     =     58.041297     0.000004     0.928913    58.970210
	   55 D(4,6,9,14)     =    -58.020524     0.000007     0.998136   -57.022388
	   56 D(5,3,4,6)      =   -126.345784    -0.000013    -4.541905  -130.887690
	   57 D(5,3,4,7)      =    110.195974     0.000001    -3.614396   106.581578
	   58 D(5,3,4,8)      =     -2.889254    -0.000016    -4.925787    -7.815040
	   59 D(6,9,12,15)    =    -59.894698     0.000001     0.095587   -59.799111
	   60 D(6,9,12,16)    =   -179.968307     0.000002     0.132224  -179.836083
	   61 D(6,9,12,17)    =     59.959997     0.000003     0.200721    60.160718
	   62 D(7,4,6,9)      =    -58.878076    -0.000006    -3.155964   -62.034040
	   63 D(7,4,6,10)     =     63.280022    -0.000008    -2.990720    60.289302
	   64 D(7,4,6,11)     =    178.964656     0.000007    -2.166622   176.798034
	   65 D(8,4,6,9)      =     58.876328    -0.000001    -2.295351    56.580977
	   66 D(8,4,6,10)     =   -178.965574    -0.000003    -2.130106  -181.095680
	   67 D(8,4,6,11)     =    -63.280940     0.000012    -1.306009   -64.586948
	   68 D(10,6,9,12)    =     58.169225    -0.000002     0.321238    58.490463
	   69 D(10,6,9,13)    =    -63.799484    -0.000004     0.397820   -63.401664
	   70 D(10,6,9,14)    =   -179.861304    -0.000001     0.467042  -179.394262
	   71 D(11,6,9,12)    =    -58.149728    -0.000002     0.112837   -58.036891
	   72 D(11,6,9,13)    =    179.881563    -0.000003     0.189419   180.070982
	   73 D(11,6,9,14)    =     63.819742    -0.000000     0.258642    64.078384
	   74 D(13,9,12,15)   =     62.143189    -0.000004    -0.221997    61.921192
	   75 D(13,9,12,16)   =    -57.930420    -0.000004    -0.185360   -58.115779
	   76 D(13,9,12,17)   =   -178.002115    -0.000003    -0.116863  -178.118979
	   77 D(14,9,12,15)   =    178.066636     0.000001     0.015923   178.082559
	   78 D(14,9,12,16)   =     57.993027     0.000001     0.052560    58.045587
	   79 D(14,9,12,17)   =    -62.078669     0.000002     0.121057   -61.957612
	 ---------------------------------------------------------------------------
	Successfully symmetrized geometry.

  ==> Convergence Check <==

  Measures of convergence in internal coordinates in au.
  Criteria marked as inactive (o), active & met (*), and active & unmet ( ).
  --------------------------------------------------------------------------------------------- ~
   Step     Total Energy     Delta E     MAX Force     RMS Force      MAX Disp      RMS Disp    ~
  --------------------------------------------------------------------------------------------- ~
    Convergence Criteria    1.00e-06 *    3.00e-04 *             o    1.20e-03 *             o  ~
  --------------------------------------------------------------------------------------------- ~
      1    -345.04709388   -3.45e+02      4.79e-03      1.06e-03 o    8.60e-02      2.25e-02 o  ~
  ---------------------------------------------------------------------------------------------

	Writing optimization data to binary file.
	Structure for next step:
	Cartesian Geometry (in Angstrom)
	    H    -2.5839344574   1.3819968234  -0.8352659280
	    O    -1.7387568773   0.9624768581  -0.8943920684
	    C    -1.6521182124   0.0513960998   0.0721021428
	    C    -0.3583991867  -0.7190183901   0.0364356565
	    O    -2.5433556318  -0.1470366791   0.8229968040
	    C     0.8935639777   0.1576804765   0.0108129407
	    H    -0.3906251148  -1.3574414471  -0.8418296871
	    H    -0.3607390440  -1.3678845070   0.9014646361
	    C     2.1768747938  -0.6656536936   0.0436123073
	    H     0.8842985664   0.7845813204  -0.8725890539
	    H     0.8763017553   0.8263670338   0.8669355596
	    C     3.4341093153   0.1972993505   0.0396424648
	    H     2.1937592666  -1.3330152391  -0.8134675527
	    H     2.1768501499  -1.3003784909   0.9252440355
	    H     3.4789407443   0.8192564747  -0.8479462639
	    H     4.3279325987  -0.4148903422   0.0604322294
	    H     3.4615774329   0.8525779713   0.9036823858
			--------------------------
			 OPTKING Finished Execution 
			--------------------------

    Structure for next step:
    Molecular point group: c1
    Full point group: C1

    Geometry (in Angstrom), charge = 0, multiplicity = 1:

    H           -2.580120926887     1.380176125689    -0.842434040202
    O           -1.734943346733     0.960656160380    -0.901560180641
    C           -1.648304681824     0.049575402030     0.064934030596
    C           -0.354585656144    -0.720839087836     0.029267544337
    O           -2.539542101262    -0.148857376839     0.815828691768
    C            0.897377508297     0.155859778761     0.003644828517
    H           -0.386811584193    -1.359262144805    -0.848997799261
    H           -0.356925513485    -1.369705204747     0.894296523937
    C            2.180688324340    -0.667474391335     0.036444195089
    H            0.888112096967     0.782760622595    -0.879757166150
    H            0.880115285872     0.824546336021     0.859767447370
    C            3.437922845903     0.195478652784     0.032474352577
    H            2.197572797156    -1.334835936830    -0.820635664933
    H            2.180663680422    -1.302199188677     0.918075923312
    H            3.482754274837     0.817435776951    -0.855114376069
    H            4.331746129301    -0.416711039935     0.053264117209
    H            3.465390963485     0.850757273545     0.896514273628

gradient() will perform analytic gradient computation.

*** tstart() called on cx1-27-3-1
*** at Sat Sep 10 18:27:23 2016


         ---------------------------------------------------------
                                   SCF
            by Justin Turney, Rob Parrish, and Andy Simmonett
                              RHF Reference
                        4 Threads,   2000 MiB Core
         ---------------------------------------------------------

  ==> Geometry <==

    Molecular point group: c1
    Full point group: C1

    Geometry (in Angstrom), charge = 0, multiplicity = 1:

       Center              X                  Y                   Z               Mass       
    ------------   -----------------  -----------------  -----------------  -----------------
           H         -2.580120926887     1.380176125689    -0.842434040202     1.007825032070
           O         -1.734943346733     0.960656160380    -0.901560180641    15.994914619560
           C         -1.648304681824     0.049575402030     0.064934030596    12.000000000000
           C         -0.354585656144    -0.720839087836     0.029267544337    12.000000000000
           O         -2.539542101262    -0.148857376839     0.815828691768    15.994914619560
           C          0.897377508297     0.155859778761     0.003644828517    12.000000000000
           H         -0.386811584193    -1.359262144805    -0.848997799261     1.007825032070
           H         -0.356925513485    -1.369705204747     0.894296523937     1.007825032070
           C          2.180688324340    -0.667474391335     0.036444195089    12.000000000000
           H          0.888112096967     0.782760622595    -0.879757166150     1.007825032070
           H          0.880115285872     0.824546336021     0.859767447370     1.007825032070
           C          3.437922845903     0.195478652784     0.032474352577    12.000000000000
           H          2.197572797156    -1.334835936830    -0.820635664933     1.007825032070
           H          2.180663680422    -1.302199188677     0.918075923312     1.007825032070
           H          3.482754274837     0.817435776951    -0.855114376069     1.007825032070
           H          4.331746129301    -0.416711039935     0.053264117209     1.007825032070
           H          3.465390963485     0.850757273545     0.896514273628     1.007825032070

  Running in c1 symmetry.

  Rotational constants: A =      0.24769  B =      0.03561  C =      0.03308 [cm^-1]
  Rotational constants: A =   7425.52176  B =   1067.50132  C =    991.65984 [MHz]
  Nuclear repulsion =  305.275248187609577

  Charge       = 0
  Multiplicity = 1
  Electrons    = 56
  Nalpha       = 28
  Nbeta        = 28

  ==> Algorithm <==

  SCF Algorithm Type is DF.
  DIIS enabled.
  MOM disabled.
  Fractional occupation disabled.
  Guess Type is READ.
  Energy threshold   = 1.00e-08
  Density threshold  = 1.00e-08
  Integral threshold = 0.00e+00

  ==> Primary Basis <==

  Basis Set: CC-PVTZ
    Number of shells: 130
    Number of basis function: 350
    Number of Cartesian functions: 395
    Spherical Harmonics?: true
    Max angular momentum: 3

  ==> Pre-Iterations <==

   -------------------------------------------------------
    Irrep   Nso     Nmo     Nalpha   Nbeta   Ndocc  Nsocc
   -------------------------------------------------------
     A        350     350       0       0       0       0
   -------------------------------------------------------
    Total     350     350      28      28      28       0
   -------------------------------------------------------

  ==> Integral Setup <==

  ==> DFJK: Density-Fitted J/K Matrices <==

    J tasked:                  Yes
    K tasked:                  Yes
    wK tasked:                  No
    OpenMP threads:              4
    Integrals threads:           4
    Memory (MB):              1430
    Algorithm:                Core
    Integral Cache:           NONE
    Schwarz Cutoff:          1E-12
    Fitting Condition:       1E-12

   => Auxiliary Basis Set <=

  Basis Set: 
    Number of shells: 275
    Number of basis function: 853
    Number of Cartesian functions: 1022
    Spherical Harmonics?: true
    Max angular momentum: 4

  Minimum eigenvalue in the overlap matrix is 3.2312146820E-04.
  Using Symmetric Orthogonalization.
  SCF Guess: Reading in previously saved MOs, projecting if necessary.

  Using orbitals from previous SCF, no projection.
  Recomputing DOCC and SOCC from number of alpha and beta electrons from previous calculation.
              A 
    DOCC [    28 ]

  ==> Iterations <==

                           Total Energy        Delta E     RMS |[F,P]|

   @DF-RHF iter   0:  -345.03642000753041   -3.45036e+02   4.27344e-04 
   @DF-RHF iter   1:  -345.04686324687111   -1.04432e-02   5.75484e-05 
   @DF-RHF iter   2:  -345.04717348381701   -3.10237e-04   2.16560e-05 DIIS
   @DF-RHF iter   3:  -345.04721537527712   -4.18915e-05   1.17637e-05 DIIS
   @DF-RHF iter   4:  -345.04722497981015   -9.60453e-06   3.01011e-06 DIIS
   @DF-RHF iter   5:  -345.04722607492636   -1.09512e-06   1.36838e-06 DIIS
   @DF-RHF iter   6:  -345.04722640335854   -3.28432e-07   3.22134e-07 DIIS
   @DF-RHF iter   7:  -345.04722642284833   -1.94898e-08   8.08922e-08 DIIS
   @DF-RHF iter   8:  -345.04722642390027   -1.05194e-09   3.33875e-08 DIIS
   @DF-RHF iter   9:  -345.04722642409865   -1.98384e-10   1.38873e-08 DIIS
   @DF-RHF iter  10:  -345.04722642414936   -5.07043e-11   5.58779e-09 DIIS

  ==> Post-Iterations <==

    Orbital Energies (a.u.)
    -----------------------

    Doubly Occupied:                                                      

       1A    -20.604252     2A    -20.539155     3A    -11.372927  
       4A    -11.238883     5A    -11.228873     6A    -11.224174  
       7A    -11.214042     8A     -1.477160     9A     -1.367862  
      10A     -1.096234    11A     -1.020858    12A     -0.911337  
      13A     -0.825235    14A     -0.809000    15A     -0.704322  
      16A     -0.684286    17A     -0.659224    18A     -0.637825  
      19A     -0.591709    20A     -0.585825    21A     -0.579524  
      22A     -0.538055    23A     -0.515006    24A     -0.499250  
      25A     -0.487314    26A     -0.477726    27A     -0.476238  
      28A     -0.437421  

    Virtual:                                                              

      29A      0.134519    30A      0.150813    31A      0.164243  
      32A      0.173071    33A      0.180553    34A      0.195069  
      35A      0.212974    36A      0.224005    37A      0.236563  
      38A      0.244640    39A      0.266143    40A      0.300031  
      41A      0.323990    42A      0.331566    43A      0.360986  
      44A      0.387962    45A      0.393430    46A      0.409343  
      47A      0.425309    48A      0.448336    49A      0.455850  
      50A      0.461998    51A      0.496217    52A      0.501613  
      53A      0.525566    54A      0.549602    55A      0.558221  
      56A      0.566324    57A      0.593427    58A      0.612639  
      59A      0.623096    60A      0.630652    61A      0.638296  
      62A      0.640572    63A      0.647560    64A      0.666234  
      65A      0.670572    66A      0.679449    67A      0.688468  
      68A      0.695562    69A      0.713435    70A      0.728298  
      71A      0.746976    72A      0.774389    73A      0.801482  
      74A      0.813791    75A      0.824713    76A      0.832055  
      77A      0.855640    78A      0.881257    79A      0.889876  
      80A      0.898824    81A      0.926915    82A      0.943436  
      83A      0.947766    84A      0.969366    85A      0.998581  
      86A      1.005164    87A      1.034588    88A      1.079197  
      89A      1.081126    90A      1.090966    91A      1.114000  
      92A      1.144277    93A      1.151365    94A      1.189469  
      95A      1.220051    96A      1.227057    97A      1.252971  
      98A      1.267226    99A      1.275809   100A      1.296612  
     101A      1.299718   102A      1.310858   103A      1.329136  
     104A      1.341311   105A      1.361728   106A      1.378898  
     107A      1.386388   108A      1.395581   109A      1.406850  
     110A      1.416300   111A      1.441454   112A      1.465553  
     113A      1.472472   114A      1.484495   115A      1.494373  
     116A      1.502859   117A      1.527187   118A      1.536604  
     119A      1.551230   120A      1.584594   121A      1.590509  
     122A      1.606743   123A      1.626096   124A      1.636140  
     125A      1.652648   126A      1.685265   127A      1.689820  
     128A      1.726263   129A      1.757613   130A      1.788677  
     131A      1.792906   132A      1.807190   133A      1.825673  
     134A      1.851354   135A      1.875129   136A      1.893193  
     137A      1.940113   138A      1.951318   139A      1.989390  
     140A      2.037183   141A      2.065194   142A      2.256905  
     143A      2.310265   144A      2.351833   145A      2.359037  
     146A      2.404349   147A      2.461787   148A      2.487149  
     149A      2.542102   150A      2.552808   151A      2.592563  
     152A      2.629203   153A      2.661395   154A      2.684545  
     155A      2.705565   156A      2.729354   157A      2.748446  
     158A      2.765246   159A      2.808973   160A      2.817002  
     161A      2.833318   162A      2.857263   163A      2.869634  
     164A      2.897626   165A      2.901735   166A      2.918917  
     167A      2.922075   168A      2.957273   169A      2.995382  
     170A      3.014171   171A      3.017903   172A      3.044943  
     173A      3.063309   174A      3.111958   175A      3.123637  
     176A      3.150887   177A      3.159645   178A      3.181431  
     179A      3.215267   180A      3.238792   181A      3.247707  
     182A      3.265195   183A      3.279682   184A      3.299813  
     185A      3.319921   186A      3.331734   187A      3.342520  
     188A      3.356828   189A      3.374140   190A      3.395919  
     191A      3.400807   192A      3.411689   193A      3.424380  
     194A      3.428881   195A      3.440247   196A      3.446692  
     197A      3.472271   198A      3.480344   199A      3.502418  
     200A      3.521133   201A      3.535871   202A      3.550478  
     203A      3.557588   204A      3.572185   205A      3.574397  
     206A      3.598962   207A      3.613323   208A      3.655355  
     209A      3.672727   210A      3.681359   211A      3.700287  
     212A      3.732909   213A      3.738692   214A      3.768132  
     215A      3.788081   216A      3.799813   217A      3.819927  
     218A      3.841323   219A      3.866983   220A      3.875784  
     221A      3.886598   222A      3.913740   223A      3.934255  
     224A      3.960845   225A      3.967431   226A      3.986271  
     227A      4.001257   228A      4.016995   229A      4.064416  
     230A      4.075658   231A      4.086604   232A      4.115477  
     233A      4.134989   234A      4.144831   235A      4.158977  
     236A      4.166186   237A      4.182764   238A      4.194362  
     239A      4.201095   240A      4.205439   241A      4.218369  
     242A      4.233654   243A      4.264866   244A      4.279345  
     245A      4.286874   246A      4.319884   247A      4.335901  
     248A      4.359797   249A      4.366607   250A      4.387943  
     251A      4.407067   252A      4.424305   253A      4.438444  
     254A      4.444752   255A      4.460680   256A      4.494061  
     257A      4.514149   258A      4.551029   259A      4.563493  
     260A      4.585174   261A      4.590793   262A      4.625346  
     263A      4.626263   264A      4.644105   265A      4.651889  
     266A      4.669427   267A      4.679254   268A      4.688414  
     269A      4.712639   270A      4.744101   271A      4.770762  
     272A      4.780511   273A      4.813338   274A      4.873396  
     275A      4.908149   276A      4.938211   277A      5.006028  
     278A      5.023678   279A      5.030599   280A      5.050176  
     281A      5.099316   282A      5.128300   283A      5.169881  
     284A      5.182946   285A      5.219052   286A      5.225264  
     287A      5.249528   288A      5.289189   289A      5.298158  
     290A      5.328974   291A      5.352011   292A      5.379067  
     293A      5.402393   294A      5.408217   295A      5.448677  
     296A      5.480429   297A      5.503007   298A      5.539427  
     299A      5.613834   300A      5.624640   301A      5.631898  
     302A      5.660860   303A      5.714499   304A      5.723276  
     305A      5.745455   306A      5.753612   307A      5.767382  
     308A      5.800055   309A      5.840565   310A      5.868966  
     311A      5.881029   312A      5.895902   313A      5.910633  
     314A      5.929179   315A      5.932690   316A      6.022580  
     317A      6.041607   318A      6.054876   319A      6.106758  
     320A      6.264346   321A      6.284831   322A      6.322797  
     323A      6.333071   324A      6.398721   325A      6.457380  
     326A      6.490694   327A      6.667972   328A      6.780992  
     329A      6.800552   330A      6.870673   331A      6.964094  
     332A      7.024354   333A      7.052168   334A      7.097995  
     335A      7.210135   336A      7.286127   337A      7.326519  
     338A      7.402615   339A      7.494271   340A      7.601440  
     341A      7.736498   342A      7.869135   343A      8.025497  
     344A     10.029989   345A     13.219269   346A     13.366590  
     347A     13.391418   348A     13.873802   349A     14.195945  
     350A     14.280250  

    Final Occupation by Irrep:
              A 
    DOCC [    28 ]

  Energy converged.

  @DF-RHF Final Energy:  -345.04722642414936

   => Energetics <=

    Nuclear Repulsion Energy =            305.2752481876095771
    One-Electron Energy =               -1075.0375130686929879
    Two-Electron Energy =                 424.7150384569340531
    DFT Exchange-Correlation Energy =       0.0000000000000000
    Empirical Dispersion Energy =           0.0000000000000000
    PCM Polarization Energy =               0.0000000000000000
    EFP Energy =                            0.0000000000000000
    Total Energy =                       -345.0472264241493576


  Saving occupied orbitals to File 180.

*** tstop() called on cx1-27-3-1 at Sat Sep 10 18:27:31 2016
Module time:
	user time   =      25.62 seconds =       0.43 minutes
	system time =       0.67 seconds =       0.01 minutes
	total time  =          8 seconds =       0.13 minutes
Total time:
	user time   =      89.85 seconds =       1.50 minutes
	system time =       2.22 seconds =       0.04 minutes
	total time  =         26 seconds =       0.43 minutes


Properties will be evaluated at   0.000000,   0.000000,   0.000000 Bohr

Properties computed using the SCF density matrix

  Nuclear Dipole Moment: (a.u.)
     X:    13.2001      Y:    -1.0527      Z:    -0.5863

  Electronic Dipole Moment: (a.u.)
     X:   -12.5496      Y:     1.2043      Z:     0.0908

  Dipole Moment: (a.u.)
     X:     0.6505      Y:     0.1517      Z:    -0.4955     Total:     0.8317

  Dipole Moment: (Debye)
     X:     1.6535      Y:     0.3855      Z:    -1.2595     Total:     2.1140


*** tstart() called on cx1-27-3-1
*** at Sat Sep 10 18:27:31 2016


         ------------------------------------------------------------
                                   SCF GRAD                          
                          Rob Parrish, Justin Turney,                
                       Andy Simmonett, and Alex Sokolov              
         ------------------------------------------------------------

  ==> Geometry <==

    Molecular point group: c1
    Full point group: C1

    Geometry (in Angstrom), charge = 0, multiplicity = 1:

       Center              X                  Y                   Z               Mass       
    ------------   -----------------  -----------------  -----------------  -----------------
           H         -2.580120926887     1.380176125689    -0.842434040202     1.007825032070
           O         -1.734943346733     0.960656160380    -0.901560180641    15.994914619560
           C         -1.648304681824     0.049575402030     0.064934030596    12.000000000000
           C         -0.354585656144    -0.720839087836     0.029267544337    12.000000000000
           O         -2.539542101262    -0.148857376839     0.815828691768    15.994914619560
           C          0.897377508297     0.155859778761     0.003644828517    12.000000000000
           H         -0.386811584193    -1.359262144805    -0.848997799261     1.007825032070
           H         -0.356925513485    -1.369705204747     0.894296523937     1.007825032070
           C          2.180688324340    -0.667474391335     0.036444195089    12.000000000000
           H          0.888112096967     0.782760622595    -0.879757166150     1.007825032070
           H          0.880115285872     0.824546336021     0.859767447370     1.007825032070
           C          3.437922845903     0.195478652784     0.032474352577    12.000000000000
           H          2.197572797156    -1.334835936830    -0.820635664933     1.007825032070
           H          2.180663680422    -1.302199188677     0.918075923312     1.007825032070
           H          3.482754274837     0.817435776951    -0.855114376069     1.007825032070
           H          4.331746129301    -0.416711039935     0.053264117209     1.007825032070
           H          3.465390963485     0.850757273545     0.896514273628     1.007825032070

  Nuclear repulsion =  305.275248187609577

  ==> Basis Set <==

  Basis Set: CC-PVTZ
    Number of shells: 130
    Number of basis function: 350
    Number of Cartesian functions: 395
    Spherical Harmonics?: true
    Max angular momentum: 3

  ==> DFJKGrad: Density-Fitted SCF Gradients <==

    Gradient:                    1
    J tasked:                  Yes
    K tasked:                  Yes
    wK tasked:                  No
    OpenMP threads:              4
    Integrals threads:           4
    Memory (MB):              1430
    Schwarz Cutoff:          0E+00
    Fitting Condition:       1E-12

   => Auxiliary Basis Set <=

  Basis Set: 
    Number of shells: 275
    Number of basis function: 853
    Number of Cartesian functions: 1022
    Spherical Harmonics?: true
    Max angular momentum: 4


  -Total Gradient:
     Atom            X                  Y                   Z
    ------   -----------------  -----------------  -----------------
       1       -0.000090192826     0.000221788464    -0.000285066393
       2       -0.001596884287    -0.000768912025    -0.001189077130
       3        0.002633087150     0.003995550944     0.006444810649
       4        0.000132174456     0.000077546727    -0.002760747829
       5       -0.000710389406    -0.001333324074    -0.002948791153
       6       -0.000366151145    -0.000369055365    -0.000559220566
       7        0.000033843475    -0.001533111823     0.000724800930
       8       -0.000103418303    -0.000734624870     0.000077565566
       9       -0.000157711624     0.000321340056     0.000240701521
      10        0.000355397562     0.000114052635     0.000012254308
      11        0.000035317421    -0.000214919817     0.000058276091
      12        0.000107382230     0.000109867809     0.000069389559
      13       -0.000244080792     0.000211445774     0.000065832332
      14       -0.000017150261    -0.000124984958     0.000052915435
      15       -0.000002907597     0.000007737381    -0.000017390985
      16       -0.000031548644    -0.000003495517     0.000004703252
      17        0.000023232585     0.000023098659     0.000009044413


*** tstop() called on cx1-27-3-1 at Sat Sep 10 18:27:39 2016
Module time:
	user time   =      31.66 seconds =       0.53 minutes
	system time =       0.65 seconds =       0.01 minutes
	total time  =          8 seconds =       0.13 minutes
Total time:
	user time   =     121.66 seconds =       2.03 minutes
	system time =       2.87 seconds =       0.05 minutes
	total time  =         34 seconds =       0.57 minutes

			-----------------------------------------
			 OPTKING 2.0: for geometry optimizations 
			  - R.A. King,  Bethel University        
			-----------------------------------------

	Previous internal coordinate definitions found.
	---Fragment 1 Geometry and Gradient---
	 H          -4.8757219415        2.6081548927       -1.5919696210
	 O          -3.2785677814        1.8153770510       -1.7037018337
	 C          -3.1148444322        0.0936839328        0.1227075345
	 C          -0.6700697808       -1.3621884619        0.0553076434
	 O          -4.7990390743       -0.2812996751        1.5416927988
	 C           1.6957977285        0.2945322970        0.0068877277
	 H          -0.7309679592       -2.5686331965       -1.6043733280
	 H          -0.6744914703       -2.5883677198        1.6899755118
	 C           4.1209037142       -1.2613438003        0.0688695479
	 H           1.6782886386        1.4792032043       -1.6625001075
	 H           1.6631768557        1.5581667590        1.6247250135
	 C           6.4967326447        0.3694011186        0.0613676327
	 H           4.1528107437       -2.5224743529       -1.5507766616
	 H           4.1208571439       -2.4607998371        1.7349120643
	 H           6.5814517676        1.5447297497       -1.6159319831
	 H           8.1858138616       -0.7874697420        0.1006545942
	 H           6.5486398644        1.6076982526        1.6941664514
	            -0.0000901928        0.0002217885       -0.0002850664
	            -0.0015968843       -0.0007689120       -0.0011890771
	             0.0026330871        0.0039955509        0.0064448106
	             0.0001321745        0.0000775467       -0.0027607478
	            -0.0007103894       -0.0013333241       -0.0029487912
	            -0.0003661511       -0.0003690554       -0.0005592206
	             0.0000338435       -0.0015331118        0.0007248009
	            -0.0001034183       -0.0007346249        0.0000775656
	            -0.0001577116        0.0003213401        0.0002407015
	             0.0003553976        0.0001140526        0.0000122543
	             0.0000353174       -0.0002149198        0.0000582761
	             0.0001073822        0.0001098678        0.0000693896
	            -0.0002440808        0.0002114458        0.0000658323
	            -0.0000171503       -0.0001249850        0.0000529154
	            -0.0000029076        0.0000077374       -0.0000173910
	            -0.0000315486       -0.0000034955        0.0000047033
	             0.0000232326        0.0000230987        0.0000090444

	---Fragment 1 Intrafragment Coordinates---
	 - Coordinate -           - BOHR/RAD -       - ANG/DEG -
	 R(1,2)           =         1.786584	       0.945420
	 R(2,3)           =         2.515314	       1.331047
	 R(3,4)           =         2.846231	       1.506161
	 R(3,5)           =         2.233975	       1.182169
	 R(4,6)           =         2.888667	       1.528617
	 R(4,7)           =         2.052744	       1.086265
	 R(4,8)           =         2.043447	       1.081345
	 R(6,9)           =         2.881967	       1.525071
	 R(6,10)          =         2.047097	       1.083277
	 R(6,11)          =         2.053103	       1.086456
	 R(9,12)          =         2.881657	       1.524907
	 R(9,13)          =         2.052979	       1.086390
	 R(9,14)          =         2.052899	       1.086347
	 R(12,15)         =         2.049856	       1.084737
	 R(12,16)         =         2.047655	       1.083572
	 R(12,17)         =         2.049904	       1.084762
	 B(1,2,3)         =         1.892845	     108.452050
	 B(2,3,4)         =         1.970163	     112.882019
	 B(2,3,5)         =         2.125909	     121.805641
	 B(3,4,6)         =         1.993832	     114.238143
	 B(3,4,7)         =         1.869508	     107.114923
	 B(3,4,8)         =         1.860983	     106.626482
	 B(4,3,5)         =         2.185536	     125.222010
	 B(4,6,9)         =         1.959724	     112.283916
	 B(4,6,10)        =         1.916190	     109.789593
	 B(4,6,11)        =         1.903679	     109.072761
	 B(6,4,7)         =         1.926040	     110.353944
	 B(6,4,8)         =         1.938343	     111.058866
	 B(6,9,12)        =         1.969473	     112.842516
	 B(6,9,13)        =         1.904714	     109.132073
	 B(6,9,14)        =         1.910136	     109.442751
	 B(7,4,8)         =         1.869257	     107.100534
	 B(9,6,10)        =         1.914695	     109.703969
	 B(9,6,11)        =         1.905720	     109.189699
	 B(9,12,15)       =         1.939792	     111.141881
	 B(9,12,16)       =         1.939406	     111.119787
	 B(9,12,17)       =         1.939764	     111.140300
	 B(10,6,11)       =         1.861146	     106.635785
	 B(12,9,13)       =         1.910030	     109.436631
	 B(12,9,14)       =         1.910042	     109.437317
	 B(13,9,14)       =         1.855988	     106.340292
	 B(15,12,16)      =         1.881309	     107.791077
	 B(15,12,17)      =         1.880054	     107.719181
	 B(16,12,17)      =         1.880858	     107.765197
	 D(1,2,3,4)       =         3.102228	     177.744580
	 D(1,2,3,5)       =         0.017985	       1.030445
	 D(2,3,4,6)       =         0.916834	      52.530732
	*D(2,3,4,7)       =        -1.221730	     -70.000001
	 D(2,3,4,8)       =         3.064857	     175.603381
	 D(3,4,6,9)       =         3.093045	     177.218445
	 D(3,4,6,10)      =        -1.055195	     -60.458213
	 D(3,4,6,11)      =         0.978266	      56.050519
	 D(4,6,9,12)      =        -3.126542	    -179.137663
	 D(4,6,9,13)      =         1.029224	      58.970210
	 D(4,6,9,14)      =        -0.995228	     -57.022388
	 D(5,3,4,6)       =        -2.284421	    -130.887690
	 D(5,3,4,7)       =         1.860199	     106.581578
	 D(5,3,4,8)       =        -0.136398	      -7.815040
	 D(6,9,12,15)     =        -1.043691	     -59.799111
	 D(6,9,12,16)     =        -3.138732	    -179.836083
	 D(6,9,12,17)     =         1.050003	      60.160718
	 D(7,4,6,9)       =        -1.082698	     -62.034040
	 D(7,4,6,10)      =         1.052247	      60.289302
	 D(7,4,6,11)      =         3.085708	     176.798034
	 D(8,4,6,9)       =         0.987524	      56.580977
	 D(8,4,6,10)      =         3.122469	     178.904320
	 D(8,4,6,11)      =        -1.127255	     -64.586948
	 D(10,6,9,12)     =         1.020851	      58.490463
	 D(10,6,9,13)     =        -1.106568	     -63.401664
	 D(10,6,9,14)     =        -3.131021	    -179.394262
	 D(11,6,9,12)     =        -1.012935	     -58.036891
	 D(11,6,9,13)     =        -3.140354	    -179.929018
	 D(11,6,9,14)     =         1.118379	      64.078384
	 D(13,9,12,15)    =         1.080729	      61.921192
	 D(13,9,12,16)    =        -1.014312	     -58.115779
	 D(13,9,12,17)    =        -3.108763	    -178.118979
	 D(14,9,12,15)    =         3.108127	     178.082559
	 D(14,9,12,16)    =         1.013087	      58.045587
	 D(14,9,12,17)    =        -1.081364	     -61.957612

	Current energy   :      -345.0472264241

	Energy change for the previous step:
		Projected    :        -0.0009354904
		Actual       :        -0.0001325424
	Energy ratio indicates iffy step: Trust radius decreased to 1.250e-01.


	Performing BFGS update.
	Previous computed or guess Hessian on step 1.
	Steps to be used in Hessian update: 1
	Taking RFO optimization step.
	Going to follow RFO solution 1.
	Using RFO vector 1.

	Determining step-restricting scale parameter for RS-RFO.
	Maximum step size allowed    0.12500

	 Iter      |step|        alpha        rfo_root  
	------------------------------------------------
	    0     0.20909       1.00000           1
	    1     0.16604       6.37905           1
	    2     0.13786      14.97070           1
	    3     0.12681      20.47596           1
	    4     0.12504      21.51698           1
	    5     0.12500      21.54353           1
	------------------------------------------------
	Norm of target step-size    0.12500
	Projected energy change by RFO approximation:        -0.0002940312

	Back-transformation to cartesian coordinates...
	Could not converge backtransformation.
	Using first guess instead.

	Back-transformation to cartesian coordinates to adjust frozen coordinates...
	Successfully converged to displaced geometry.

	--- Internal Coordinate Step in ANG or DEG, aJ/ANG or AJ/DEG ---
	 ---------------------------------------------------------------------------
	   Coordinate                Previous        Force       Change         New 
	   ----------                --------       ------       ------       ------
	    1 R(1,2)          =      0.945420    -0.001328     0.000144     0.945564
	    2 R(2,3)          =      1.331047    -0.006638     0.000307     1.331354
	    3 R(3,4)          =      1.506161    -0.007640    -0.000116     1.506045
	    4 R(3,5)          =      1.182169     0.009175     0.001084     1.183252
	    5 R(4,6)          =      1.528617     0.001649     0.004422     1.533039
	    6 R(4,7)          =      1.086265    -0.002587     0.000515     1.086781
	    7 R(4,8)          =      1.081345    -0.004145    -0.002894     1.078452
	    8 R(6,9)          =      1.525071     0.004587     0.000243     1.525314
	    9 R(6,10)         =      1.083277    -0.000436    -0.000582     1.082695
	   10 R(6,11)         =      1.086456     0.000716     0.001495     1.087950
	   11 R(9,12)         =      1.524907    -0.001292    -0.000107     1.524801
	   12 R(9,13)         =      1.086390     0.001529    -0.000045     1.086344
	   13 R(9,14)         =      1.086347    -0.000955    -0.000390     1.085957
	   14 R(12,15)        =      1.084737    -0.000153     0.000039     1.084776
	   15 R(12,16)        =      1.083572     0.000197    -0.000063     1.083509
	   16 R(12,17)        =      1.084762    -0.000179     0.000042     1.084804
	   17 B(1,2,3)        =    108.452050    -0.000045    -0.129593   108.322457
	   18 B(2,3,4)        =    112.882019    -0.000046     0.640079   113.522098
	   19 B(2,3,5)        =    121.805641     0.000082    -0.008021   121.797620
	   20 B(3,4,6)        =    114.238143     0.000051     0.309423   114.547566
	   21 B(3,4,7)        =    107.114923    -0.000041    -0.349697   106.765226
	   22 B(3,4,8)        =    106.626482     0.000010    -0.022351   106.604131
	   23 B(4,3,5)        =    125.222010    -0.000028    -0.545771   124.676238
	   24 B(4,6,9)        =    112.283916    -0.000018    -0.070503   112.213414
	   25 B(4,6,10)       =    109.789593    -0.000021     0.079811   109.869404
	   26 B(4,6,11)       =    109.072761     0.000016     0.027522   109.100284
	   27 B(6,4,7)        =    110.353944    -0.000065    -1.064357   109.289587
	   28 B(6,4,8)        =    111.058866    -0.000027    -0.112207   110.946659
	   29 B(6,9,12)       =    112.842516    -0.000004     0.017767   112.860282
	   30 B(6,9,13)       =    109.132073     0.000018    -0.077911   109.054163
	   31 B(6,9,14)       =    109.442751    -0.000003    -0.035707   109.407044
	   32 B(7,4,8)        =    107.100534     0.000077     1.343706   108.444240
	   33 B(9,6,10)       =    109.703969     0.000016    -0.089910   109.614059
	   34 B(9,6,11)       =    109.189699     0.000013    -0.198199   108.991500
	   35 B(9,12,15)      =    111.141881     0.000001     0.018816   111.160697
	   36 B(9,12,16)      =    111.119787     0.000003    -0.026152   111.093635
	   37 B(9,12,17)      =    111.140300    -0.000003     0.006792   111.147092
	   38 B(10,6,11)      =    106.635785    -0.000005     0.267144   106.902929
	   39 B(12,9,13)      =    109.436631    -0.000011     0.021152   109.457783
	   40 B(12,9,14)      =    109.437317     0.000002     0.030766   109.468083
	   41 B(13,9,14)      =    106.340292    -0.000002     0.045359   106.385650
	   42 B(15,12,16)     =    107.791077    -0.000001    -0.006476   107.784601
	   43 B(15,12,17)     =    107.719181     0.000001     0.025710   107.744891
	   44 B(16,12,17)     =    107.765197     0.000000    -0.018664   107.746533
	   45 D(1,2,3,4)      =    177.744580     0.000019     1.856947   179.601527
	   46 D(1,2,3,5)      =      1.030445    -0.000017    -2.128225    -1.097779
	   47 D(2,3,4,6)      =     52.530732    -0.000018    -1.407456    51.123276
	   48 *D(2,3,4,7)     =    -70.000001    -0.000000    -0.000000   -70.000001
	   49 D(2,3,4,8)      =    175.603381    -0.000017    -1.365515   174.237866
	   50 D(3,4,6,9)      =    177.218445     0.000010     0.212928   177.431373
	   51 D(3,4,6,10)     =    -60.458213     0.000008     0.106424   -60.351789
	   52 D(3,4,6,11)     =     56.050519     0.000006     0.489776    56.540295
	   53 D(4,6,9,12)     =   -179.137663    -0.000004    -0.028187  -179.165850
	   54 D(4,6,9,13)     =     58.970210    -0.000003    -0.011618    58.958592
	   55 D(4,6,9,14)     =    -57.022388    -0.000005    -0.002346   -57.024734
	   56 D(5,3,4,6)      =   -130.887690     0.000020     2.733687  -128.154002
	   57 D(5,3,4,7)      =    106.581578     0.000038     4.141143   110.722721
	   58 D(5,3,4,8)      =     -7.815040     0.000022     2.775628    -5.039413
	   59 D(6,9,12,15)    =    -59.799111    -0.000001     0.005689   -59.793422
	   60 D(6,9,12,16)    =   -179.836083    -0.000001     0.018800  -179.817282
	   61 D(6,9,12,17)    =     60.160718    -0.000001     0.055344    60.216062
	   62 D(7,4,6,9)      =    -62.034040    -0.000005    -0.810438   -62.844478
	   63 D(7,4,6,10)     =     60.289302    -0.000007    -0.916942    59.372361
	   64 D(7,4,6,11)     =    176.798034    -0.000009    -0.533590   176.264444
	   65 D(8,4,6,9)      =     56.580977     0.000003     0.105535    56.686513
	   66 D(8,4,6,10)     =    178.904320     0.000002    -0.000969   178.903351
	   67 D(8,4,6,11)     =    -64.586948    -0.000000     0.382383   -64.204566
	   68 D(10,6,9,12)    =     58.490463     0.000002    -0.018166    58.472298
	   69 D(10,6,9,13)    =    -63.401664     0.000003    -0.001597   -63.403261
	   70 D(10,6,9,14)    =   -179.394262     0.000002     0.007675  -179.386587
	   71 D(11,6,9,12)    =    -58.036891    -0.000000    -0.175187   -58.212078
	   72 D(11,6,9,13)    =   -179.929018     0.000001    -0.158618  -180.087637
	   73 D(11,6,9,14)    =     64.078384    -0.000001    -0.149346    63.929038
	   74 D(13,9,12,15)   =     61.921192     0.000002    -0.066802    61.854391
	   75 D(13,9,12,16)   =    -58.115779     0.000001    -0.053691   -58.169470
	   76 D(13,9,12,17)   =   -178.118979     0.000001    -0.017147  -178.136125
	   77 D(14,9,12,15)   =    178.082559    -0.000000     0.017210   178.099769
	   78 D(14,9,12,16)   =     58.045587    -0.000000     0.030321    58.075908
	   79 D(14,9,12,17)   =    -61.957612    -0.000000     0.066865   -61.890747
	 ---------------------------------------------------------------------------
	Successfully symmetrized geometry.

  ==> Convergence Check <==

  Measures of convergence in internal coordinates in au.
  Criteria marked as inactive (o), active & met (*), and active & unmet ( ).
  ---------------------------------------------------------------------------------------------
   Step     Total Energy     Delta E     MAX Force     RMS Force      MAX Disp      RMS Disp   
  ---------------------------------------------------------------------------------------------
    Convergence Criteria    1.00e-06 *    3.00e-04 *             o    1.20e-03 *             o
  ---------------------------------------------------------------------------------------------
      2    -345.04722642   -1.33e-04      2.20e-03      5.26e-04 o    7.23e-02      1.40e-02 o  ~
  ---------------------------------------------------------------------------------------------

	Writing optimization data to binary file.
	Structure for next step:
	Cartesian Geometry (in Angstrom)
	    H    -2.5863604162   1.3878319503  -0.8246920490
	    O    -1.7455699388   0.9622915333  -0.9026486486
	    C    -1.6560615135   0.0349303110   0.0483990015
	    C    -0.3567921608  -0.7263405765   0.0252282442
	    O    -2.5258825496  -0.1416129588   0.8309139738
	    C     0.8973534766   0.1549283692  -0.0010751515
	    H    -0.3753086663  -1.3510538022  -0.8638627523
	    H    -0.3595793175  -1.3671714833   0.8926301137
	    C     2.1811645509  -0.6677288475   0.0394983364
	    H     0.8918338529   0.7764607945  -0.8875823453
	    H     0.8793089546   0.8254676742   0.8554802115
	    C     3.4381769499   0.1953531603   0.0343962117
	    H     2.1995009930  -1.3388045010  -0.8145890622
	    H     2.1782563323  -1.2976826129   0.9240620465
	    H     3.4855619297   0.8128914018  -0.8561884412
	    H     4.3317133314  -0.4169418932   0.0604774091
	    H     3.4637942875   0.8545432386   0.8955656029
			--------------------------
			 OPTKING Finished Execution 
			--------------------------

    Structure for next step:
    Molecular point group: c1
    Full point group: C1

    Geometry (in Angstrom), charge = 0, multiplicity = 1:

    H           -2.585808826155     1.388838995685    -0.824559089710
    O           -1.745018348701     0.963298578622    -0.902515689307
    C           -1.655509923425     0.035937356340     0.048531960789
    C           -0.356240570737    -0.725333531182     0.025361203550
    O           -2.525330959572    -0.140605913416     0.831046933060
    C            0.897905066639     0.155935414602    -0.000942192236
    H           -0.374757076270    -1.350046756869    -0.863729792999
    H           -0.359027727457    -1.366164437977     0.892763073031
    C            2.181716140998    -0.666721802191     0.039631295671
    H            0.892385442945     0.777467839827    -0.887449385992
    H            0.879860544663     0.826474719555     0.855613170780
    C            3.438728539941     0.196360205695     0.034529170967
    H            2.200052583019    -1.337797455595    -0.814456102886
    H            2.178807922350    -1.296675567535     0.924195005769
    H            3.486113519779     0.813898447150    -0.856055481871
    H            4.332264921455    -0.415934847801     0.060610368379
    H            3.464345877609     0.855550283910     0.895698562218

gradient() will perform analytic gradient computation.

*** tstart() called on cx1-27-3-1
*** at Sat Sep 10 18:27:40 2016


         ---------------------------------------------------------
                                   SCF
            by Justin Turney, Rob Parrish, and Andy Simmonett
                              RHF Reference
                        4 Threads,   2000 MiB Core
         ---------------------------------------------------------

  ==> Geometry <==

    Molecular point group: c1
    Full point group: C1

    Geometry (in Angstrom), charge = 0, multiplicity = 1:

       Center              X                  Y                   Z               Mass       
    ------------   -----------------  -----------------  -----------------  -----------------
           H         -2.585808826155     1.388838995685    -0.824559089710     1.007825032070
           O         -1.745018348701     0.963298578622    -0.902515689307    15.994914619560
           C         -1.655509923425     0.035937356340     0.048531960789    12.000000000000
           C         -0.356240570737    -0.725333531182     0.025361203550    12.000000000000
           O         -2.525330959572    -0.140605913416     0.831046933060    15.994914619560
           C          0.897905066639     0.155935414602    -0.000942192236    12.000000000000
[...]
	 C           6.4880263710        0.3862038001        0.0480041525
	 H           4.1437687683       -2.5146307133       -1.5452429939
	 H           4.1340574336       -2.4496536426        1.7405374322
	 H           6.5568844076        1.5608547618       -1.6304503337
	 H           8.1812655567       -0.7650647882        0.0757251441
	 H           6.5477574987        1.6255777946        1.6796774017
	            -0.0000007578       -0.0000075636        0.0000108160
	             0.0002799571        0.0004241527        0.0002946333
	            -0.0003771657       -0.0006089746       -0.0003771126
	             0.0003977934        0.0006527153       -0.0002773989
	            -0.0000040615       -0.0000384208        0.0000219225
	            -0.0000002494        0.0000188915       -0.0000702086
	            -0.0002726698       -0.0004867967        0.0003610218
	            -0.0000170705        0.0000124906        0.0000036612
	             0.0000047772       -0.0000162147        0.0000514852
	             0.0000144556        0.0000539656       -0.0000193029
	             0.0000098272       -0.0000267910        0.0000154153
	            -0.0000150302        0.0000171946       -0.0000156354
	            -0.0000281003        0.0000044342        0.0000011413
	             0.0000063374       -0.0000007150        0.0000077529
	             0.0000066328        0.0000077310       -0.0000065393
	            -0.0000059408       -0.0000053984       -0.0000050217
	             0.0000012651       -0.0000007007        0.0000033698

	---Fragment 1 Intrafragment Coordinates---
	 - Coordinate -           - BOHR/RAD -       - ANG/DEG -
	 R(1,2)           =         1.786511	       0.945381
	 R(2,3)           =         2.513277	       1.329969
	 R(3,4)           =         2.843893	       1.504923
	 R(3,5)           =         2.235277	       1.182858
	 R(4,6)           =         2.890479	       1.529576
	 R(4,7)           =         2.052198	       1.085976
	 R(4,8)           =         2.041551	       1.080342
	 R(6,9)           =         2.883384	       1.525821
	 R(6,10)          =         2.046910	       1.083178
	 R(6,11)          =         2.053045	       1.086424
	 R(9,12)          =         2.881298	       1.524717
	 R(9,13)          =         2.053306	       1.086563
	 R(9,14)          =         2.052637	       1.086209
	 R(12,15)         =         2.049818	       1.084717
	 R(12,16)         =         2.047742	       1.083618
	 R(12,17)         =         2.049872	       1.084745
	 B(1,2,3)         =         1.890614	     108.324188
	 B(2,3,4)         =         1.969790	     112.860638
	 B(2,3,5)         =         2.128881	     121.975892
	 B(3,4,6)         =         1.992760	     114.176715
	 B(3,4,7)         =         1.868054	     107.031598
	 B(3,4,8)         =         1.862448	     106.710431
	 B(4,3,5)         =         2.184454	     125.160010
	 B(4,6,9)         =         1.957239	     112.141515
	 B(4,6,10)        =         1.912242	     109.563403
	 B(4,6,11)        =         1.906677	     109.244566
	 B(6,4,7)         =         1.918841	     109.941478
	 B(6,4,8)         =         1.939156	     111.105427
	 B(6,9,12)        =         1.969163	     112.824735
	 B(6,9,13)        =         1.906428	     109.230271
	 B(6,9,14)        =         1.909681	     109.416674
	 B(7,4,8)         =         1.877527	     107.574370
	 B(9,6,10)        =         1.915416	     109.745245
	 B(9,6,11)        =         1.908281	     109.336476
	 B(9,12,15)       =         1.939841	     111.144715
	 B(9,12,16)       =         1.939546	     111.127824
	 B(9,12,17)       =         1.939725	     111.138082
	 B(10,6,11)       =         1.861487	     106.655336
	 B(12,9,13)       =         1.909446	     109.403212
	 B(12,9,14)       =         1.909727	     109.419311
	 B(13,9,14)       =         1.855957	     106.338527
	 B(15,12,16)      =         1.881244	     107.787360
	 B(15,12,17)      =         1.880029	     107.717731
	 B(16,12,17)      =         1.880788	     107.761192
	 D(1,2,3,4)       =         3.127115	     179.170501
	 D(1,2,3,5)       =        -0.003238	      -0.185512
	 D(2,3,4,6)       =         0.905925	      51.905658
	*D(2,3,4,7)       =        -1.221730	     -70.000001
	 D(2,3,4,8)       =         3.055359	     175.059153
	 D(3,4,6,9)       =         3.110519	     178.219638
	 D(3,4,6,10)      =        -1.041287	     -59.661330
	 D(3,4,6,11)      =         0.992066	      56.841201
	 D(4,6,9,12)      =        -3.139753	    -179.894576
	 D(4,6,9,13)      =         1.015745	      58.197926
	 D(4,6,9,14)      =        -1.009380	     -57.833186
	 D(5,3,4,6)       =        -2.247330	    -128.762531
	 D(5,3,4,7)       =         1.908200	     109.331810
	 D(5,3,4,8)       =        -0.097896	      -5.609036
	 D(6,9,12,15)     =        -1.044470	     -59.843720
	 D(6,9,12,16)     =        -3.139555	    -179.883277
	 D(6,9,12,17)     =         1.049199	      60.114689
	 D(7,4,6,9)       =        -1.073164	     -61.487746
	 D(7,4,6,10)      =         1.058216	      60.631286
	 D(7,4,6,11)      =         3.091568	     177.133817
	 D(8,4,6,9)       =         1.003236	      57.481214
	 D(8,4,6,10)      =         3.134616	     179.600246
	 D(8,4,6,11)      =        -1.115217	     -63.897223
	 D(10,6,9,12)     =         1.013863	      58.090056
	 D(10,6,9,13)     =        -1.113824	     -63.817442
	 D(10,6,9,14)     =        -3.138949	    -179.848554
	 D(11,6,9,12)     =        -1.022221	     -58.568941
	 D(11,6,9,13)     =         3.133277	     179.523562
	 D(11,6,9,14)     =         1.108152	      63.492450
	 D(13,9,12,15)    =         1.081515	      61.966232
	 D(13,9,12,16)    =        -1.013571	     -58.073325
	 D(13,9,12,17)    =        -3.108001	    -178.075360
	 D(14,9,12,15)    =         3.108368	     178.096374
	 D(14,9,12,16)    =         1.013283	      58.056817
	 D(14,9,12,17)    =        -1.081148	     -61.945218

	Current energy   :      -345.0473852692

	Energy change for the previous step:
		Projected    :        -0.0000036876
		Actual       :        -0.0000006266
	Energy ratio indicates iffy step: Trust radius decreased to 2.344e-02.


	Performing BFGS update.
	Previous computed or guess Hessian on step 1.
	Steps to be used in Hessian update: 5 4
	Taking RFO optimization step.
	Going to follow RFO solution 1.
	Using RFO vector 1.
	Norm of target step-size    0.01180
	Projected energy change by RFO approximation:        -0.0000011147

	Back-transformation to cartesian coordinates...
	Could not converge backtransformation.
	Using first guess instead.

	Back-transformation to cartesian coordinates to adjust frozen coordinates...
	Successfully converged to displaced geometry.

	--- Internal Coordinate Step in ANG or DEG, aJ/ANG or AJ/DEG ---
	 ---------------------------------------------------------------------------
	   Coordinate                Previous        Force       Change         New 
	   ----------                --------       ------       ------       ------
	    1 R(1,2)          =      0.945381     0.000017    -0.000002     0.945379
	    2 R(2,3)          =      1.329969    -0.000413    -0.000037     1.329931
	    3 R(3,4)          =      1.504923     0.000246     0.000028     1.504951
	    4 R(3,5)          =      1.182858    -0.000190    -0.000014     1.182844
	    5 R(4,6)          =      1.529576    -0.000212    -0.000057     1.529519
	    6 R(4,7)          =      1.085976     0.000046     0.000000     1.085977
	    7 R(4,8)          =      1.080342     0.000037     0.000028     1.080370
	    8 R(6,9)          =      1.525821     0.000232     0.000015     1.525836
	    9 R(6,10)         =      1.083178    -0.000387    -0.000038     1.083140
	   10 R(6,11)         =      1.086424     0.000035    -0.000013     1.086412
	   11 R(9,12)         =      1.524717    -0.000001     0.000003     1.524720
	   12 R(9,13)         =      1.086563     0.000033    -0.000000     1.086563
	   13 R(9,14)         =      1.086209    -0.000056    -0.000000     1.086208
	   14 R(12,15)        =      1.084717    -0.000082    -0.000009     1.084708
	   15 R(12,16)        =      1.083618     0.000016     0.000001     1.083619
	   16 R(12,17)        =      1.084745    -0.000019    -0.000001     1.084744
	   17 B(1,2,3)        =    108.324188     0.000002     0.006203   108.330391
	   18 B(2,3,4)        =    112.860638     0.000003     0.002195   112.862833
	   19 B(2,3,5)        =    121.975892    -0.000004    -0.007775   121.968117
	   20 B(3,4,6)        =    114.176715     0.000004     0.011759   114.188475
	   21 B(3,4,7)        =    107.031598    -0.000002     0.004364   107.035962
	   22 B(3,4,8)        =    106.710431    -0.000001    -0.004313   106.706118
	   23 B(4,3,5)        =    125.160010     0.000002     0.005658   125.165668
	   24 B(4,6,9)        =    112.141515     0.000002     0.004400   112.145915
	   25 B(4,6,10)       =    109.563403    -0.000002    -0.008611   109.554792
	   26 B(4,6,11)       =    109.244566    -0.000001    -0.001194   109.243372
	   27 B(6,4,7)        =    109.941478     0.000000     0.015349   109.956827
	   28 B(6,4,8)        =    111.105427    -0.000003    -0.009620   111.095807
	   29 B(6,9,12)       =    112.824735     0.000001     0.003679   112.828414
	   30 B(6,9,13)       =    109.230271     0.000001     0.011722   109.241993
	   31 B(6,9,14)       =    109.416674    -0.000001    -0.006969   109.409705
	   32 B(7,4,8)        =    107.574370     0.000000    -0.019520   107.554851
	   33 B(9,6,10)       =    109.745245    -0.000000    -0.000598   109.744647
	   34 B(9,6,11)       =    109.336476     0.000000     0.008135   109.344611
	   35 B(9,12,15)      =    111.144715    -0.000001    -0.003184   111.141531
	   36 B(9,12,16)      =    111.127824     0.000001     0.003617   111.131442
	   37 B(9,12,17)      =    111.138082    -0.000000    -0.000127   111.137954
	   38 B(10,6,11)      =    106.655336     0.000000    -0.002439   106.652897
	   39 B(12,9,13)      =    109.403212    -0.000001     0.001083   109.404295
	   40 B(12,9,14)      =    109.419311    -0.000001    -0.007543   109.411768
	   41 B(13,9,14)      =    106.338527     0.000000    -0.002296   106.336231
	   42 B(15,12,16)     =    107.787360     0.000000     0.001218   107.788578
	   43 B(15,12,17)     =    107.717731     0.000000    -0.001035   107.716696
	   44 B(16,12,17)     =    107.761192    -0.000000    -0.000509   107.760683
	   45 D(1,2,3,4)      =    179.170501    -0.000000     0.001481   179.171982
	   46 D(1,2,3,5)      =     -0.185512     0.000000    -0.005807    -0.191319
	   47 D(2,3,4,6)      =     51.905658     0.000000     0.030165    51.935823
	   48 *D(2,3,4,7)     =    -70.000001    -0.000000     0.000000   -70.000001
	   49 D(2,3,4,8)      =    175.059153     0.000000     0.022402   175.081555
	   50 D(3,4,6,9)      =    178.219638    -0.000000    -0.070060   178.149578
	   51 D(3,4,6,10)     =    -59.661330    -0.000000    -0.073910   -59.735240
	   52 D(3,4,6,11)     =     56.841201    -0.000000    -0.082410    56.758791
	   53 D(4,6,9,12)     =   -179.894576     0.000000     0.213419  -179.681157
	   54 D(4,6,9,13)     =     58.197926     0.000000     0.201200    58.399126
	   55 D(4,6,9,14)     =    -57.833186    -0.000000     0.201264   -57.631921
	   56 D(5,3,4,6)      =   -128.762531     0.000000     0.037625  -128.724906
	   57 D(5,3,4,7)      =    109.331810    -0.000000     0.007461   109.339270
	   58 D(5,3,4,8)      =     -5.609036     0.000000     0.029863    -5.579173
	   59 D(6,9,12,15)    =    -59.843720    -0.000000    -0.045342   -59.889062
	   60 D(6,9,12,16)    =   -179.883277    -0.000000    -0.047173  -179.930450
	   61 D(6,9,12,17)    =     60.114689    -0.000000    -0.048866    60.065823
	   62 D(7,4,6,9)      =    -61.487746     0.000000    -0.045154   -61.532901
	   63 D(7,4,6,10)     =     60.631286     0.000000    -0.049004    60.582282
	   64 D(7,4,6,11)     =    177.133817    -0.000000    -0.057504   177.076312
	   65 D(8,4,6,9)      =     57.481214    -0.000000    -0.065599    57.415615
	   66 D(8,4,6,10)     =    179.600246    -0.000000    -0.069449   179.530797
	   67 D(8,4,6,11)     =    -63.897223    -0.000000    -0.077949   -63.975172
	   68 D(10,6,9,12)    =     58.090056     0.000000     0.221835    58.311891
	   69 D(10,6,9,13)    =    -63.817442     0.000000     0.209615   -63.607827
	   70 D(10,6,9,14)    =   -179.848554     0.000000     0.209680  -179.638874
	   71 D(11,6,9,12)    =    -58.568941     0.000000     0.220421   -58.348520
	   72 D(11,6,9,13)    =    179.523562     0.000000     0.208201   179.731763
	   73 D(11,6,9,14)    =     63.492450     0.000000     0.208266    63.700716
	   74 D(13,9,12,15)   =     61.966232     0.000000    -0.027100    61.939131
	   75 D(13,9,12,16)   =    -58.073325     0.000000    -0.028931   -58.102257
	   76 D(13,9,12,17)   =   -178.075360     0.000000    -0.030624  -178.105984
	   77 D(14,9,12,15)   =    178.096374     0.000000    -0.033510   178.062864
	   78 D(14,9,12,16)   =     58.056817    -0.000000    -0.035341    58.021476
	   79 D(14,9,12,17)   =    -61.945218    -0.000000    -0.037034   -61.982251
	 ---------------------------------------------------------------------------
	Successfully symmetrized geometry.

  ==> Convergence Check <==

  Measures of convergence in internal coordinates in au.
  Criteria marked as inactive (o), active & met (*), and active & unmet ( ).
  ---------------------------------------------------------------------------------------------
   Step     Total Energy     Delta E     MAX Force     RMS Force      MAX Disp      RMS Disp   
  ---------------------------------------------------------------------------------------------
    Convergence Criteria    1.00e-06 *    3.00e-04 *             o    1.20e-03 *             o
  ---------------------------------------------------------------------------------------------
      6    -345.04738527   -6.27e-07 *    5.90e-05 *    1.80e-05 o    3.87e-03      1.33e-03 o  ~
  ---------------------------------------------------------------------------------------------


  **** Optimization is complete! (in 6 steps) ****

  ==> Optimization Summary <==

  Measures of convergence in internal coordinates in au.
  --------------------------------------------------------------------------------------------------------------- ~
   Step         Total Energy             Delta E       MAX Force       RMS Force        MAX Disp        RMS Disp  ~
  --------------------------------------------------------------------------------------------------------------- ~
      1    -345.047093881799   -345.047093881799      0.00479396      0.00105689      0.08597120      0.02247509  ~
      2    -345.047226424149     -0.000132542351      0.00219955      0.00052646      0.07227658      0.01400930  ~
      3    -345.047252873459     -0.000026449310      0.00305180      0.00076110      0.01253819      0.00351618  ~
      4    -345.047366623940     -0.000113750480      0.00061603      0.00018264      0.01160302      0.00351576  ~
      5    -345.047384642603     -0.000018018664      0.00012459      0.00003884      0.00818000      0.00303128  ~
      6    -345.047385269247     -0.000000626644      0.00005897      0.00001801      0.00387175      0.00132801  ~
  --------------------------------------------------------------------------------------------------------------- ~

	Writing optimization data to binary file.
	Final energy is   -345.0473852692471
	Final (previous) structure:
	Cartesian Geometry (in Angstrom)
	    H    -2.5674178890   1.3822186018  -0.8431981806
	    O    -1.7277146448   0.9526758478  -0.9075169825
	    C    -1.6518406131   0.0367799702   0.0538334840
	    C    -0.3552609209  -0.7269151551   0.0327414384
	    O    -2.5346853842  -0.1409830119   0.8207347838
	    C     0.8925408837   0.1575718890   0.0161440103
	    H    -0.3728439192  -1.3591920865  -0.8500165066
	    H    -0.3618502745  -1.3741258345   0.8977354086
	    C     2.1790602206  -0.6624750404   0.0389869782
	    H     0.8772172093   0.7899234323  -0.8631574099
	    H     0.8731067384   0.8203902502   0.8767322877
	    C     3.4333156843   0.2043702489   0.0254027034
	    H     2.1927879899  -1.3306852615  -0.8177073741
	    H     2.1876489728  -1.2963008766   0.9210527398
	    H     3.4697537879   0.8259687659  -0.8627971563
	    H     4.3293392700  -0.4048548490   0.0400720204
	    H     3.4649240357   0.8602187197   0.8888469987
	Saving final (previous) structure.
			--------------------------
			 OPTKING Finished Execution 
			--------------------------

    Final optimized geometry and variables:
    Molecular point group: c1
    Full point group: C1

    Geometry (in Angstrom), charge = 0, multiplicity = 1:

    H           -2.567417888963     1.382218601804    -0.843198180644
    O           -1.727714644822     0.952675847846    -0.907516982545
    C           -1.651840613131     0.036779970165     0.053833483980
    C           -0.355260920929    -0.726915155146     0.032741438353
    O           -2.534685384192    -0.140983011883     0.820734783847
    C            0.892540883738     0.157571889011     0.016144010306
    H           -0.372843919177    -1.359192086527    -0.850016506590
    H           -0.361850274485    -1.374125834474     0.897735408557
    C            2.179060220572    -0.662475040356     0.038986978236
    H            0.877217209302     0.789923432334    -0.863157409873
    H            0.873106738444     0.820390250166     0.876732287697
    C            3.433315684276     0.204370248895     0.025402703418
    H            2.192787989864    -1.330685261515    -0.817707374101
    H            2.187648972848    -1.296300876604     0.921052739833
    H            3.469753787885     0.825968765878    -0.862797156322
    H            4.329339270009    -0.404854849001     0.040072020381
    H            3.464924035662     0.860218719681     0.888846998740

	Cleaning optimization helper files.


Properties will be evaluated at   0.000000,   0.000000,   0.000000 Bohr

Properties computed using the  density matrix

  Nuclear Dipole Moment: (a.u.)
     X:    13.1910      Y:    -1.0146      Z:    -0.5746

  Electronic Dipole Moment: (a.u.)
     X:   -12.5433      Y:     1.1622      Z:     0.0695

  Dipole Moment: (a.u.)
     X:     0.6477      Y:     0.1476      Z:    -0.5050     Total:     0.8345

  Dipole Moment: (Debye)
     X:     1.6462      Y:     0.3751      Z:    -1.2837     Total:     2.1210

  Quadrupole Moment: (Debye Ang)
    XX:   -47.1737     YY:   -41.7929     ZZ:   -45.2974
    XY:    -4.0271     XZ:     5.5066     YZ:     0.5207

  Traceless Quadrupole Moment: (Debye Ang)
    XX:    -2.4190     YY:     2.9618     ZZ:    -0.5428
    XY:    -4.0271     XZ:     5.5066     YZ:     0.5207

  Mulliken Charges: (a.u.)
   Center  Symbol    Alpha    Beta     Spin     Total
       1     H     0.38074  0.38074  0.00000  0.23853
       2     O     4.16208  4.16208  0.00000 -0.32416
       3     C     2.81077  2.81077  0.00000  0.37847
       4     C     3.08718  3.08718  0.00000 -0.17436
       5     O     4.19370  4.19370  0.00000 -0.38740
       6     C     3.09687  3.09687  0.00000 -0.19374
       7     H     0.44499  0.44499  0.00000  0.11001
       8     H     0.43567  0.43567  0.00000  0.12867
       9     C     3.08752  3.08752  0.00000 -0.17504
      10     H     0.44182  0.44182  0.00000  0.11636
      11     H     0.44908  0.44908  0.00000  0.10183
      12     C     3.14906  3.14906  0.00000 -0.29812
      13     H     0.45350  0.45350  0.00000  0.09301
      14     H     0.45207  0.45207  0.00000  0.09586
      15     H     0.45400  0.45400  0.00000  0.09200
      16     H     0.44714  0.44714  0.00000  0.10571
      17     H     0.45381  0.45381  0.00000  0.09239

   Total alpha = 28.00000, Total beta = 28.00000, Total charge = -0.00000


*** Psi4 exiting successfully. Buy a developer a beer!
