    -----------------------------------------------------------------------
          Psi4: An Open-Source Ab Initio Electronic Structure Package
                              Psi4 1.0.54 Driver

                          Git: Rev {master} 8d4cec3 dirty

    J. M. Turney, A. C. Simmonett, R. M. Parrish, E. G. Hohenstein,
    F. A. Evangelista, J. T. Fermann, B. J. Mintz, L. A. Burns, J. J. Wilke,
    M. L. Abrams, N. J. Russ, M. L. Leininger, C. L. Janssen, E. T. Seidl,
    W. D. Allen, H. F. Schaefer, R. A. King, E. F. Valeev, C. D. Sherrill,
    and T. D. Crawford, WIREs Comput. Mol. Sci. 2, 556-565 (2012)
    (doi: 10.1002/wcms.93)

                         Additional Contributions by
    A. E. DePrince, U. Bozkaya, A. Yu. Sokolov, D. G. A. Smith, R. Di Remigio,
    R. M. Richard, J. F. Gonthier, H. R. McAlexander, M. Saitow, and
    B. P. Pritchard
    -----------------------------------------------------------------------


    Psi4 started on: Sat Sep 10 16:44:37 2016

    Process ID:  32272
    PSI4DATADIR: /export131/home/mjharvey/miniconda3/share/psi4
    Memory level set to 256.000 MB

  ==> Input File <==

--------------------------------------------------------------------------
set {
	reference rhf
	basis cc-pvtz
}


set_num_threads( 4 )
memory 2 gb

molecule MOL {
0 1

H	 -1.970548	 0.107610	 -2.371943
O	 -2.116347	 0.013079	 -1.448522
C	 -1.079716	 0.620830	 -0.730068
C	 0.195183	 -0.196598	 -0.795153
H	 -0.884740	 1.627696	 -1.085503
H	 -1.408180	 0.693863	 0.296801
O	 1.172093	 0.457955	 -0.054438
H	 0.512955	 -0.308481	 -1.833132
H	 0.008195	 -1.193589	 -0.401938
C	 2.395478	 -0.199028	 -0.000366
H	 2.505946	 -0.901710	 -0.823354
H	 3.174616	 0.545641	 -0.071768
H	 2.513730	 -0.742241	 0.934223

	symmetry c1
}
set optking {
	frozen_dihedral = ("
		4 7 10 13
	")
}

ee,wfn = optimize('scf', return_wfn=True)
oeprop( wfn, 'DIPOLE', 'QUADRUPOLE', 'MULLIKEN_CHARGES')
f=open( 'psi4out.xyz', 'w' )
f.write( "13  " )
f.write( str(ee) + "\n" )
f.write( MOL.save_string_xyz() )
f.close()
--------------------------------------------------------------------------

  Memory set to   2.000 GiB by Python script.
gradient() will perform analytic gradient computation.

*** tstart() called on cx1-27-2-4
*** at Sat Sep 10 16:44:37 2016


         ---------------------------------------------------------
                                   SCF
            by Justin Turney, Rob Parrish, and Andy Simmonett
                              RHF Reference
                        4 Threads,   2000 MiB Core
         ---------------------------------------------------------

  ==> Geometry <==

    Molecular point group: c1
    Full point group: C1

    Geometry (in Angstrom), charge = 0, multiplicity = 1:

       Center              X                  Y                   Z               Mass       
    ------------   -----------------  -----------------  -----------------  -----------------
           H         -2.069359948283    -0.024720366670    -1.744148584101     1.007825032070
           O         -2.215158948283    -0.119251366670    -0.820727584101    15.994914619560
           C         -1.178527948283     0.488499633330    -0.102273584101    12.000000000000
           C          0.096371051717    -0.328928366670    -0.167358584101    12.000000000000
           H         -0.983551948283     1.495365633330    -0.457708584101     1.007825032070
           H         -1.506991948283     0.561532633330     0.924595415899     1.007825032070
           O          1.073281051717     0.325624633330     0.573356415899    15.994914619560
           H          0.414143051717    -0.440811366670    -1.205337584101     1.007825032070
           H         -0.090616948283    -1.325919366670     0.225856415899     1.007825032070
           C          2.296666051717    -0.331358366670     0.627428415899    12.000000000000
           H          2.407134051717    -1.034040366670    -0.195559584101     1.007825032070
           H          3.075804051717     0.413310633330     0.556026415899     1.007825032070
           H          2.414918051717    -0.874571366670     1.562017415899     1.007825032070

  Running in c1 symmetry.

  Rotational constants: A =      0.77102  B =      0.07232  C =      0.06900 [cm^-1]
  Rotational constants: A =  23114.48772  B =   2168.01366  C =   2068.56719 [MHz]
  Nuclear repulsion =  190.520038821349857

  Charge       = 0
  Multiplicity = 1
  Electrons    = 42
  Nalpha       = 21
  Nbeta        = 21

  ==> Algorithm <==

  SCF Algorithm Type is DF.
  DIIS enabled.
  MOM disabled.
  Fractional occupation disabled.
  Guess Type is SAD.
  Energy threshold   = 1.00e-08
  Density threshold  = 1.00e-08
  Integral threshold = 0.00e+00

  ==> Primary Basis <==

  Basis Set: CC-PVTZ
    Number of shells: 98
    Number of basis function: 262
    Number of Cartesian functions: 295
    Spherical Harmonics?: true
    Max angular momentum: 3

  ==> Pre-Iterations <==

   -------------------------------------------------------
    Irrep   Nso     Nmo     Nalpha   Nbeta   Ndocc  Nsocc
   -------------------------------------------------------
     A        262     262       0       0       0       0
   -------------------------------------------------------
    Total     262     262      21      21      21       0
   -------------------------------------------------------

  ==> Integral Setup <==

  ==> DFJK: Density-Fitted J/K Matrices <==

    J tasked:                  Yes
    K tasked:                  Yes
    wK tasked:                  No
    OpenMP threads:              4
    Integrals threads:           4
    Memory (MB):              1430
    Algorithm:                Core
    Integral Cache:           NONE
    Schwarz Cutoff:          1E-12
    Fitting Condition:       1E-12

   => Auxiliary Basis Set <=

  Basis Set: 
    Number of shells: 205
    Number of basis function: 635
    Number of Cartesian functions: 760
    Spherical Harmonics?: true
    Max angular momentum: 4

  Minimum eigenvalue in the overlap matrix is 7.9191371566E-04.
  Using Symmetric Orthogonalization.
  SCF Guess: Superposition of Atomic Densities via on-the-fly atomic UHF.

  ==> Iterations <==

                           Total Energy        Delta E     RMS |[F,P]|

   @DF-RHF iter   0:  -270.01205331738231   -2.70012e+02   1.65471e-02 
   @DF-RHF iter   1:  -267.92805716147950    2.08400e+00   1.72254e-03 
   @DF-RHF iter   2:  -268.03938607280190   -1.11329e-01   7.37630e-04 DIIS
   @DF-RHF iter   3:  -268.05569183373450   -1.63058e-02   2.81422e-04 DIIS
   @DF-RHF iter   4:  -268.05916173660000   -3.46990e-03   6.31748e-05 DIIS
   @DF-RHF iter   5:  -268.05943644454680   -2.74708e-04   2.07692e-05 DIIS
   @DF-RHF iter   6:  -268.05946853553462   -3.20910e-05   6.25351e-06 DIIS
   @DF-RHF iter   7:  -268.05947095078659   -2.41525e-06   1.92767e-06 DIIS
   @DF-RHF iter   8:  -268.05947116310278   -2.12316e-07   6.57751e-07 DIIS
   @DF-RHF iter   9:  -268.05947118542019   -2.23174e-08   1.91368e-07 DIIS
   @DF-RHF iter  10:  -268.05947118817016   -2.74997e-09   5.27080e-08 DIIS
   @DF-RHF iter  11:  -268.05947118835161   -1.81444e-10   1.38221e-08 DIIS
   @DF-RHF iter  12:  -268.05947118836480   -1.31877e-11   3.58590e-09 DIIS

  ==> Post-Iterations <==

    Orbital Energies (a.u.)
    -----------------------

    Doubly Occupied:                                                      

       1A    -20.554029     2A    -20.552747     3A    -11.269643  
       4A    -11.267201     5A    -11.267010     6A     -1.391316  
       7A     -1.369067     8A     -1.019325     9A     -0.913696  
      10A     -0.843567    11A     -0.711483    12A     -0.675422  
      13A     -0.662547    14A     -0.638509    15A     -0.599134  
      16A     -0.568319    17A     -0.550114    18A     -0.490876  
      19A     -0.484949    20A     -0.441600    21A     -0.420686  

    Virtual:                                                              

      22A      0.137578    23A      0.151813    24A      0.182351  
      25A      0.194087    26A      0.203685    27A      0.222910  
      28A      0.231365    29A      0.251940    30A      0.269045  
      31A      0.328002    32A      0.340677    33A      0.372069  
      34A      0.406474    35A      0.416116    36A      0.451661  
      37A      0.464931    38A      0.515874    39A      0.543486  
      40A      0.566268    41A      0.577172    42A      0.592241  
      43A      0.600719    44A      0.624993    45A      0.630348  
      46A      0.633783    47A      0.647988    48A      0.665919  
      49A      0.674805    50A      0.681905    51A      0.710024  
      52A      0.739372    53A      0.748191    54A      0.771951  
      55A      0.798637    56A      0.810755    57A      0.833330  
      58A      0.902156    59A      0.915456    60A      0.931034  
      61A      0.954645    62A      0.985847    63A      1.010459  
      64A      1.030116    65A      1.071489    66A      1.103937  
      67A      1.136473    68A      1.146138    69A      1.186720  
      70A      1.196168    71A      1.206966    72A      1.229662  
      73A      1.247395    74A      1.281905    75A      1.283771  
      76A      1.294212    77A      1.312715    78A      1.327248  
      79A      1.351871    80A      1.386704    81A      1.398268  
      82A      1.419165    83A      1.450832    84A      1.467987  
      85A      1.493162    86A      1.513511    87A      1.529498  
      88A      1.537114    89A      1.547556    90A      1.567966  
      91A      1.586813    92A      1.602393    93A      1.615621  
      94A      1.636426    95A      1.706976    96A      1.736822  
      97A      1.788167    98A      1.830373    99A      1.881657  
     100A      2.030749   101A      2.115159   102A      2.194240  
     103A      2.224704   104A      2.231514   105A      2.299366  
     106A      2.315222   107A      2.337582   108A      2.401748  
     109A      2.418829   110A      2.482532   111A      2.512724  
     112A      2.564895   113A      2.588072   114A      2.652866  
     115A      2.659693   116A      2.729294   117A      2.769560  
     118A      2.824639   119A      2.833673   120A      2.893035  
     121A      2.923723   122A      2.958714   123A      3.014312  
     124A      3.059914   125A      3.095589   126A      3.110805  
     127A      3.124627   128A      3.147592   129A      3.154259  
     130A      3.204019   131A      3.221274   132A      3.253225  
     133A      3.262258   134A      3.272206   135A      3.290096  
     136A      3.312724   137A      3.330010   138A      3.333738  
     139A      3.361457   140A      3.395162   141A      3.402707  
     142A      3.420599   143A      3.437869   144A      3.450531  
     145A      3.481462   146A      3.490155   147A      3.533639  
     148A      3.544092   149A      3.590782   150A      3.618215  
     151A      3.644075   152A      3.667184   153A      3.700226  
     154A      3.706511   155A      3.728632   156A      3.748230  
     157A      3.748987   158A      3.779137   159A      3.792742  
     160A      3.820041   161A      3.833087   162A      3.838693  
     163A      3.885722   164A      3.897165   165A      3.935640  
     166A      3.944318   167A      4.017179   168A      4.035000  
     169A      4.073031   170A      4.083620   171A      4.124202  
     172A      4.128109   173A      4.142297   174A      4.159903  
     175A      4.177269   176A      4.194287   177A      4.246264  
     178A      4.268150   179A      4.285654   180A      4.291474  
     181A      4.310770   182A      4.333854   183A      4.337617  
     184A      4.353793   185A      4.387993   186A      4.419745  
     187A      4.435560   188A      4.456983   189A      4.503037  
     190A      4.523431   191A      4.551719   192A      4.579983  
     193A      4.594634   194A      4.628448   195A      4.643666  
     196A      4.692198   197A      4.718073   198A      4.736077  
     199A      4.779065   200A      4.807967   201A      4.883933  
     202A      4.996752   203A      5.011732   204A      5.030627  
     205A      5.075787   206A      5.098203   207A      5.137550  
     208A      5.178027   209A      5.214080   210A      5.252604  
     211A      5.277356   212A      5.297288   213A      5.355921  
     214A      5.379147   215A      5.395312   216A      5.439492  
     217A      5.457335   218A      5.482351   219A      5.518940  
     220A      5.536813   221A      5.581649   222A      5.613740  
     223A      5.642427   224A      5.711559   225A      5.758242  
     226A      5.808821   227A      5.826220   228A      5.923967  
     229A      5.948235   230A      6.009771   231A      6.039032  
     232A      6.062538   233A      6.154520   234A      6.210407  
     235A      6.263967   236A      6.302605   237A      6.346688  
     238A      6.420513   239A      6.524189   240A      6.631527  
     241A      6.708609   242A      6.735871   243A      6.855189  
     244A      6.948464   245A      7.073828   246A      7.170422  
     247A      7.237404   248A      7.284216   249A      7.307996  
     250A      7.353761   251A      7.420908   252A      7.517030  
     253A      7.579565   254A      7.681247   255A      7.841819  
     256A      7.907117   257A      8.029046   258A     11.465728  
     259A     12.701890   260A     13.339087   261A     13.903756  
     262A     14.205257  

    Final Occupation by Irrep:
              A 
    DOCC [    21 ]

  Energy converged.

  @DF-RHF Final Energy:  -268.05947118836480

   => Energetics <=

    Nuclear Repulsion Energy =            190.5200388213498570
    One-Electron Energy =                -743.7765410740005336
    Two-Electron Energy =                 285.1970310642857385
    DFT Exchange-Correlation Energy =       0.0000000000000000
    Empirical Dispersion Energy =           0.0000000000000000
    PCM Polarization Energy =               0.0000000000000000
    EFP Energy =                            0.0000000000000000
    Total Energy =                       -268.0594711883649097


  Saving occupied orbitals to File 180.

*** tstop() called on cx1-27-2-4 at Sat Sep 10 16:44:42 2016
Module time:
	user time   =      14.83 seconds =       0.25 minutes
	system time =       0.45 seconds =       0.01 minutes
	total time  =          5 seconds =       0.08 minutes
Total time:
	user time   =      14.83 seconds =       0.25 minutes
	system time =       0.45 seconds =       0.01 minutes
	total time  =          5 seconds =       0.08 minutes


Properties will be evaluated at   0.000000,   0.000000,   0.000000 Bohr

Properties computed using the SCF density matrix

  Nuclear Dipole Moment: (a.u.)
     X:     3.4270      Y:    -1.1520      Z:    -0.3145

  Electronic Dipole Moment: (a.u.)
     X:    -2.8046      Y:     0.9963      Z:    -0.1945

  Dipole Moment: (a.u.)
     X:     0.6224      Y:    -0.1556      Z:    -0.5090     Total:     0.8190

  Dipole Moment: (Debye)
     X:     1.5820      Y:    -0.3955      Z:    -1.2938     Total:     2.0816


*** tstart() called on cx1-27-2-4
*** at Sat Sep 10 16:44:42 2016


         ------------------------------------------------------------
                                   SCF GRAD                          
                          Rob Parrish, Justin Turney,                
                       Andy Simmonett, and Alex Sokolov              
         ------------------------------------------------------------

  ==> Geometry <==

    Molecular point group: c1
    Full point group: C1

    Geometry (in Angstrom), charge = 0, multiplicity = 1:

       Center              X                  Y                   Z               Mass       
    ------------   -----------------  -----------------  -----------------  -----------------
           H         -2.069359948283    -0.024720366670    -1.744148584101     1.007825032070
           O         -2.215158948283    -0.119251366670    -0.820727584101    15.994914619560
           C         -1.178527948283     0.488499633330    -0.102273584101    12.000000000000
           C          0.096371051717    -0.328928366670    -0.167358584101    12.000000000000
           H         -0.983551948283     1.495365633330    -0.457708584101     1.007825032070
           H         -1.506991948283     0.561532633330     0.924595415899     1.007825032070
           O          1.073281051717     0.325624633330     0.573356415899    15.994914619560
           H          0.414143051717    -0.440811366670    -1.205337584101     1.007825032070
           H         -0.090616948283    -1.325919366670     0.225856415899     1.007825032070
           C          2.296666051717    -0.331358366670     0.627428415899    12.000000000000
           H          2.407134051717    -1.034040366670    -0.195559584101     1.007825032070
           H          3.075804051717     0.413310633330     0.556026415899     1.007825032070
           H          2.414918051717    -0.874571366670     1.562017415899     1.007825032070

  Nuclear repulsion =  190.520038821349857

  ==> Basis Set <==

  Basis Set: CC-PVTZ
    Number of shells: 98
    Number of basis function: 262
    Number of Cartesian functions: 295
    Spherical Harmonics?: true
    Max angular momentum: 3

  ==> DFJKGrad: Density-Fitted SCF Gradients <==

    Gradient:                    1
    J tasked:                  Yes
    K tasked:                  Yes
    wK tasked:                  No
    OpenMP threads:              4
    Integrals threads:           4
    Memory (MB):              1430
    Schwarz Cutoff:          0E+00
    Fitting Condition:       1E-12

   => Auxiliary Basis Set <=

  Basis Set: 
    Number of shells: 205
    Number of basis function: 635
    Number of Cartesian functions: 760
    Spherical Harmonics?: true
    Max angular momentum: 4


  -Total Gradient:
     Atom            X                  Y                   Z
    ------   -----------------  -----------------  -----------------
       1       -0.000003827957    -0.000011472192     0.000001114297
       2        0.000095765369     0.000024016574     0.000101779926
       3       -0.000091636032     0.000322084750    -0.000140252287
       4        0.002920730008     0.000500737930    -0.001686151564
       5       -0.000061810107    -0.000046074252    -0.000008974998
       6        0.000022184179    -0.000038957594     0.000000809642
       7        0.002592420597    -0.000036949906     0.003045045223
       8        0.000129818784    -0.000312555380    -0.000430228653
       9        0.000670601698    -0.000053176641     0.000264106999
      10       -0.003466268455     0.000611276869    -0.000411920872
      11       -0.001390478875    -0.001581338663    -0.001105362358
      12       -0.002722199144     0.000668503484    -0.000809998810
      13        0.001304699936    -0.000046094978     0.001180033457


*** tstop() called on cx1-27-2-4 at Sat Sep 10 16:44:46 2016
Module time:
	user time   =      14.92 seconds =       0.25 minutes
	system time =       0.35 seconds =       0.01 minutes
	total time  =          4 seconds =       0.07 minutes
Total time:
	user time   =      29.81 seconds =       0.50 minutes
	system time =       0.80 seconds =       0.01 minutes
	total time  =          9 seconds =       0.15 minutes

			-----------------------------------------
			 OPTKING 2.0: for geometry optimizations 
			  - R.A. King,  Bethel University        
			-----------------------------------------

	Internal coordinates to be generated automatically.
	Detected frag 1 with atoms:  1 2 3 4 5 6 7 8 9 10 11 12 13
	---Fragment 1 Bond Connectivity---
	 1 : 2
	 2 : 1 3
	 3 : 2 4 5 6
	 4 : 3 7 8 9
	 5 : 3
	 6 : 3
	 7 : 4 10
	 8 : 4
	 9 : 4
	 10 : 7 11 12 13
	 11 : 10
	 12 : 10
	 13 : 10

	Assuming in current code that numbering for constraints corresponds to unified fragment.
	Frozen dihedral atom list: 
	     4     7    10    13
	---Fragment 1 Geometry and Gradient---
	 H          -3.9105235726       -0.0467147229       -3.2959631590
	 O          -4.1860437531       -0.2253524240       -1.5509503637
	 C          -2.2270950622        0.9231305230       -0.1932690646
	 C           0.1821148949       -0.6215845303       -0.3162618899
	 H          -1.8586438197        2.8258315155       -0.8649438726
	 H          -2.8478020667        1.0611428917        1.7472321198
	 O           2.0282072514        0.6153413791        1.0834866026
	 H           0.7826169476       -0.8330127593       -2.2777579316
	 H          -0.1712412153       -2.5056244773        0.4268067714
	 C           4.3400698564       -0.6261765648        1.1856678740
	 H           4.5488241229       -1.9540531034       -0.3695540566
	 H           5.8124272962        0.7810439048        1.0507376487
	 H           4.5635337511       -1.6527003667        2.9517851308
	            -0.0000038280       -0.0000114722        0.0000011143
	             0.0000957654        0.0000240166        0.0001017799
	            -0.0000916360        0.0003220847       -0.0001402523
	             0.0029207300        0.0005007379       -0.0016861516
	            -0.0000618101       -0.0000460743       -0.0000089750
	             0.0000221842       -0.0000389576        0.0000008096
	             0.0025924206       -0.0000369499        0.0030450452
	             0.0001298188       -0.0003125554       -0.0004302287
	             0.0006706017       -0.0000531766        0.0002641070
	            -0.0034662685        0.0006112769       -0.0004119209
	            -0.0013904789       -0.0015813387       -0.0011053624
	            -0.0027221991        0.0006685035       -0.0008099988
	             0.0013046999       -0.0000460950        0.0011800335

	Previous optimization step data not found.  Starting new optimization.

	---Fragment 1 Intrafragment Coordinates---
	 - Coordinate -           - BOHR/RAD -       - ANG/DEG -
	 R(1,2)           =         1.775639	       0.939627
	 R(2,3)           =         2.645712	       1.400050
	 R(3,4)           =         2.864536	       1.515847
	 R(3,5)           =         2.051140	       1.085416
	 R(3,6)           =         2.042026	       1.080594
	 R(4,7)           =         2.626278	       1.389767
	 R(4,8)           =         2.062225	       1.091282
	 R(4,9)           =         2.055874	       1.087922
	 R(7,10)          =         2.626122	       1.389684
	 R(10,11)         =         2.055614	       1.087784
	 R(10,12)         =         2.041155	       1.080132
	 R(10,13)         =         2.054959	       1.087438
	 B(1,2,3)         =         1.923835	     110.227649
	 B(2,3,4)         =         1.946161	     111.506815
	 B(2,3,5)         =         1.947265	     111.570089
	 B(2,3,6)         =         1.867035	     106.973197
	 B(3,4,7)         =         1.890553	     108.320700
	 B(3,4,8)         =         1.918810	     109.939739
	 B(3,4,9)         =         1.911455	     109.518306
	 B(4,3,5)         =         1.912497	     109.578020
	 B(4,3,6)         =         1.910171	     109.444755
	 B(4,7,10)        =         2.000820	     114.638525
	 B(5,3,6)         =         1.878731	     107.643337
	 B(7,4,8)         =         1.928949	     110.520612
	 B(7,4,9)         =         1.938844	     111.087564
	 B(7,10,11)       =         1.944808	     111.429268
	 B(7,10,12)       =         1.882324	     107.849249
	 B(7,10,13)       =         1.944783	     111.427887
	 B(8,4,9)         =         1.875359	     107.450176
	 B(11,10,12)      =         1.898726	     108.788991
	 B(11,10,13)      =         1.892833	     108.451363
	 B(12,10,13)      =         1.899444	     108.830148
	 D(1,2,3,4)       =        -1.286089	     -73.687497
	 D(1,2,3,5)       =         0.858791	      49.205123
	 D(1,2,3,6)       =         2.909181	     166.683807
	 D(2,3,4,7)       =        -3.132842	    -179.498600
	 D(2,3,4,8)       =         1.040949	      59.642007
	 D(2,3,4,9)       =        -1.015794	     -58.200728
	 D(3,4,7,10)      =         3.117099	     178.596622
	 D(4,7,10,11)     =         0.371481	      21.284291
	 D(4,7,10,12)     =         2.454235	     140.617333
	*D(4,7,10,13)     =        -1.745329	     -99.999995
	 D(5,3,4,7)       =         0.985713	      56.477207
	 D(5,3,4,8)       =        -1.123681	     -64.382186
	 D(5,3,4,9)       =         3.102760	     177.775079
	 D(6,3,4,7)       =        -1.070643	     -61.343351
	 D(6,3,4,8)       =         3.103148	     177.797255
	 D(6,3,4,9)       =         1.046404	      59.954521
	 D(8,4,7,10)      =        -1.062990	     -60.904818
	 D(9,4,7,10)      =         1.017043	      58.272287

	Current energy   :      -268.0594711884

	Generating empirical Hessian (Schlegel '84) for each fragment.
	Taking RFO optimization step.
	Going to follow RFO solution 1.
	Using RFO vector 1.
	Norm of target step-size    0.05786
	Projected energy change by RFO approximation:        -0.0005799581

	Back-transformation to cartesian coordinates...
	Successfully converged to displaced geometry.

	Back-transformation to cartesian coordinates to adjust frozen coordinates...
	Successfully converged to displaced geometry.

	--- Internal Coordinate Step in ANG or DEG, aJ/ANG or AJ/DEG ---
	 ---------------------------------------------------------------------------
	   Coordinate                Previous        Force       Change         New 
	   ----------                --------       ------       ------       ------
	    1 R(1,2)          =      0.939627     0.000023     0.000002     0.939630
	    2 R(2,3)          =      1.400050     0.001041     0.000146     1.400197
	    3 R(3,4)          =      1.515847    -0.001365    -0.000285     1.515562
	    4 R(3,5)          =      1.085416     0.000419     0.000076     1.085493
	    5 R(3,6)          =      1.080594     0.000071     0.000013     1.080606
	    6 R(4,7)          =      1.389767     0.014481     0.001962     1.391729
	    7 R(4,8)          =      1.091282    -0.003947    -0.000730     1.090552
	    8 R(4,9)          =      1.087922    -0.000238    -0.000044     1.087878
	    9 R(7,10)         =      1.389684     0.044520     0.006030     1.395713
	   10 R(10,11)        =      1.087784    -0.014142    -0.002586     1.085198
	   11 R(10,12)        =      1.080132     0.011939     0.002128     1.082261
	   12 R(10,13)        =      1.087438    -0.009714    -0.001774     1.085663
	   13 B(1,2,3)        =    110.227649    -0.000001    -0.008808   110.218841
	   14 B(2,3,4)        =    111.506815     0.000004     0.016133   111.522948
	   15 B(2,3,5)        =    111.570089     0.000000    -0.007698   111.562391
	   16 B(2,3,6)        =    106.973197    -0.000001     0.023841   106.997039
	   17 B(3,4,7)        =    108.320700    -0.000013    -0.057787   108.262913
	   18 B(3,4,8)        =    109.939739    -0.000000    -0.107873   109.831866
	   19 B(3,4,9)        =    109.518306    -0.000043    -0.212088   109.306218
	   20 B(4,3,5)        =    109.578020    -0.000006    -0.048136   109.529884
	   21 B(4,3,6)        =    109.444755     0.000003     0.033576   109.478332
	   22 B(4,7,10)       =    114.638525     0.000547     1.627657   116.266181
	   23 B(5,3,6)        =    107.643337    -0.000001    -0.015800   107.627537
	   24 B(7,4,8)        =    110.520612    -0.000009    -0.121687   110.398925
	   25 B(7,4,9)        =    111.087564     0.000052     0.421350   111.508914
	   26 B(7,10,11)      =    111.429268     0.000150     0.927732   112.357000
	   27 B(7,10,12)      =    107.849249     0.000242     0.995672   108.844922
	   28 B(7,10,13)      =    111.427887    -0.000176    -0.870802   110.557085
	   29 B(8,4,9)        =    107.450176     0.000013     0.072460   107.522636
	   30 B(11,10,12)     =    108.788991    -0.000128    -0.498621   108.290371
	   31 B(11,10,13)     =    108.451363     0.000035     0.436075   108.887438
	   32 B(12,10,13)     =    108.830148    -0.000130    -1.056435   107.773713
	   33 D(1,2,3,4)      =    -73.687497     0.000001    -0.005692   -73.693189
	   34 D(1,2,3,5)      =     49.205123    -0.000000    -0.061987    49.143135
	   35 D(1,2,3,6)      =    166.683807    -0.000001    -0.070894   166.612913
	   36 D(2,3,4,7)      =   -179.498600    -0.000005    -0.571135  -180.069735
	   37 D(2,3,4,8)      =     59.642007    -0.000000    -0.322215    59.319792
	   38 D(2,3,4,9)      =    -58.200728     0.000002    -0.220653   -58.421380
	   39 D(3,4,7,10)     =    178.596622    -0.000002    -0.218801   178.377822
	   40 D(4,7,10,11)    =     21.284291     0.000006     0.590705    21.874996
	   41 D(4,7,10,12)    =    140.617333     0.000025     1.187297   141.804629
	   42 *D(4,7,10,13)   =    -99.999995    -0.000000    -0.000000   -99.999995
	   43 D(5,3,4,7)      =     56.477207    -0.000004    -0.538061    55.939146
	   44 D(5,3,4,8)      =    -64.382186     0.000000    -0.289140   -64.671327
	   45 D(5,3,4,9)      =    177.775079     0.000003    -0.187578   177.587501
	   46 D(6,3,4,7)      =    -61.343351    -0.000004    -0.510393   -61.853745
	   47 D(6,3,4,8)      =    177.797255     0.000001    -0.261473   177.535782
	   48 D(6,3,4,9)      =     59.954521     0.000003    -0.159911    59.794610
	   49 D(8,4,7,10)     =    -60.904818    -0.000005    -0.460406   -61.365224
	   50 D(9,4,7,10)     =     58.272287     0.000005    -0.176963    58.095324
	 ---------------------------------------------------------------------------
	Successfully symmetrized geometry.

  ==> Convergence Check <==

  Measures of convergence in internal coordinates in au.
  Criteria marked as inactive (o), active & met (*), and active & unmet ( ).
  --------------------------------------------------------------------------------------------- ~
   Step     Total Energy     Delta E     MAX Force     RMS Force      MAX Disp      RMS Disp    ~
  --------------------------------------------------------------------------------------------- ~
    Convergence Criteria    1.00e-06 *    3.00e-04 *             o    1.20e-03 *             o  ~
  --------------------------------------------------------------------------------------------- ~
      1    -268.05947119   -2.68e+02      7.18e-03      1.55e-03 o    2.84e-02      8.20e-03 o  ~
  ---------------------------------------------------------------------------------------------

	Writing optimization data to binary file.
	Structure for next step:
	Cartesian Geometry (in Angstrom)
	    H    -2.0941677402  -0.0287442632  -1.7309931004
	    O    -2.2322217282  -0.1155288342  -0.8056207244
	    C    -1.1831985693   0.4876778561  -0.1011753549
	    C     0.0833904441  -0.3415732165  -0.1720589932
	    H    -0.9817227916   1.4898349544  -0.4663912871
	    H    -1.5013685505   0.5722770465   0.9280576455
	    O     1.0771063647   0.3177987074   0.5453431580
	    H     0.3855203959  -0.4673698793  -1.2123458271
	    H    -0.1117012061  -1.3316398227   0.2343719133
	    C     2.3146723750  -0.3233515561   0.6186423475
	    H     2.4557671023  -1.0412225282  -0.1828610742
	    H     3.0981517196   0.4201578084   0.5505047000
	    H     2.4238818566  -0.8335840393   1.5706930036
			--------------------------
			 OPTKING Finished Execution 
			--------------------------

    Structure for next step:
    Molecular point group: c1
    Full point group: C1

    Geometry (in Angstrom), charge = 0, multiplicity = 1:

    H           -2.091610453804    -0.027146507766    -1.726659206816
    O           -2.229664441867    -0.113931078738    -0.801286830776
    C           -1.180641282903     0.489275611537    -0.096841461317
    C            0.085947730427    -0.339975461042    -0.167725099575
    H           -0.979165505228     1.491432709823    -0.462057393469
    H           -1.498811264111     0.573874801978     0.932391539120
    O            1.079663651083     0.319396462867     0.549677051642
    H            0.388077682238    -0.465772123846    -1.208011933501
    H           -0.109143919765    -1.330042067290     0.238705806916
    C            2.317229661331    -0.321753800700     0.622976241127
    H            2.458324388654    -1.039624772762    -0.178527180573
    H            3.100709006002     0.421755563845     0.554838593575
    H            2.426439143012    -0.831986283802     1.575026897186

gradient() will perform analytic gradient computation.

*** tstart() called on cx1-27-2-4
*** at Sat Sep 10 16:44:47 2016


         ---------------------------------------------------------
                                   SCF
            by Justin Turney, Rob Parrish, and Andy Simmonett
                              RHF Reference
                        4 Threads,   2000 MiB Core
         ---------------------------------------------------------

  ==> Geometry <==

    Molecular point group: c1
    Full point group: C1

    Geometry (in Angstrom), charge = 0, multiplicity = 1:

       Center              X                  Y                   Z               Mass       
    ------------   -----------------  -----------------  -----------------  -----------------
           H         -2.091610453804    -0.027146507766    -1.726659206816     1.007825032070
           O         -2.229664441867    -0.113931078738    -0.801286830776    15.994914619560
           C         -1.180641282903     0.489275611537    -0.096841461317    12.000000000000
           C          0.085947730427    -0.339975461042    -0.167725099575    12.000000000000
           H         -0.979165505228     1.491432709823    -0.462057393469     1.007825032070
           H         -1.498811264111     0.573874801978     0.932391539120     1.007825032070
           O          1.079663651083     0.319396462867     0.549677051642    15.994914619560
           H          0.388077682238    -0.465772123846    -1.208011933501     1.007825032070
           H         -0.109143919765    -1.330042067290     0.238705806916     1.007825032070
           C          2.317229661331    -0.321753800700     0.622976241127    12.000000000000
           H          2.458324388654    -1.039624772762    -0.178527180573     1.007825032070
           H          3.100709006002     0.421755563845     0.554838593575     1.007825032070
           H          2.426439143012    -0.831986283802     1.575026897186     1.007825032070

  Running in c1 symmetry.

  Rotational constants: A =      0.78045  B =      0.07167  C =      0.06848 [cm^-1]
  Rotational constants: A =  23397.33524  B =   2148.60894  C =   2052.99759 [MHz]
  Nuclear repulsion =  190.096949667948536

  Charge       = 0
  Multiplicity = 1
  Electrons    = 42
  Nalpha       = 21
  Nbeta        = 21

  ==> Algorithm <==

  SCF Algorithm Type is DF.
  DIIS enabled.
  MOM disabled.
  Fractional occupation disabled.
  Guess Type is READ.
  Energy threshold   = 1.00e-08
  Density threshold  = 1.00e-08
  Integral threshold = 0.00e+00

  ==> Primary Basis <==

  Basis Set: CC-PVTZ
    Number of shells: 98
    Number of basis function: 262
    Number of Cartesian functions: 295
    Spherical Harmonics?: true
    Max angular momentum: 3

  ==> Pre-Iterations <==

   -------------------------------------------------------
    Irrep   Nso     Nmo     Nalpha   Nbeta   Ndocc  Nsocc
   -------------------------------------------------------
     A        262     262       0       0       0       0
   -------------------------------------------------------
    Total     262     262      21      21      21       0
   -------------------------------------------------------

  ==> Integral Setup <==

  ==> DFJK: Density-Fitted J/K Matrices <==

    J tasked:                  Yes
    K tasked:                  Yes
    wK tasked:                  No
    OpenMP threads:              4
    Integrals threads:           4
    Memory (MB):              1430
    Algorithm:                Core
    Integral Cache:           NONE
    Schwarz Cutoff:          1E-12
    Fitting Condition:       1E-12

   => Auxiliary Basis Set <=

  Basis Set: 
    Number of shells: 205
    Number of basis function: 635
    Number of Cartesian functions: 760
    Spherical Harmonics?: true
    Max angular momentum: 4

  Minimum eigenvalue in the overlap matrix is 7.9926798148E-04.
  Using Symmetric Orthogonalization.
  SCF Guess: Reading in previously saved MOs, projecting if necessary.

  Using orbitals from previous SCF, no projection.
  Recomputing DOCC and SOCC from number of alpha and beta electrons from previous calculation.
              A 
    DOCC [    21 ]

  ==> Iterations <==

                           Total Energy        Delta E     RMS |[F,P]|

   @DF-RHF iter   0:  -268.05449553424103   -2.68054e+02   1.98568e-04 
   @DF-RHF iter   1:  -268.05955356673877   -5.05803e-03   3.41495e-05 
   @DF-RHF iter   2:  -268.05961885460897   -6.52879e-05   1.35734e-05 DIIS
   @DF-RHF iter   3:  -268.05962784530442   -8.99070e-06   7.02503e-06 DIIS
   @DF-RHF iter   4:  -268.05962976164238   -1.91634e-06   9.32792e-07 DIIS
   @DF-RHF iter   5:  -268.05962982439962   -6.27572e-08   3.55127e-07 DIIS
   @DF-RHF iter   6:  -268.05962983340919   -9.00957e-09   1.21767e-07 DIIS
   @DF-RHF iter   7:  -268.05962983438889   -9.79696e-10   3.40337e-08 DIIS
   @DF-RHF iter   8:  -268.05962983447108   -8.21956e-11   1.25910e-08 DIIS
   @DF-RHF iter   9:  -268.05962983447859   -7.50333e-12   3.10171e-09 DIIS

  ==> Post-Iterations <==

    Orbital Energies (a.u.)
    -----------------------

    Doubly Occupied:                                                      

       1A    -20.553470     2A    -20.552730     3A    -11.269770  
       4A    -11.267645     5A    -11.267147     6A     -1.387644  
       7A     -1.368556     8A     -1.019521     9A     -0.914493  
      10A     -0.842188    11A     -0.711084    12A     -0.673802  
      13A     -0.661671    14A     -0.637261    15A     -0.598564  
      16A     -0.569773    17A     -0.550261    18A     -0.491003  
      19A     -0.483248    20A     -0.441353    21A     -0.420209  

    Virtual:                                                              

      22A      0.137742    23A      0.151518    24A      0.182444  
      25A      0.193533    26A      0.203720    27A      0.223341  
      28A      0.230370    29A      0.252192    30A      0.268499  
      31A      0.327936    32A      0.340525    33A      0.374350  
      34A      0.405007    35A      0.415577    36A      0.452428  
      37A      0.461853    38A      0.513359    39A      0.542246  
      40A      0.565998    41A      0.575832    42A      0.591883  
      43A      0.600376    44A      0.625519    45A      0.629175  
      46A      0.633714    47A      0.648063    48A      0.665683  
      49A      0.674423    50A      0.682413    51A      0.709411  
      52A      0.738944    53A      0.748656    54A      0.768676  
      55A      0.799178    56A      0.808423    57A      0.833915  
      58A      0.902192    59A      0.917602    60A      0.932274  
      61A      0.959112    62A      0.981469    63A      1.012576  
      64A      1.028282    65A      1.070958    66A      1.101546  
      67A      1.135064    68A      1.147939    69A      1.180985  
      70A      1.195806    71A      1.207081    72A      1.231341  
      73A      1.246111    74A      1.279244    75A      1.285799  
      76A      1.293442    77A      1.312389    78A      1.326971  
      79A      1.351329    80A      1.386536    81A      1.393853  
      82A      1.413161    83A      1.452227    84A      1.468052  
      85A      1.491445    86A      1.509904    87A      1.532091  
      88A      1.538415    89A      1.544753    90A      1.566419  
      91A      1.589568    92A      1.598716    93A      1.612356  
      94A      1.633534    95A      1.706735    96A      1.736131  
      97A      1.790208    98A      1.828354    99A      1.881770  
     100A      2.029997   101A      2.113489   102A      2.190942  
     103A      2.225069   104A      2.230656   105A      2.297366  
     106A      2.313577   107A      2.339049   108A      2.403477  
     109A      2.419086   110A      2.476956   111A      2.502972  
     112A      2.564069   113A      2.588228   114A      2.646643  
     115A      2.658441   116A      2.728399   117A      2.767004  
     118A      2.822344   119A      2.832273   120A      2.892441  
     121A      2.925737   122A      2.959405   123A      3.015428  
     124A      3.057369   125A      3.094417   126A      3.109657  
     127A      3.123767   128A      3.146445   129A      3.154645  
     130A      3.205069   131A      3.217270   132A      3.251953  
     133A      3.258924   134A      3.269191   135A      3.289033  
     136A      3.311836   137A      3.330974   138A      3.332355  
     139A      3.360299   140A      3.393322   141A      3.403330  
     142A      3.420161   143A      3.441053   144A      3.448068  
     145A      3.482680   146A      3.490251   147A      3.530061  
     148A      3.544482   149A      3.586567   150A      3.621406  
     151A      3.640741   152A      3.667483   153A      3.697673  
     154A      3.707812   155A      3.723615   156A      3.749352  
     157A      3.751354   158A      3.780285   159A      3.788613  
     160A      3.820519   161A      3.833474   162A      3.841297  
     163A      3.882908   164A      3.885885   165A      3.937915  
     166A      3.941293   167A      4.013555   168A      4.034689  
     169A      4.063187   170A      4.077480   171A      4.117677  
     172A      4.122530   173A      4.142620   174A      4.157836  
     175A      4.177510   176A      4.195054   177A      4.241630  
     178A      4.269215   179A      4.283421   180A      4.292693  
     181A      4.305640   182A      4.330870   183A      4.333120  
     184A      4.352931   185A      4.384952   186A      4.420492  
     187A      4.439257   188A      4.454971   189A      4.501635  
     190A      4.523175   191A      4.552220   192A      4.584189  
     193A      4.596490   194A      4.629392   195A      4.646965  
     196A      4.685101   197A      4.710876   198A      4.734710  
     199A      4.778073   200A      4.806169   201A      4.879707  
     202A      4.983930   203A      5.004925   204A      5.032677  
     205A      5.071642   206A      5.104196   207A      5.132660  
     208A      5.178399   209A      5.214776   210A      5.250962  
     211A      5.276127   212A      5.296676   213A      5.345724  
     214A      5.380345   215A      5.399690   216A      5.426494  
     217A      5.456152   218A      5.475846   219A      5.506618  
     220A      5.530093   221A      5.572895   222A      5.614745  
     223A      5.647931   224A      5.711151   225A      5.757551  
     226A      5.807787   227A      5.825855   228A      5.921049  
     229A      5.942140   230A      5.997426   231A      6.038020  
     232A      6.052219   233A      6.154425   234A      6.217765  
     235A      6.253565   236A      6.296584   237A      6.345605  
     238A      6.419541   239A      6.514984   240A      6.639442  
     241A      6.707216   242A      6.739408   243A      6.847078  
     244A      6.941465   245A      7.073443   246A      7.170501  
     247A      7.237009   248A      7.282709   249A      7.301966  
     250A      7.342568   251A      7.419818   252A      7.517208  
     253A      7.584311   254A      7.681709   255A      7.840851  
     256A      7.911658   257A      8.028535   258A     11.415377  
     259A     12.696249   260A     13.322712   261A     13.887394  
     262A     14.164199  

    Final Occupation by Irrep:
              A 
    DOCC [    21 ]

  Energy converged.

  @DF-RHF Final Energy:  -268.05962983447859

   => Energetics <=

    Nuclear Repulsion Energy =            190.0969496679485360
    One-Electron Energy =                -742.9503721022260834
    Two-Electron Energy =                 284.7937925997988486
    DFT Exchange-Correlation Energy =       0.0000000000000000
    Empirical Dispersion Energy =           0.0000000000000000
    PCM Polarization Energy =               0.0000000000000000
    EFP Energy =                            0.0000000000000000
    Total Energy =                       -268.0596298344786419


  Saving occupied orbitals to File 180.

*** tstop() called on cx1-27-2-4 at Sat Sep 10 16:44:50 2016
Module time:
	user time   =       9.93 seconds =       0.17 minutes
	system time =       0.20 seconds =       0.00 minutes
	total time  =          3 seconds =       0.05 minutes
Total time:
	user time   =      41.57 seconds =       0.69 minutes
	system time =       1.07 seconds =       0.02 minutes
	total time  =         13 seconds =       0.22 minutes


Properties will be evaluated at   0.000000,   0.000000,   0.000000 Bohr

Properties computed using the SCF density matrix

  Nuclear Dipole Moment: (a.u.)
     X:     3.4583      Y:    -1.1310      Z:    -0.2584

  Electronic Dipole Moment: (a.u.)
     X:    -2.8282      Y:     0.9672      Z:    -0.2437

  Dipole Moment: (a.u.)
     X:     0.6301      Y:    -0.1639      Z:    -0.5021     Total:     0.8221

  Dipole Moment: (Debye)
     X:     1.6014      Y:    -0.4165      Z:    -1.2761     Total:     2.0896


*** tstart() called on cx1-27-2-4
*** at Sat Sep 10 16:44:50 2016


         ------------------------------------------------------------
                                   SCF GRAD                          
                          Rob Parrish, Justin Turney,                
                       Andy Simmonett, and Alex Sokolov              
         ------------------------------------------------------------

  ==> Geometry <==

    Molecular point group: c1
    Full point group: C1

    Geometry (in Angstrom), charge = 0, multiplicity = 1:

       Center              X                  Y                   Z               Mass       
    ------------   -----------------  -----------------  -----------------  -----------------
           H         -2.091610453804    -0.027146507766    -1.726659206816     1.007825032070
           O         -2.229664441867    -0.113931078738    -0.801286830776    15.994914619560
           C         -1.180641282903     0.489275611537    -0.096841461317    12.000000000000
           C          0.085947730427    -0.339975461042    -0.167725099575    12.000000000000
           H         -0.979165505228     1.491432709823    -0.462057393469     1.007825032070
           H         -1.498811264111     0.573874801978     0.932391539120     1.007825032070
           O          1.079663651083     0.319396462867     0.549677051642    15.994914619560
           H          0.388077682238    -0.465772123846    -1.208011933501     1.007825032070
           H         -0.109143919765    -1.330042067290     0.238705806916     1.007825032070
           C          2.317229661331    -0.321753800700     0.622976241127    12.000000000000
           H          2.458324388654    -1.039624772762    -0.178527180573     1.007825032070
           H          3.100709006002     0.421755563845     0.554838593575     1.007825032070
           H          2.426439143012    -0.831986283802     1.575026897186     1.007825032070

  Nuclear repulsion =  190.096949667948536

  ==> Basis Set <==

  Basis Set: CC-PVTZ
    Number of shells: 98
    Number of basis function: 262
    Number of Cartesian functions: 295
    Spherical Harmonics?: true
    Max angular momentum: 3

  ==> DFJKGrad: Density-Fitted SCF Gradients <==

    Gradient:                    1
    J tasked:                  Yes
    K tasked:                  Yes
    wK tasked:                  No
    OpenMP threads:              4
    Integrals threads:           4
    Memory (MB):              1430
    Schwarz Cutoff:          0E+00
    Fitting Condition:       1E-12

   => Auxiliary Basis Set <=

  Basis Set: 
    Number of shells: 205
    Number of basis function: 635
    Number of Cartesian functions: 760
    Spherical Harmonics?: true
    Max angular momentum: 4


  -Total Gradient:
     Atom            X                  Y                   Z
    ------   -----------------  -----------------  -----------------
       1       -0.000026188404    -0.000006773254    -0.000006811537
       2       -0.000164966501     0.000104134737    -0.000113203441
       3       -0.000142144282    -0.000557733939    -0.000211037083
       4       -0.000752612836     0.001429928702    -0.001343952645
       5        0.000020366208     0.000010807865    -0.000026058696
       6        0.000053756458     0.000008201302     0.000019896215
       7       -0.001205443102    -0.000926727650     0.003061781652
       8        0.000037049609     0.000132681522     0.000024295411
       9       -0.000253931782    -0.000068229171    -0.000142557157
      10       -0.000201168821    -0.001134046589    -0.002998424328
      11        0.000892815463    -0.000363877976     0.000426118863
      12        0.000788489798    -0.000781274703     0.000357031535
      13        0.000953978193     0.002152909156     0.000952921213


*** tstop() called on cx1-27-2-4 at Sat Sep 10 16:44:54 2016
Module time:
	user time   =      14.14 seconds =       0.24 minutes
	system time =       0.35 seconds =       0.01 minutes
	total time  =          4 seconds =       0.07 minutes
Total time:
	user time   =      55.81 seconds =       0.93 minutes
	system time =       1.42 seconds =       0.02 minutes
	total time  =         17 seconds =       0.28 minutes

			-----------------------------------------
			 OPTKING 2.0: for geometry optimizations 
			  - R.A. King,  Bethel University        
			-----------------------------------------

	Previous internal coordinate definitions found.
	---Fragment 1 Geometry and Gradient---
	 H          -3.9525709344       -0.0512994651       -3.2629130257
	 O          -4.2134551634       -0.2152985368       -1.5142126641
	 C          -2.2310886859        0.9245969093       -0.1830038402
	 C           0.1624176722       -0.6424605133       -0.3169545038
	 H          -1.8503546437        2.8183993672       -0.8731619313
	 H          -2.8323428141        1.0844662103        1.7619646576
	 O           2.0402686162        0.6035718426        1.0387390891
	 H           0.7333605377       -0.8801817544       -2.2828117196
	 H          -0.2062521174       -2.5134152524        0.4510886014
	 C           4.3789294469       -0.6080265655        1.1772544830
	 H           4.6455598403       -1.9646061015       -0.3373674786
	 H           5.8594908391        0.7970025107        1.0484929898
	 H           4.5853054584       -1.5722262227        2.9763694876
	            -0.0000261884       -0.0000067733       -0.0000068115
	            -0.0001649665        0.0001041347       -0.0001132034
	            -0.0001421443       -0.0005577339       -0.0002110371
	            -0.0007526128        0.0014299287       -0.0013439526
	             0.0000203662        0.0000108079       -0.0000260587
	             0.0000537565        0.0000082013        0.0000198962
	            -0.0012054431       -0.0009267277        0.0030617817
	             0.0000370496        0.0001326815        0.0000242954
	            -0.0002539318       -0.0000682292       -0.0001425572
	            -0.0002011688       -0.0011340466       -0.0029984243
	             0.0008928155       -0.0003638780        0.0004261189
	             0.0007884898       -0.0007812747        0.0003570315
	             0.0009539782        0.0021529092        0.0009529212

	---Fragment 1 Intrafragment Coordinates---
	 - Coordinate -           - BOHR/RAD -       - ANG/DEG -
	 R(1,2)           =         1.775643	       0.939630
	 R(2,3)           =         2.645989	       1.400197
	 R(3,4)           =         2.863998	       1.515562
	 R(3,5)           =         2.051284	       1.085493
	 R(3,6)           =         2.042050	       1.080606
	 R(4,7)           =         2.629986	       1.391729
	 R(4,8)           =         2.060845	       1.090552
	 R(4,9)           =         2.055792	       1.087878
	 R(7,10)          =         2.637516	       1.395713
	 R(10,11)         =         2.050727	       1.085198
	 R(10,12)         =         2.045177	       1.082261
	 R(10,13)         =         2.051606	       1.085663
	 B(1,2,3)         =         1.923682	     110.218841
	 B(2,3,4)         =         1.946443	     111.522948
	 B(2,3,5)         =         1.947131	     111.562391
	 B(2,3,6)         =         1.867451	     106.997039
	 B(3,4,7)         =         1.889544	     108.262913
	 B(3,4,8)         =         1.916928	     109.831866
	 B(3,4,9)         =         1.907753	     109.306218
	 B(4,3,5)         =         1.911657	     109.529884
	 B(4,3,6)         =         1.910757	     109.478332
	 B(4,7,10)        =         2.029228	     116.266181
	 B(5,3,6)         =         1.878455	     107.627537
	 B(7,4,8)         =         1.926825	     110.398925
	 B(7,4,9)         =         1.946198	     111.508914
	 B(7,10,11)       =         1.961000	     112.357000
	 B(7,10,12)       =         1.899702	     108.844922
	 B(7,10,13)       =         1.929585	     110.557085
	 B(8,4,9)         =         1.876624	     107.522636
	 B(11,10,12)      =         1.890024	     108.290371
	 B(11,10,13)      =         1.900444	     108.887438
	 B(12,10,13)      =         1.881006	     107.773713
	 D(1,2,3,4)       =        -1.286189	     -73.693189
	 D(1,2,3,5)       =         0.857710	      49.143135
	 D(1,2,3,6)       =         2.907944	     166.612913
	 D(2,3,4,7)       =         3.140376	     179.930265
	 D(2,3,4,8)       =         1.035326	      59.319792
	 D(2,3,4,9)       =        -1.019645	     -58.421380
	 D(3,4,7,10)      =         3.113280	     178.377822
	 D(4,7,10,11)     =         0.381791	      21.874996
	 D(4,7,10,12)     =         2.474958	     141.804629
	*D(4,7,10,13)     =        -1.745329	     -99.999995
	 D(5,3,4,7)       =         0.976322	      55.939146
	 D(5,3,4,8)       =        -1.128728	     -64.671327
	 D(5,3,4,9)       =         3.099487	     177.587501
	 D(6,3,4,7)       =        -1.079551	     -61.853745
	 D(6,3,4,8)       =         3.098584	     177.535782
	 D(6,3,4,9)       =         1.043613	      59.794610
	 D(8,4,7,10)      =        -1.071025	     -61.365224
	 D(9,4,7,10)      =         1.013955	      58.095324

	Current energy   :      -268.0596298345

	Energy change for the previous step:
		Projected    :        -0.0005799581
		Actual       :        -0.0001586461

	Performing BFGS update.
	Previous computed or guess Hessian on step 1.
	Steps to be used in Hessian update: 1
	Taking RFO optimization step.
	Going to follow RFO solution 1.
	Using RFO vector 1.
	Norm of target step-size    0.01763
	Projected energy change by RFO approximation:        -0.0000183980

	Back-transformation to cartesian coordinates...
	Successfully converged to displaced geometry.

	Back-transformation to cartesian coordinates to adjust frozen coordinates...
	Successfully converged to displaced geometry.

	--- Internal Coordinate Step in ANG or DEG, aJ/ANG or AJ/DEG ---
	 ---------------------------------------------------------------------------
	   Coordinate                Previous        Force       Change         New 
	   ----------                --------       ------       ------       ------
	    1 R(1,2)          =      0.939630    -0.000018    -0.000001     0.939629
	    2 R(2,3)          =      1.400197    -0.001332    -0.000134     1.400063
	    3 R(3,4)          =      1.515562     0.000335     0.000044     1.515607
	    4 R(3,5)          =      1.085493    -0.000186    -0.000023     1.085470
	    5 R(3,6)          =      1.080606    -0.000031    -0.000004     1.080602
	    6 R(4,7)          =      1.391729    -0.010759    -0.001023     1.390706
	    7 R(4,8)          =      1.090552     0.000232     0.000013     1.090566
	    8 R(4,9)          =      1.087878    -0.000448    -0.000061     1.087817
	    9 R(7,10)         =      1.395713    -0.017713    -0.001614     1.394100
	   10 R(10,11)        =      1.085198    -0.000347    -0.000111     1.085087
	   11 R(10,12)        =      1.082261    -0.000096     0.000040     1.082301
	   12 R(10,13)        =      1.085663     0.000661     0.000045     1.085708
	   13 B(1,2,3)        =    110.218841    -0.000004    -0.012358   110.206483
	   14 B(2,3,4)        =    111.522948    -0.000026    -0.069151   111.453797
	   15 B(2,3,5)        =    111.562391     0.000010     0.030174   111.592564
	   16 B(2,3,6)        =    106.997039     0.000003    -0.019834   106.977204
	   17 B(3,4,7)        =    108.262913    -0.000058    -0.157552   108.105361
	   18 B(3,4,8)        =    109.831866     0.000015     0.073005   109.904871
	   19 B(3,4,9)        =    109.306218     0.000029     0.064018   109.370236
	   20 B(4,3,5)        =    109.529884     0.000008     0.031680   109.561563
	   21 B(4,3,6)        =    109.478332     0.000009     0.019259   109.497590
	   22 B(4,7,10)       =    116.266181    -0.000174    -0.339205   115.926976
	   23 B(5,3,6)        =    107.627537    -0.000003     0.009437   107.636974
	   24 B(7,4,8)        =    110.398925     0.000027     0.105028   110.503953
	   25 B(7,4,9)        =    111.508914    -0.000003    -0.103503   111.405411
	   26 B(7,10,11)      =    112.357000    -0.000108    -0.377219   111.979781
	   27 B(7,10,12)      =    108.844922    -0.000115    -0.393203   108.451719
	   28 B(7,10,13)      =    110.557085     0.000065     0.244929   110.802013
	   29 B(8,4,9)        =    107.522636    -0.000009     0.023670   107.546306
	   30 B(11,10,12)     =    108.290371     0.000059     0.104437   108.394808
	   31 B(11,10,13)     =    108.887438     0.000047     0.204048   109.091486
	   32 B(12,10,13)     =    107.773713     0.000059     0.235380   108.009093
	   33 D(1,2,3,4)      =    -73.693189    -0.000000     0.017569   -73.675620
	   34 D(1,2,3,5)      =     49.143135    -0.000000     0.030354    49.173489
	   35 D(1,2,3,6)      =    166.612913     0.000000     0.046356   166.659269
	   36 D(2,3,4,7)      =    179.930265     0.000003     0.230871   180.161136
	   37 D(2,3,4,8)      =     59.319792     0.000001     0.156189    59.475981
	   38 D(2,3,4,9)      =    -58.421380    -0.000002     0.046573   -58.374808
	   39 D(3,4,7,10)     =    178.377822     0.000000     0.102494   178.480315
	   40 D(4,7,10,11)    =     21.874996     0.000007     0.174073    22.049069
	   41 D(4,7,10,12)    =    141.804629    -0.000009    -0.190625   141.614004
	   42 *D(4,7,10,13)   =    -99.999995    -0.000000     0.000000   -99.999995
	   43 D(5,3,4,7)      =     55.939146     0.000003     0.217617    56.156763
	   44 D(5,3,4,8)      =    -64.671327     0.000001     0.142935   -64.528392
	   45 D(5,3,4,9)      =    177.587501    -0.000002     0.033319   177.620820
	   46 D(6,3,4,7)      =    -61.853745     0.000001     0.176237   -61.677508
	   47 D(6,3,4,8)      =    177.535782    -0.000000     0.101555   177.637337
	   48 D(6,3,4,9)      =     59.794610    -0.000004    -0.008061    59.786548
	   49 D(8,4,7,10)     =    -61.365224    -0.000000     0.156376   -61.208849
	   50 D(9,4,7,10)     =     58.095324     0.000001     0.188333    58.283657
	 ---------------------------------------------------------------------------
	Successfully symmetrized geometry.

  ==> Convergence Check <==

  Measures of convergence in internal coordinates in au.
  Criteria marked as inactive (o), active & met (*), and active & unmet ( ).
  ---------------------------------------------------------------------------------------------
   Step     Total Energy     Delta E     MAX Force     RMS Force      MAX Disp      RMS Disp   
  ---------------------------------------------------------------------------------------------
    Convergence Criteria    1.00e-06 *    3.00e-04 *             o    1.20e-03 *             o
  ---------------------------------------------------------------------------------------------
      2    -268.05962983   -1.59e-04      2.28e-03      6.30e-04 o    6.86e-03      2.49e-03 o  ~
  ---------------------------------------------------------------------------------------------

	Writing optimization data to binary file.
	Structure for next step:
	Cartesian Geometry (in Angstrom)
	    H    -2.0911272874  -0.0231530589  -1.7206308735
	    O    -2.2279081391  -0.1068607788  -0.7947875193
	    C    -1.1758885154   0.4952389625  -0.0941403984
	    C     0.0873583449  -0.3390703050  -0.1662453302
	    H    -0.9720208864   1.4959285186  -0.4619756589
	    H    -1.4919105945   0.5829498997   0.9354898505
	    O     1.0807843506   0.3179430084   0.5517387163
	    H     0.3889766090  -0.4669766879  -1.2064374967
	    H    -0.1095494449  -1.3279275144   0.2420854092
	    C     2.3133886400  -0.3298122225   0.6196613109
	    H     2.4430051616  -1.0419920490  -0.1886782955
	    H     3.0958956032   0.4144372603   0.5478854837
	    H     2.4263505533  -0.8452019791   1.5685418254
			--------------------------
			 OPTKING Finished Execution 
			--------------------------

    Structure for next step:
    Molecular point group: c1
    Full point group: C1

    Geometry (in Angstrom), charge = 0, multiplicity = 1:

    H           -2.092029897395    -0.024087945695    -1.722443074136
    O           -2.228810749145    -0.107795665638    -0.796599719951
    C           -1.176791125458     0.494304075716    -0.095952599034
    C            0.086455734879    -0.340005191851    -0.168057530879
    H           -0.972923496433     1.494993631783    -0.463787859584
    H           -1.492813204510     0.582015012907     0.933677649811
    O            1.079881740602     0.317008121573     0.549926515621
    H            0.388073999012    -0.467911574744    -1.208249697336
    H           -0.110452054889    -1.328862401240     0.240273208520
    C            2.312486029986    -0.330747109339     0.617849110222
    H            2.442102551557    -1.042926935797    -0.190490496163
    H            3.094992993163     0.413502373506     0.546073283037
    H            2.425447943237    -0.846136865895     1.566729624760

gradient() will perform analytic gradient computation.

*** tstart() called on cx1-27-2-4
*** at Sat Sep 10 16:44:54 2016


         ---------------------------------------------------------
                                   SCF
            by Justin Turney, Rob Parrish, and Andy Simmonett
                              RHF Reference
                        4 Threads,   2000 MiB Core
         ---------------------------------------------------------

  ==> Geometry <==

    Molecular point group: c1
    Full point group: C1

    Geometry (in Angstrom), charge = 0, multiplicity = 1:

       Center              X                  Y                   Z               Mass       
    ------------   -----------------  -----------------  -----------------  -----------------
           H         -2.092029897395    -0.024087945695    -1.722443074136     1.007825032070
           O         -2.228810749145    -0.107795665638    -0.796599719951    15.994914619560
           C         -1.176791125458     0.494304075716    -0.095952599034    12.000000000000
           C          0.086455734879    -0.340005191851    -0.168057530879    12.000000000000
           H         -0.972923496433     1.494993631783    -0.463787859584     1.007825032070
           H         -1.492813204510     0.582015012907     0.933677649811     1.007825032070
           O          1.079881740602     0.317008121573     0.549926515621    15.994914619560
           H          0.388073999012    -0.467911574744    -1.208249697336     1.007825032070
           H         -0.110452054889    -1.328862401240     0.240273208520     1.007825032070
           C          2.312486029986    -0.330747109339     0.617849110222    12.000000000000
           H          2.442102551557    -1.042926935797    -0.190490496163     1.007825032070
           H          3.094992993163     0.413502373506     0.546073283037     1.007825032070
           H          2.425447943237    -0.846136865895     1.566729624760     1.007825032070

  Running in c1 symmetry.

  Rotational constants: A =      0.77853  B =      0.07189  C =      0.06867 [cm^-1]
  Rotational constants: A =  23339.77020  B =   2155.30881  C =   2058.70656 [MHz]
  Nuclear repulsion =  190.253819755359103

  Charge       = 0
  Multiplicity = 1
  Electrons    = 42
  Nalpha       = 21
  Nbeta        = 21

  ==> Algorithm <==

  SCF Algorithm Type is DF.
  DIIS enabled.
  MOM disabled.
  Fractional occupation disabled.
  Guess Type is READ.
  Energy threshold   = 1.00e-08
  Density threshold  = 1.00e-08
  Integral threshold = 0.00e+00

  ==> Primary Basis <==

  Basis Set: CC-PVTZ
    Number of shells: 98
    Number of basis function: 262
    Number of Cartesian functions: 295
    Spherical Harmonics?: true
    Max angular momentum: 3

  ==> Pre-Iterations <==

   -------------------------------------------------------
    Irrep   Nso     Nmo     Nalpha   Nbeta   Ndocc  Nsocc
   -------------------------------------------------------
     A        262     262       0       0       0       0
   -------------------------------------------------------
    Total     262     262      21      21      21       0
   -------------------------------------------------------

  ==> Integral Setup <==

  ==> DFJK: Density-Fitted J/K Matrices <==

    J tasked:                  Yes
    K tasked:                  Yes
    wK tasked:                  No
    OpenMP threads:              4
    Integrals threads:           4
    Memory (MB):              1430
    Algorithm:                Core
    Integral Cache:           NONE
    Schwarz Cutoff:          1E-12
    Fitting Condition:       1E-12

   => Auxiliary Basis Set <=

  Basis Set: 
    Number of shells: 205
    Number of basis function: 635
    Number of Cartesian functions: 760
    Spherical Harmonics?: true
    Max angular momentum: 4

  Minimum eigenvalue in the overlap matrix is 7.9792909443E-04.
  Using Symmetric Orthogonalization.
  SCF Guess: Reading in previously saved MOs, projecting if necessary.

  Using orbitals from previous SCF, no projection.
  Recomputing DOCC and SOCC from number of alpha and beta electrons from previous calculation.
              A 
    DOCC [    21 ]

  ==> Iterations <==

                           Total Energy        Delta E     RMS |[F,P]|

   @DF-RHF iter   0:  -268.06141907862173   -2.68061e+02   4.99457e-05 
   @DF-RHF iter   1:  -268.05965630871617    1.76277e-03   8.51848e-06 
   @DF-RHF iter   2:  -268.05966039157340   -4.08286e-06   2.97954e-06 DIIS
   @DF-RHF iter   3:  -268.05966093154461   -5.39971e-07   1.36158e-06 DIIS
   @DF-RHF iter   4:  -268.05966100148976   -6.99451e-08   2.54746e-07 DIIS
   @DF-RHF iter   5:  -268.05966100561750   -4.12774e-09   9.40405e-08 DIIS
   @DF-RHF iter   6:  -268.05966100624858   -6.31076e-10   3.08739e-08 DIIS
   @DF-RHF iter   7:  -268.05966100631440   -6.58247e-11   8.48739e-09 DIIS

  ==> Post-Iterations <==

    Orbital Energies (a.u.)
    -----------------------

    Doubly Occupied:                                                      

       1A    -20.553425     2A    -20.552574     3A    -11.269598  
       4A    -11.267397     5A    -11.267020     6A     -1.388677  
       7A     -1.368635     8A     -1.019539     9A     -0.914154  
      10A     -0.842483    11A     -0.711163    12A     -0.674317  
      13A     -0.661979    14A     -0.637484    15A     -0.598631  
      16A     -0.569728    17A     -0.550110    18A     -0.490961  
      19A     -0.483542    20A     -0.441277    21A     -0.420339  

    Virtual:                                                              

      22A      0.137721    23A      0.151635    24A      0.182450  
      25A      0.193678    26A      0.203666    27A      0.223193  
      28A      0.230723    29A      0.252256    30A      0.268626  
      31A      0.327865    32A      0.340438    33A      0.373929  
      34A      0.404790    35A      0.415959    36A      0.452309  
      37A      0.462497    38A      0.514104    39A      0.542556  
      40A      0.566153    41A      0.576285    42A      0.592072  
      43A      0.600569    44A      0.625456    45A      0.629791  
      46A      0.633806    47A      0.648044    48A      0.665716  
      49A      0.674636    50A      0.682537    51A      0.709284  
      52A      0.739041    53A      0.748723    54A      0.769647  
      55A      0.799081    56A      0.809305    57A      0.833998  
      58A      0.902125    59A      0.917436    60A      0.931912  
      61A      0.958137    62A      0.982823    63A      1.012291  
      64A      1.028912    65A      1.070588    66A      1.102605  
      67A      1.135476    68A      1.147723    69A      1.182655  
      70A      1.195615    71A      1.206937    72A      1.231057  
      73A      1.246751    74A      1.280099    75A      1.284754  
      76A      1.293501    77A      1.312289    78A      1.327485  
      79A      1.351095    80A      1.386668    81A      1.395052  
      82A      1.414499    83A      1.451912    84A      1.468895  
      85A      1.491945    86A      1.510959    87A      1.531517  
      88A      1.537595    89A      1.544892    90A      1.566935  
      91A      1.589116    92A      1.600372    93A      1.612334  
      94A      1.634459    95A      1.707066    96A      1.736425  
      97A      1.789980    98A      1.828916    99A      1.881800  
     100A      2.031284   101A      2.114080   102A      2.191454  
     103A      2.224320   104A      2.230840   105A      2.297396  
     106A      2.314128   107A      2.338608   108A      2.403286  
     109A      2.418936   110A      2.478632   111A      2.505189  
     112A      2.564203   113A      2.588377   114A      2.648301  
     115A      2.659491   116A      2.728711   117A      2.767784  
     118A      2.823025   119A      2.832074   120A      2.892588  
     121A      2.925915   122A      2.959121   123A      3.015539  
     124A      3.057921   125A      3.094439   126A      3.109924  
     127A      3.124280   128A      3.146554   129A      3.154554  
     130A      3.204731   131A      3.218057   132A      3.252779  
     133A      3.260024   134A      3.269626   135A      3.289610  
     136A      3.312621   137A      3.331642   138A      3.332782  
     139A      3.360443   140A      3.394200   141A      3.403146  
     142A      3.420405   143A      3.440859   144A      3.448400  
     145A      3.482341   146A      3.490345   147A      3.531003  
     148A      3.545436   149A      3.588200   150A      3.619780  
     151A      3.641701   152A      3.667816   153A      3.698118  
     154A      3.707664   155A      3.724696   156A      3.749562  
     157A      3.750657   158A      3.780719   159A      3.790343  
     160A      3.820854   161A      3.833516   162A      3.840362  
     163A      3.884026   164A      3.888355   165A      3.938233  
     166A      3.942368   167A      4.015521   168A      4.035004  
     169A      4.067097   170A      4.080021   171A      4.118480  
     172A      4.124364   173A      4.143187   174A      4.158585  
     175A      4.178295   176A      4.194917   177A      4.242363  
     178A      4.268518   179A      4.284329   180A      4.292182  
     181A      4.306861   182A      4.331992   183A      4.333736  
     184A      4.353452   185A      4.384915   186A      4.420387  
     187A      4.437153   188A      4.455014   189A      4.502264  
     190A      4.523094   191A      4.552510   192A      4.582941  
     193A      4.596344   194A      4.629231   195A      4.646821  
     196A      4.687192   197A      4.712778   198A      4.734650  
     199A      4.778677   200A      4.806500   201A      4.881955  
     202A      4.986474   203A      5.006190   204A      5.032535  
     205A      5.073047   206A      5.103812   207A      5.135345  
     208A      5.178477   209A      5.215309   210A      5.252217  
     211A      5.276318   212A      5.296686   213A      5.349465  
     214A      5.380869   215A      5.400094   216A      5.430172  
     217A      5.456820   218A      5.478916   219A      5.510071  
     220A      5.531530   221A      5.575305   222A      5.615145  
     223A      5.646781   224A      5.711301   225A      5.757235  
     226A      5.808380   227A      5.826202   228A      5.921811  
     229A      5.944302   230A      6.000700   231A      6.038544  
     232A      6.054679   233A      6.155138   234A      6.215715  
     235A      6.254714   236A      6.297887   237A      6.345621  
     238A      6.420045   239A      6.517454   240A      6.639676  
     241A      6.708743   242A      6.739561   243A      6.850639  
     244A      6.944041   245A      7.073710   246A      7.170649  
     247A      7.237370   248A      7.283241   249A      7.303143  
     250A      7.345725   251A      7.420384   252A      7.517641  
     253A      7.583752   254A      7.681742   255A      7.841922  
     256A      7.911328   257A      8.028989   258A     11.429852  
     259A     12.699245   260A     13.327925   261A     13.894705  
     262A     14.180038  

    Final Occupation by Irrep:
              A 
    DOCC [    21 ]

  Energy converged.

  @DF-RHF Final Energy:  -268.05966100631440

   => Energetics <=

    Nuclear Repulsion Energy =            190.2538197553591033
    One-Electron Energy =                -743.2608950715657556
    Two-Electron Energy =                 284.9474143098923378
    DFT Exchange-Correlation Energy =       0.0000000000000000
    Empirical Dispersion Energy =           0.0000000000000000
    PCM Polarization Energy =               0.0000000000000000
    EFP Energy =                            0.0000000000000000
    Total Energy =                       -268.0596610063142862


  Saving occupied orbitals to File 180.

*** tstop() called on cx1-27-2-4 at Sat Sep 10 16:44:57 2016
Module time:
	user time   =       9.46 seconds =       0.16 minutes
	system time =       0.19 seconds =       0.00 minutes
	total time  =          3 seconds =       0.05 minutes
Total time:
	user time   =      66.05 seconds =       1.10 minutes
	system time =       1.62 seconds =       0.03 minutes
	total time  =         20 seconds =       0.33 minutes


Properties will be evaluated at   0.000000,   0.000000,   0.000000 Bohr

Properties computed using the SCF density matrix

  Nuclear Dipole Moment: (a.u.)
     X:     3.4466      Y:    -1.1422      Z:    -0.2808

  Electronic Dipole Moment: (a.u.)
     X:    -2.8188      Y:     0.9762      Z:    -0.2244

  Dipole Moment: (a.u.)
     X:     0.6278      Y:    -0.1659      Z:    -0.5051     Total:     0.8227

  Dipole Moment: (Debye)
     X:     1.5957      Y:    -0.4217      Z:    -1.2839     Total:     2.0911


*** tstart() called on cx1-27-2-4
*** at Sat Sep 10 16:44:57 2016


         ------------------------------------------------------------
                                   SCF GRAD                          
                          Rob Parrish, Justin Turney,                
                       Andy Simmonett, and Alex Sokolov              
         ------------------------------------------------------------

  ==> Geometry <==

    Molecular point group: c1
    Full point group: C1

    Geometry (in Angstrom), charge = 0, multiplicity = 1:

       Center              X                  Y                   Z               Mass       
    ------------   -----------------  -----------------  -----------------  -----------------
           H         -2.092029897395    -0.024087945695    -1.722443074136     1.007825032070
           O         -2.228810749145    -0.107795665638    -0.796599719951    15.994914619560
           C         -1.176791125458     0.494304075716    -0.095952599034    12.000000000000
           C          0.086455734879    -0.340005191851    -0.168057530879    12.000000000000
           H         -0.972923496433     1.494993631783    -0.463787859584     1.007825032070
           H         -1.492813204510     0.582015012907     0.933677649811     1.007825032070
           O          1.079881740602     0.317008121573     0.549926515621    15.994914619560
           H          0.388073999012    -0.467911574744    -1.208249697336     1.007825032070
           H         -0.110452054889    -1.328862401240     0.240273208520     1.007825032070
           C          2.312486029986    -0.330747109339     0.617849110222    12.000000000000
           H          2.442102551557    -1.042926935797    -0.190490496163     1.007825032070
           H          3.094992993163     0.413502373506     0.546073283037     1.007825032070
           H          2.425447943237    -0.846136865895     1.566729624760     1.007825032070

  Nuclear repulsion =  190.253819755359103

  ==> Basis Set <==

  Basis Set: CC-PVTZ
    Number of shells: 98
    Number of basis function: 262
    Number of Cartesian functions: 295
    Spherical Harmonics?: true
    Max angular momentum: 3

  ==> DFJKGrad: Density-Fitted SCF Gradients <==

    Gradient:                    1
    J tasked:                  Yes
    K tasked:                  Yes
    wK tasked:                  No
    OpenMP threads:              4
    Integrals threads:           4
    Memory (MB):              1430
    Schwarz Cutoff:          0E+00
    Fitting Condition:       1E-12

   => Auxiliary Basis Set <=

  Basis Set: 
    Number of shells: 205
    Number of basis function: 635
    Number of Cartesian functions: 760
    Spherical Harmonics?: true
    Max angular momentum: 4


  -Total Gradient:
     Atom            X                  Y                   Z
    ------   -----------------  -----------------  -----------------
       1        0.000020641719     0.000003902761     0.000001166741
       2        0.000150072567    -0.000025671946     0.000080318260
       3        0.000040623995     0.000059305955     0.000046153462
       4        0.000435812051     0.000837593427    -0.001940854299
       5       -0.000005616162     0.000020257750     0.000002767754
       6       -0.000051881566     0.000014400586     0.000006022205
       7       -0.000545120418    -0.000822767439     0.002758968829
       8       -0.000016941398     0.000008239885    -0.000000465746
       9        0.000001864642     0.000017091395     0.000026789685
      10       -0.001120952960    -0.002121301791    -0.002029386211
      11        0.000038937722    -0.000006656913     0.000024483571
      12       -0.000009636213    -0.000020358490    -0.000014185369
      13        0.001062196017     0.002035964821     0.001038221117


*** tstop() called on cx1-27-2-4 at Sat Sep 10 16:45:01 2016
Module time:
	user time   =      14.16 seconds =       0.24 minutes
	system time =       0.32 seconds =       0.01 minutes
	total time  =          4 seconds =       0.07 minutes
Total time:
	user time   =      80.26 seconds =       1.34 minutes
	system time =       1.95 seconds =       0.03 minutes
	total time  =         24 seconds =       0.40 minutes

			-----------------------------------------
			 OPTKING 2.0: for geometry optimizations 
			  - R.A. King,  Bethel University        
			-----------------------------------------

	Previous internal coordinate definitions found.
	---Fragment 1 Geometry and Gradient---
	 H          -3.9533635679       -0.0455196205       -3.2549456896
	 O          -4.2118419179       -0.2037042864       -1.5053553082
	 C          -2.2238129427        0.9340993295       -0.1813241339
	 C           0.1633776615       -0.6425166964       -0.3175827079
	 H          -1.8385589565        2.8251285345       -0.8764320384
	 H          -2.8210081241        1.0998489796        1.7643950545
	 O           2.0406807456        0.5990585317        1.0392105077
	 H           0.7333535774       -0.8842247307       -2.2832610281
	 H          -0.2087241346       -2.5111860066        0.4540505612
	 C           4.3699652828       -0.6250214559        1.1675656098
	 H           4.6149050109       -1.9708462853       -0.3599748687
	 H           5.8486891403        0.7814062412        1.0319289534
[...]


*** tstart() called on cx1-27-2-4
*** at Sat Sep 10 16:45:04 2016


         ------------------------------------------------------------
                                   SCF GRAD                          
                          Rob Parrish, Justin Turney,                
                       Andy Simmonett, and Alex Sokolov              
         ------------------------------------------------------------

  ==> Geometry <==

    Molecular point group: c1
    Full point group: C1

    Geometry (in Angstrom), charge = 0, multiplicity = 1:

       Center              X                  Y                   Z               Mass       
    ------------   -----------------  -----------------  -----------------  -----------------
           H         -2.091623719241    -0.025741783484    -1.724252013692     1.007825032070
           O         -2.228777783425    -0.109076037066    -0.798432085432    15.994914619560
           C         -1.177159160322     0.493526655069    -0.097259043668    12.000000000000
           C          0.086812884565    -0.340172201200    -0.166506742994    12.000000000000
           H         -0.973022685358     1.493851092374    -0.465866592110     1.007825032070
           H         -1.494012482227     0.582298392303     0.931991757605     1.007825032070
           O          1.079670383130     0.317878936659     0.551172101206    15.994914619560
           H          0.389585090079    -0.469413662919    -1.206203051677     1.007825032070
           H         -0.110070682120    -1.328686176226     0.242686114435     1.007825032070
           C          2.312630088273    -0.329347618503     0.618391802872    12.000000000000
           H          2.441880465147    -1.041255111937    -0.190245960131     1.007825032070
           H          3.094817811063     0.415278938806     0.546456600634     1.007825032070
           H          2.426090573560    -0.844664769180     1.567157304941     1.007825032070

  Nuclear repulsion =  190.239487087114668

  ==> Basis Set <==

  Basis Set: CC-PVTZ
    Number of shells: 98
    Number of basis function: 262
    Number of Cartesian functions: 295
    Spherical Harmonics?: true
    Max angular momentum: 3

  ==> DFJKGrad: Density-Fitted SCF Gradients <==

    Gradient:                    1
    J tasked:                  Yes
    K tasked:                  Yes
    wK tasked:                  No
    OpenMP threads:              4
    Integrals threads:           4
    Memory (MB):              1430
    Schwarz Cutoff:          0E+00
    Fitting Condition:       1E-12

   => Auxiliary Basis Set <=

  Basis Set: 
    Number of shells: 205
    Number of basis function: 635
    Number of Cartesian functions: 760
    Spherical Harmonics?: true
    Max angular momentum: 4


  -Total Gradient:
     Atom            X                  Y                   Z
    ------   -----------------  -----------------  -----------------
       1       -0.000014138537    -0.000005761376    -0.000005826520
       2       -0.000056194005     0.000003031985    -0.000041701122
       3        0.000008485529    -0.000030109302    -0.000010497646
       4        0.000561693672     0.000971023305    -0.001669054374
       5       -0.000003178280     0.000003533097     0.000008465838
       6        0.000020606208     0.000001127429    -0.000003523483
       7       -0.000463372435    -0.000855171523     0.002742230492
       8        0.000007901155     0.000015451770     0.000017932015
       9        0.000000432477     0.000011733986    -0.000010086623
      10       -0.001107326863    -0.002202323834    -0.002032718995
      11       -0.000001657157    -0.000002858985    -0.000005580859
      12        0.000011912633     0.000000040762    -0.000000762248
      13        0.001034835601     0.002090282685     0.001011123527


*** tstop() called on cx1-27-2-4 at Sat Sep 10 16:45:08 2016
Module time:
	user time   =      14.07 seconds =       0.23 minutes
	system time =       0.35 seconds =       0.01 minutes
	total time  =          4 seconds =       0.07 minutes
Total time:
	user time   =     104.24 seconds =       1.74 minutes
	system time =       2.52 seconds =       0.04 minutes
	total time  =         31 seconds =       0.52 minutes

			-----------------------------------------
			 OPTKING 2.0: for geometry optimizations 
			  - R.A. King,  Bethel University        
			-----------------------------------------

	Previous internal coordinate definitions found.
	---Fragment 1 Geometry and Gradient---
	 H          -3.9525960024       -0.0486449210       -3.2583640900
	 O          -4.2117796217       -0.2061238377       -1.5088179772
	 C          -2.2245084278        0.9326302174       -0.1837929565
	 C           0.1640525766       -0.6428322983       -0.3146521435
	 H          -1.8387463964        2.8229694479       -0.8803602735
	 H          -2.8232744305        1.1003844891        1.7612091800
	 O           2.0402813379        0.6007041337        1.0415643234
	 H           0.7362091257       -0.8870632660       -2.2793934283
	 H          -0.2080034445       -2.5108529896        0.4586102925
	 C           4.3702375135       -0.6223768015        1.1685911503
	 H           4.6144853284       -1.9676869960       -0.3595127625
	 H           5.8483580941        0.7847634631        1.0326533187
	 H           4.5846467576       -1.5961850878        2.9614981135
	            -0.0000141385       -0.0000057614       -0.0000058265
	            -0.0000561940        0.0000030320       -0.0000417011
	             0.0000084855       -0.0000301093       -0.0000104976
	             0.0005616937        0.0009710233       -0.0016690544
	            -0.0000031783        0.0000035331        0.0000084658
	             0.0000206062        0.0000011274       -0.0000035235
	            -0.0004633724       -0.0008551715        0.0027422305
	             0.0000079012        0.0000154518        0.0000179320
	             0.0000004325        0.0000117340       -0.0000100866
	            -0.0011073269       -0.0022023238       -0.0020327190
	            -0.0000016572       -0.0000028590       -0.0000055809
	             0.0000119126        0.0000000408       -0.0000007622
	             0.0010348356        0.0020902827        0.0010111235

	---Fragment 1 Intrafragment Coordinates---
	 - Coordinate -           - BOHR/RAD -       - ANG/DEG -
	 R(1,2)           =         1.775637	       0.939627
	 R(2,3)           =         2.646072	       1.400241
	 R(3,4)           =         2.864338	       1.515742
	 R(3,5)           =         2.051195	       1.085446
	 R(3,6)           =         2.041983	       1.080571
	 R(4,7)           =         2.627916	       1.390633
	 R(4,8)           =         2.060879	       1.090570
	 R(4,9)           =         2.055690	       1.087824
	 R(7,10)          =         2.634532	       1.394134
	 R(10,11)         =         2.050517	       1.085087
	 R(10,12)         =         2.045327	       1.082341
	 R(10,13)         =         2.051533	       1.085625
	 B(1,2,3)         =         1.923676	     110.218494
	 B(2,3,4)         =         1.946249	     111.511863
	 B(2,3,5)         =         1.947439	     111.580013
	 B(2,3,6)         =         1.867220	     106.983853
	 B(3,4,7)         =         1.887586	     108.150724
	 B(3,4,8)         =         1.917979	     109.892092
	 B(3,4,9)         =         1.908904	     109.372164
	 B(4,3,5)         =         1.911925	     109.545214
	 B(4,3,6)         =         1.910517	     109.464550
	 B(4,7,10)        =         2.022634	     115.888401
	 B(5,3,6)         =         1.878529	     107.631799
	 B(7,4,8)         =         1.928228	     110.479329
	 B(7,4,9)         =         1.944530	     111.413359
	 B(7,10,11)       =         1.954114	     111.962465
	 B(7,10,12)       =         1.892871	     108.453500
	 B(7,10,13)       =         1.933640	     110.789397
	 B(8,4,9)         =         1.876714	     107.527768
	 B(11,10,12)      =         1.892053	     108.406629
	 B(11,10,13)      =         1.904355	     109.111479
	 B(12,10,13)      =         1.885064	     108.006218
	 D(1,2,3,4)       =        -1.286716	     -73.723409
	 D(1,2,3,5)       =         0.857612	      49.137524
	 D(1,2,3,6)       =         2.907966	     166.614171
	 D(2,3,4,7)       =        -3.139385	    -179.873491
	 D(2,3,4,8)       =         1.037617	      59.451073
	 D(2,3,4,9)       =        -1.018763	     -58.370805
	 D(3,4,7,10)      =         3.117055	     178.594106
	 D(4,7,10,11)     =         0.384909	      22.053640
	 D(4,7,10,12)     =         2.471801	     141.623792
	*D(4,7,10,13)     =        -1.745329	     -99.999995
	 D(5,3,4,7)       =         0.979297	      56.109574
	 D(5,3,4,8)       =        -1.126887	     -64.565862
	 D(5,3,4,9)       =         3.099919	     177.612261
	 D(6,3,4,7)       =        -1.076683	     -61.689382
	 D(6,3,4,8)       =         3.100319	     177.635182
	 D(6,3,4,9)       =         1.043939	      59.813304
	 D(8,4,7,10)      =        -1.066345	     -61.097092
	 D(9,4,7,10)      =         1.018592	      58.361012

	Current energy   :      -268.0596613566

	Energy change for the previous step:
		Projected    :        -0.0000026338
		Actual       :        -0.0000003503
	Energy ratio indicates iffy step: Trust radius decreased to 2.500e-01.


	Performing BFGS update.
	Previous computed or guess Hessian on step 1.
	Steps to be used in Hessian update: 3 2
	Taking RFO optimization step.
	Going to follow RFO solution 1.
	Rejecting RFO root 1 because normalization gives large value.
	Using RFO vector 2.
	Norm of target step-size    0.00151
	Projected energy change by RFO approximation:         0.0000000679

	Back-transformation to cartesian coordinates...
	Successfully converged to displaced geometry.

	Back-transformation to cartesian coordinates to adjust frozen coordinates...
	Successfully converged to displaced geometry.

	--- Internal Coordinate Step in ANG or DEG, aJ/ANG or AJ/DEG ---
	 ---------------------------------------------------------------------------
	   Coordinate                Previous        Force       Change         New 
	   ----------                --------       ------       ------       ------
	    1 R(1,2)          =      0.939627    -0.000026    -0.000002     0.939624
	    2 R(2,3)          =      1.400241    -0.000641    -0.000061     1.400180
	    3 R(3,4)          =      1.515742    -0.000158    -0.000018     1.515724
	    4 R(3,5)          =      1.085446     0.000002    -0.000001     1.085445
	    5 R(3,6)          =      1.080571     0.000077     0.000009     1.080580
	    6 R(4,7)          =      1.390633    -0.000415    -0.000044     1.390589
	    7 R(4,8)          =      1.090570     0.000138     0.000021     1.090591
	    8 R(4,9)          =      1.087824     0.000120     0.000019     1.087843
	    9 R(7,10)         =      1.394134     0.000422     0.000055     1.394190
	   10 R(10,11)        =      1.085087    -0.000048    -0.000005     1.085081
	   11 R(10,12)        =      1.082341    -0.000072    -0.000009     1.082331
	   12 R(10,13)        =      1.085625     0.000003    -0.000004     1.085621
	   13 B(1,2,3)        =    110.218494    -0.000002    -0.007306   110.211188
	   14 B(2,3,4)        =    111.511863    -0.000005    -0.011598   111.500265
	   15 B(2,3,5)        =    111.580013     0.000002     0.001747   111.581760
	   16 B(2,3,6)        =    106.983853     0.000000    -0.002708   106.981146
	   17 B(3,4,7)        =    108.150724    -0.000006    -0.012272   108.138451
	   18 B(3,4,8)        =    109.892092     0.000001     0.004727   109.896819
	   19 B(3,4,9)        =    109.372164     0.000001    -0.001156   109.371008
	   20 B(4,3,5)        =    109.545214     0.000001    -0.000115   109.545099
	   21 B(4,3,6)        =    109.464550     0.000003     0.007893   109.472443
	   22 B(4,7,10)       =    115.888401    -0.000002    -0.006420   115.881980
	   23 B(5,3,6)        =    107.631799    -0.000000     0.005568   107.637367
	   24 B(7,4,8)        =    110.479329     0.000003     0.012695   110.492024
	   25 B(7,4,9)        =    111.413359     0.000001    -0.003209   111.410149
	   26 B(7,10,11)      =    111.962465     0.000000     0.001978   111.964443
	   27 B(7,10,12)      =    108.453500    -0.000001    -0.002514   108.450986
	   28 B(7,10,13)      =    110.789397     0.000001     0.001685   110.791082
	   29 B(8,4,9)        =    107.527768    -0.000001    -0.000582   107.527186
	   30 B(11,10,12)     =    108.406629     0.000000     0.000208   108.406837
	   31 B(11,10,13)     =    109.111479    -0.000000    -0.000472   109.111007
	   32 B(12,10,13)     =    108.006218     0.000000    -0.001029   108.005189
	   33 D(1,2,3,4)      =    -73.723409     0.000000     0.010598   -73.712810
	   34 D(1,2,3,5)      =     49.137524    -0.000000     0.003303    49.140826
	   35 D(1,2,3,6)      =    166.614171     0.000000     0.009352   166.623522
	   36 D(2,3,4,7)      =   -179.873491     0.000000     0.033083  -179.840408
	   37 D(2,3,4,8)      =     59.451073     0.000000     0.022342    59.473415
	   38 D(2,3,4,9)      =    -58.370805    -0.000000     0.020956   -58.349849
	   39 D(3,4,7,10)     =    178.594106    -0.000000    -0.003478   178.590629
	   40 D(4,7,10,11)    =     22.053640     0.000000     0.001981    22.055621
	   41 D(4,7,10,12)    =    141.623792     0.000000     0.001808   141.625600
	   42 *D(4,7,10,13)   =    -99.999995     0.000000    -0.000000   -99.999995
	   43 D(5,3,4,7)      =     56.109574     0.000000     0.038981    56.148555
	   44 D(5,3,4,8)      =    -64.565862     0.000000     0.028240   -64.537622
	   45 D(5,3,4,9)      =    177.612261     0.000000     0.026854   177.639114
	   46 D(6,3,4,7)      =    -61.689382     0.000000     0.027658   -61.661725
	   47 D(6,3,4,8)      =    177.635182    -0.000000     0.016917   177.652099
	   48 D(6,3,4,9)      =     59.813304    -0.000000     0.015531    59.828835
	   49 D(8,4,7,10)     =    -61.097092    -0.000000     0.002236   -61.094856
	   50 D(9,4,7,10)     =     58.361012     0.000000     0.007813    58.368825
	 ---------------------------------------------------------------------------
	Successfully symmetrized geometry.

  ==> Convergence Check <==

  Measures of convergence in internal coordinates in au.
  Criteria marked as inactive (o), active & met (*), and active & unmet ( ).
  ---------------------------------------------------------------------------------------------
   Step     Total Energy     Delta E     MAX Force     RMS Force      MAX Disp      RMS Disp   
  ---------------------------------------------------------------------------------------------
    Convergence Criteria    1.00e-06 *    3.00e-04 *             o    1.20e-03 *             o
  ---------------------------------------------------------------------------------------------
      4    -268.05966136   -3.50e-07 *    7.78e-05 *    2.44e-05 o    6.80e-04 *    2.13e-04 o  ~
  ---------------------------------------------------------------------------------------------


  **** Optimization is complete! (in 4 steps) ****

  ==> Optimization Summary <==

  Measures of convergence in internal coordinates in au.
  --------------------------------------------------------------------------------------------------------------- ~
   Step         Total Energy             Delta E       MAX Force       RMS Force        MAX Disp        RMS Disp  ~
  --------------------------------------------------------------------------------------------------------------- ~
      1    -268.059471188365   -268.059471188365      0.00718358      0.00154568      0.02840797      0.00819528  ~
      2    -268.059629834479     -0.000158646114      0.00228228      0.00062990      0.00686268      0.00249047  ~
      3    -268.059661006314     -0.000031171836      0.00021599      0.00006310      0.00198603      0.00057977  ~
      4    -268.059661356650     -0.000000350335      0.00007780      0.00002441      0.00068035      0.00021334  ~
  --------------------------------------------------------------------------------------------------------------- ~

	Writing optimization data to binary file.
	Final energy is   -268.0596613566496
	Final (previous) structure:
	Cartesian Geometry (in Angstrom)
	    H    -2.0916237192  -0.0257417835  -1.7242520137
	    O    -2.2287777834  -0.1090760371  -0.7984320854
	    C    -1.1771591603   0.4935266551  -0.0972590437
	    C     0.0868128846  -0.3401722012  -0.1665067430
	    H    -0.9730226854   1.4938510924  -0.4658665921
	    H    -1.4940124822   0.5822983923   0.9319917576
	    O     1.0796703831   0.3178789367   0.5511721012
	    H     0.3895850901  -0.4694136629  -1.2062030517
	    H    -0.1100706821  -1.3286861762   0.2426861144
	    C     2.3126300883  -0.3293476185   0.6183918029
	    H     2.4418804651  -1.0412551119  -0.1902459601
	    H     3.0948178111   0.4152789388   0.5464566006
	    H     2.4260905736  -0.8446647692   1.5671573049
	Saving final (previous) structure.
			--------------------------
			 OPTKING Finished Execution 
			--------------------------

    Final optimized geometry and variables:
    Molecular point group: c1
    Full point group: C1

    Geometry (in Angstrom), charge = 0, multiplicity = 1:

    H           -2.091623719241    -0.025741783484    -1.724252013692
    O           -2.228777783425    -0.109076037066    -0.798432085432
    C           -1.177159160322     0.493526655069    -0.097259043668
    C            0.086812884565    -0.340172201200    -0.166506742994
    H           -0.973022685358     1.493851092374    -0.465866592110
    H           -1.494012482227     0.582298392303     0.931991757605
    O            1.079670383130     0.317878936659     0.551172101206
    H            0.389585090079    -0.469413662919    -1.206203051677
    H           -0.110070682120    -1.328686176226     0.242686114435
    C            2.312630088273    -0.329347618503     0.618391802872
    H            2.441880465147    -1.041255111937    -0.190245960131
    H            3.094817811063     0.415278938806     0.546456600634
    H            2.426090573560    -0.844664769180     1.567157304941

	Cleaning optimization helper files.


Properties will be evaluated at   0.000000,   0.000000,   0.000000 Bohr

Properties computed using the  density matrix

  Nuclear Dipole Moment: (a.u.)
     X:     3.4478      Y:    -1.1411      Z:    -0.2808

  Electronic Dipole Moment: (a.u.)
     X:    -2.8193      Y:     0.9752      Z:    -0.2242

  Dipole Moment: (a.u.)
     X:     0.6285      Y:    -0.1659      Z:    -0.5050     Total:     0.8231

  Dipole Moment: (Debye)
     X:     1.5974      Y:    -0.4218      Z:    -1.2836     Total:     2.0922

  Quadrupole Moment: (Debye Ang)
    XX:   -33.9779     YY:   -32.0192     ZZ:   -27.9492
    XY:    -2.6632     XZ:     1.1562     YZ:    -1.1585

  Traceless Quadrupole Moment: (Debye Ang)
    XX:    -2.6624     YY:    -0.7038     ZZ:     3.3662
    XY:    -2.6632     XZ:     1.1562     YZ:    -1.1585

  Mulliken Charges: (a.u.)
   Center  Symbol    Alpha    Beta     Spin     Total
       1     H     0.39414  0.39414  0.00000  0.21173
       2     O     4.20214  4.20214  0.00000 -0.40428
       3     C     2.97484  2.97484  0.00000  0.05033
       4     C     2.96489  2.96489  0.00000  0.07023
       5     H     0.46719  0.46719  0.00000  0.06561
       6     H     0.45266  0.45266  0.00000  0.09469
       7     O     4.17909  4.17909  0.00000 -0.35817
       8     H     0.48115  0.48115  0.00000  0.03770
       9     H     0.47017  0.47017  0.00000  0.05965
      10     C     3.02846  3.02846  0.00000 -0.05693
      11     H     0.47192  0.47192  0.00000  0.05616
      12     H     0.45236  0.45236  0.00000  0.09528
      13     H     0.46100  0.46100  0.00000  0.07800

   Total alpha = 21.00000, Total beta = 21.00000, Total charge = -0.00000


*** Psi4 exiting successfully. Buy a developer a beer!
