    -----------------------------------------------------------------------
          Psi4: An Open-Source Ab Initio Electronic Structure Package
                              Psi4 (no tag) Driver

                          Git: Rev {detached?}  

    J. M. Turney, A. C. Simmonett, R. M. Parrish, E. G. Hohenstein,
    F. A. Evangelista, J. T. Fermann, B. J. Mintz, L. A. Burns, J. J. Wilke,
    M. L. Abrams, N. J. Russ, M. L. Leininger, C. L. Janssen, E. T. Seidl,
    W. D. Allen, H. F. Schaefer, R. A. King, E. F. Valeev, C. D. Sherrill,
    and T. D. Crawford, WIREs Comput. Mol. Sci. 2, 556-565 (2012)
    (doi: 10.1002/wcms.93)

                         Additional Contributions by
    A. E. DePrince, M. Saitow, U. Bozkaya, A. Yu. Sokolov
    -----------------------------------------------------------------------


    Psi4 started on: Fri Sep  9 21:43:03 2016

    Process ID:  45803
    PSI4DATADIR: /export131/home/mjharvey/miniconda3/share
    Memory level set to 256.000 MB

  ==> Input File <==

--------------------------------------------------------------------------
set {
	reference rhf
	basis cc-pvtz
}


set_num_threads( 4 )
memory 2 gb

molecule MOL {
0 1

H	 -2.228978	 1.172681	 2.213577
O	 -1.313473	 1.047255	 2.388421
C	 -0.564950	 1.429321	 1.276052
C	 -0.793473	 0.591216	 0.050087
H	 0.476250	 1.357958	 1.567792
H	 -0.745909	 2.473269	 1.026801
C	 -1.534243	 -0.493009	 -0.013340
H	 -0.286908	 0.941685	 -0.834114
H	 -1.101195	 -1.466332	 -0.144046
H	 -2.604242	 -0.437780	 0.050785

	symmetry c1
}
set optking {
	frozen_dihedral = ("
		3 4 7 9
	")
}

ee = optimize('scf')
oeprop('DIPOLE', 'QUADRUPOLE', 'MULLIKEN_CHARGES')
f=open( 'psi4out.xyz', 'w' )
f.write( "10  " )
f.write( str(ee) + "\n" )
f.write( MOL.save_string_xyz() )
f.close()
--------------------------------------------------------------------------

  Memory set to   2.000 GiB by Python script.
gradient() will perform analytic gradient computation.

*** tstart() called on cx1-27-3-1
*** at Fri Sep  9 21:43:04 2016


         ---------------------------------------------------------
                                   SCF
            by Justin Turney, Rob Parrish, and Andy Simmonett
                              RHF Reference
                        4 Threads,   2000 MiB Core
         ---------------------------------------------------------

  ==> Geometry <==

    Molecular point group: c1
    Full point group: C1

    Geometry (in Angstrom), charge = 0, multiplicity = 1:

       Center              X                  Y                   Z               Mass       
    ------------   -----------------  -----------------  -----------------  -----------------
           H         -1.156258251348     0.498095575235     1.216583872654     1.007825032070
           O         -0.240753251348     0.372669575235     1.391427872654    15.994914619560
           C          0.507769748652     0.754735575235     0.279058872654    12.000000000000
           C          0.279246748652    -0.083369424765    -0.946906127346    12.000000000000
           H          1.548969748652     0.683372575235     0.570798872654     1.007825032070
           H          0.326810748652     1.798683575235     0.029807872654     1.007825032070
           C         -0.461523251348    -1.167594424765    -1.010333127346    12.000000000000
           H          0.785811748652     0.267099575235    -1.831107127346     1.007825032070
           H         -0.028475251348    -2.140917424765    -1.141039127346     1.007825032070
           H         -1.531522251348    -1.112365424765    -0.946208127346     1.007825032070

  Running in c1 symmetry.

  Rotational constants: A =      0.56330  B =      0.19649  C =      0.15535 [cm^-1]
  Rotational constants: A =  16887.29932  B =   5890.75774  C =   4657.15931 [MHz]
  Nuclear repulsion =  119.334525999717272

  Charge       = 0
  Multiplicity = 1
  Electrons    = 32
  Nalpha       = 16
  Nbeta        = 16

  ==> Algorithm <==

  SCF Algorithm Type is DF.
  DIIS enabled.
  MOM disabled.
  Fractional occupation disabled.
  Guess Type is CORE.
  Energy threshold   = 1.00e-08
  Density threshold  = 1.00e-08
  Integral threshold = 0.00e+00

  ==> Primary Basis <==

  Basis Set: CC-PVTZ
    Number of shells: 76
    Number of basis function: 204
    Number of Cartesian functions: 230
    Spherical Harmonics?: true
    Max angular momentum: 3

  ==> Pre-Iterations <==

   -------------------------------------------------------
    Irrep   Nso     Nmo     Nalpha   Nbeta   Ndocc  Nsocc
   -------------------------------------------------------
     A        204     204       0       0       0       0
   -------------------------------------------------------
    Total     204     204      16      16      16       0
   -------------------------------------------------------

 OEINTS: Overlap, kinetic, potential, dipole, and quadrupole integrals
         stored in file 35.

  ==> Integral Setup <==

  ==> DFJK: Density-Fitted J/K Matrices <==

    J tasked:                  Yes
    K tasked:                  Yes
    wK tasked:                  No
    OpenMP threads:              4
    Integrals threads:           4
    Memory (MB):              1430
    Algorithm:                Core
    Integral Cache:           NONE
    Schwarz Cutoff:          1E-12
    Fitting Condition:       1E-12

   => Auxiliary Basis Set <=

  Basis Set: 
    Number of shells: 160
    Number of basis function: 496
    Number of Cartesian functions: 594
    Spherical Harmonics?: true
    Max angular momentum: 4

  Minimum eigenvalue in the overlap matrix is 5.2526547460E-04.
  Using Symmetric Orthogonalization.
  SCF Guess: Core (One-Electron) Hamiltonian.

  ==> Iterations <==

                           Total Energy        Delta E     RMS |[F,P]|

   @DF-RHF iter   1:  -142.55683318679846   -1.42557e+02   5.60168e-02 
   @DF-RHF iter   2:  -120.02352356226632    2.25333e+01   3.50308e-02 DIIS
   @DF-RHF iter   3:  -155.58759979618443   -3.55641e+01   2.95046e-02 DIIS
   @DF-RHF iter   4:  -182.13686292681504   -2.65493e+01   2.08345e-02 DIIS
   @DF-RHF iter   5:  -191.13440038723533   -8.99754e+00   6.09408e-03 DIIS
   @DF-RHF iter   6:  -191.76205888834104   -6.27659e-01   2.41271e-03 DIIS
   @DF-RHF iter   7:  -191.86409048545985   -1.02032e-01   5.92187e-04 DIIS
   @DF-RHF iter   8:  -191.87934509584809   -1.52546e-02   2.90313e-04 DIIS
   @DF-RHF iter   9:  -191.88338902729245   -4.04393e-03   1.81556e-04 DIIS
   @DF-RHF iter  10:  -191.88577470658393   -2.38568e-03   1.05805e-04 DIIS
   @DF-RHF iter  11:  -191.88730603274408   -1.53133e-03   4.03044e-05 DIIS
   @DF-RHF iter  12:  -191.88750054200912   -1.94509e-04   9.44589e-06 DIIS
   @DF-RHF iter  13:  -191.88750850740789   -7.96540e-06   2.00816e-06 DIIS
   @DF-RHF iter  14:  -191.88750879393618   -2.86528e-07   5.48345e-07 DIIS
   @DF-RHF iter  15:  -191.88750881395035   -2.00142e-08   1.75195e-07 DIIS
   @DF-RHF iter  16:  -191.88750881628161   -2.33126e-09   4.71667e-08 DIIS
   @DF-RHF iter  17:  -191.88750881650319   -2.21576e-10   1.01711e-08 DIIS
   @DF-RHF iter  18:  -191.88750881651120   -8.01492e-12   2.87965e-09 DIIS

  ==> Post-Iterations <==

    Orbital Energies (a.u.)
    -----------------------

    Doubly Occupied:                                                      

       1A    -20.553268     2A    -11.282194     3A    -11.240467  
       4A    -11.214359     5A     -1.373989     6A     -1.065944  
       7A     -0.934323     8A     -0.773288     9A     -0.693480  
      10A     -0.650568    11A     -0.618901    12A     -0.583045  
      13A     -0.572370    14A     -0.504550    15A     -0.458149  
      16A     -0.286937  

    Virtual:                                                              

      17A      0.084314    18A      0.139305    19A      0.163866  
      20A      0.187893    21A      0.200294    22A      0.221201  
      23A      0.233672    24A      0.307301    25A      0.333613  
      26A      0.366749    27A      0.439234    28A      0.457118  
      29A      0.480288    30A      0.518562    31A      0.534122  
      32A      0.541335    33A      0.556466    34A      0.567231  
      35A      0.604120    36A      0.607136    37A      0.624131  
      38A      0.638140    39A      0.650825    40A      0.656930  
      41A      0.691140    42A      0.713558    43A      0.724368  
      44A      0.757196    45A      0.785489    46A      0.814326  
      47A      0.854882    48A      0.918236    49A      0.938474  
      50A      0.988841    51A      1.003706    52A      1.051428  
      53A      1.081472    54A      1.138437    55A      1.146672  
      56A      1.157823    57A      1.195960    58A      1.227618  
      59A      1.249913    60A      1.267052    61A      1.285253  
      62A      1.302612    63A      1.329836    64A      1.368539  
      65A      1.382558    66A      1.426414    67A      1.482483  
      68A      1.489859    69A      1.512095    70A      1.540061  
      71A      1.555918    72A      1.576183    73A      1.590136  
      74A      1.604321    75A      1.609256    76A      1.694937  
      77A      1.701940    78A      1.741324    79A      1.754854  
      80A      1.905756    81A      1.930963    82A      2.134852  
      83A      2.229632    84A      2.307439    85A      2.337435  
      86A      2.445842    87A      2.465219    88A      2.508703  
      89A      2.566248    90A      2.571015    91A      2.614845  
      92A      2.653187    93A      2.746091    94A      2.758101  
      95A      2.788301    96A      2.844936    97A      2.907226  
      98A      2.929519    99A      2.981240   100A      3.000351  
     101A      3.018627   102A      3.066358   103A      3.100420  
     104A      3.116507   105A      3.142654   106A      3.180993  
     107A      3.201221   108A      3.226675   109A      3.246309  
     110A      3.255889   111A      3.287667   112A      3.320920  
     113A      3.336457   114A      3.350657   115A      3.363739  
     116A      3.383805   117A      3.423195   118A      3.436273  
     119A      3.482337   120A      3.518741   121A      3.523168  
     122A      3.555363   123A      3.593212   124A      3.627304  
     125A      3.721259   126A      3.723688   127A      3.753694  
     128A      3.757377   129A      3.760178   130A      3.802636  
     131A      3.829182   132A      3.861801   133A      3.902685  
     134A      3.924427   135A      3.970879   136A      4.018036  
     137A      4.035496   138A      4.046814   139A      4.091187  
     140A      4.109090   141A      4.167825   142A      4.180607  
     143A      4.184310   144A      4.214836   145A      4.236643  
     146A      4.253391   147A      4.300197   148A      4.326072  
     149A      4.348337   150A      4.363164   151A      4.382410  
     152A      4.413496   153A      4.463720   154A      4.491596  
     155A      4.531434   156A      4.555621   157A      4.586237  
     158A      4.621706   159A      4.637442   160A      4.744271  
     161A      4.758251   162A      4.843215   163A      4.857747  
     164A      4.965367   165A      5.071570   166A      5.114804  
     167A      5.122374   168A      5.144227   169A      5.206330  
     170A      5.228370   171A      5.253668   172A      5.307735  
     173A      5.327341   174A      5.345326   175A      5.401668  
     176A      5.450503   177A      5.476192   178A      5.566666  
     179A      5.584414   180A      5.719076   181A      5.749366  
     182A      5.831413   183A      5.879380   184A      5.925851  
     185A      6.033533   186A      6.122730   187A      6.159809  
     188A      6.226792   189A      6.297706   190A      6.452661  
     191A      6.527398   192A      6.742078   193A      7.063230  
     194A      7.166459   195A      7.249452   196A      7.293016  
     197A      7.417411   198A      7.510182   199A      7.681254  
     200A      8.015362   201A     11.621697   202A     12.691710  
     203A     13.626308   204A     14.931649  

    Final Occupation by Irrep:
              A 
    DOCC [    16 ]

  Energy converged.

  @DF-RHF Final Energy:  -191.88750881651120

   => Energetics <=

    Nuclear Repulsion Energy =            119.3345259997172718
    One-Electron Energy =                -496.8324066874940286
    Two-Electron Energy =                 185.6103718712657837
    DFT Exchange-Correlation Energy =       0.0000000000000000
    Empirical Dispersion Energy =           0.0000000000000000
    PCM Polarization Energy =               0.0000000000000000
    EFP Energy =                            0.0000000000000000
    Total Energy =                       -191.8875088165109446

    Alert: EFP and PCM quantities not currently incorporated into SCF psivars.

Properties will be evaluated at   0.000000,   0.000000,   0.000000 Bohr
  ==> Properties <==


Properties computed using the SCF density matrix

  Nuclear Dipole Moment: (a.u.)
     X:    -0.0524      Y:    -0.0039      Z:    -1.9631

  Electronic Dipole Moment: (a.u.)
     X:    -0.1229      Y:     0.3718      Z:     1.4945

  Dipole Moment: (a.u.)
     X:    -0.1753      Y:     0.3680      Z:    -0.4685     Total:     0.6210

  Dipole Moment: (Debye)
     X:    -0.4456      Y:     0.9353      Z:    -1.1909     Total:     1.5785


  Saving occupied orbitals to File 180.

*** tstop() called on cx1-27-3-1 at Fri Sep  9 21:43:08 2016
Module time:
	user time   =      11.71 seconds =       0.20 minutes
	system time =       0.22 seconds =       0.00 minutes
	total time  =          4 seconds =       0.07 minutes
Total time:
	user time   =      11.71 seconds =       0.20 minutes
	system time =       0.22 seconds =       0.00 minutes
	total time  =          4 seconds =       0.07 minutes

*** tstart() called on cx1-27-3-1
*** at Fri Sep  9 21:43:08 2016


         ------------------------------------------------------------
                                   SCF GRAD                          
                          Rob Parrish, Justin Turney,                
                       Andy Simmonett, and Alex Sokolov              
         ------------------------------------------------------------

  ==> Geometry <==

    Molecular point group: c1
    Full point group: C1

    Geometry (in Angstrom), charge = 0, multiplicity = 1:

       Center              X                  Y                   Z               Mass       
    ------------   -----------------  -----------------  -----------------  -----------------
           H         -1.156258251348     0.498095575235     1.216583872654     1.007825032070
           O         -0.240753251348     0.372669575235     1.391427872654    15.994914619560
           C          0.507769748652     0.754735575235     0.279058872654    12.000000000000
           C          0.279246748652    -0.083369424765    -0.946906127346    12.000000000000
           H          1.548969748652     0.683372575235     0.570798872654     1.007825032070
           H          0.326810748652     1.798683575235     0.029807872654     1.007825032070
           C         -0.461523251348    -1.167594424765    -1.010333127346    12.000000000000
           H          0.785811748652     0.267099575235    -1.831107127346     1.007825032070
           H         -0.028475251348    -2.140917424765    -1.141039127346     1.007825032070
           H         -1.531522251348    -1.112365424765    -0.946208127346     1.007825032070

  Nuclear repulsion =  119.334525999717272

  ==> Basis Set <==

  Basis Set: CC-PVTZ
    Number of shells: 76
    Number of basis function: 204
    Number of Cartesian functions: 230
    Spherical Harmonics?: true
    Max angular momentum: 3

  ==> DFJKGrad: Density-Fitted SCF Gradients <==

    Gradient:                    1
    J tasked:                  Yes
    K tasked:                  Yes
    wK tasked:                  No
    OpenMP threads:              4
    Integrals threads:           4
    Memory (MB):              1430
    Schwarz Cutoff:          0E+00
    Fitting Condition:       1E-12

   => Auxiliary Basis Set <=

  Basis Set: 
    Number of shells: 160
    Number of basis function: 496
    Number of Cartesian functions: 594
    Spherical Harmonics?: true
    Max angular momentum: 4


  -Total Gradient:
     Atom            X                  Y                   Z
    ------   -----------------  -----------------  -----------------
       1       -0.001127320667     0.001000376935    -0.001248283491
       2        0.000401569766    -0.002351624136     0.000707668586
       3        0.039245247078    -0.030631252682     0.008571981936
       4       -0.026461609556    -0.029542436334    -0.004245568224
       5        0.000458310894     0.006443868493     0.007148417909
       6       -0.003318539952    -0.006478029172    -0.006002453154
       7        0.026088379654     0.029725763534     0.004189589352
       8       -0.043455034742     0.020679254924    -0.008879915990
       9        0.004567761758     0.000656699103     0.049860360557
      10        0.003601235768     0.010497379337    -0.050101797481


*** tstop() called on cx1-27-3-1 at Fri Sep  9 21:43:14 2016
Module time:
	user time   =      23.39 seconds =       0.39 minutes
	system time =       0.31 seconds =       0.01 minutes
	total time  =          6 seconds =       0.10 minutes
Total time:
	user time   =      35.13 seconds =       0.59 minutes
	system time =       0.53 seconds =       0.01 minutes
	total time  =         10 seconds =       0.17 minutes
CURRENT ENERGY: -191.8875088165

			-----------------------------------------
			 OPTKING 2.0: for geometry optimizations 
			  - R.A. King,  Bethel University        
			-----------------------------------------

	Internal coordinates to be generated automatically.
	Detected frag with atoms:  1 2 3 4 5 6 7 8 9 10
	---Fragment 1 Bond Connectivity---
	 1 : 2
	 2 : 1 3
	 3 : 2 4 5 6
	 4 : 3 7 8
	 5 : 3
	 6 : 3
	 7 : 4 9 10
	 8 : 4
	 9 : 7
	 10 : 7

	Assuming in current code that numbering for constraints corresponds to unified fragment.
	Frozen dihedral atom list: 
	     3     4     7     9
	---Fragment 1 Geometry and Gradient---
	 H          -2.1850114339        0.9412642252        2.2990103370
	 O          -0.4549577106        0.7042434353        2.6294176130
	 C           0.9595457635        1.4262435399        0.5273448443
	 C           0.5276998785       -0.1575453807       -1.7893932542
	 H           2.9271286131        1.2913870139        1.0786535463
	 H           0.6175828122        3.3990193569        0.0563287159
	 C          -0.8721525490       -2.2064336971       -1.9092529137
	 H           1.4849689970        0.5047450474       -3.4602909907
	 H          -0.0538104266       -4.0457476059       -2.1562514576
	 H          -2.8941576215       -2.1020660125       -1.7880742254
	            -0.0011273207        0.0010003769       -0.0012482835
	             0.0004015698       -0.0023516241        0.0007076686
	             0.0392452471       -0.0306312527        0.0085719819
	            -0.0264616096       -0.0295424363       -0.0042455682
	             0.0004583109        0.0064438685        0.0071484179
	            -0.0033185400       -0.0064780292       -0.0060024532
	             0.0260883797        0.0297257635        0.0041895894
	            -0.0434550347        0.0206792549       -0.0088799160
	             0.0045677618        0.0006566991        0.0498603606
	             0.0036012358        0.0104973793       -0.0501017975

	Previous optimization step data not found.  Starting new optimization.

	---Fragment 1 Intrafragment Coordinates---
	 - Coordinate -           - BOHR/RAD -       - ANG/DEG -
	 R(1,2)           =         1.777198	       0.940453
	 R(2,3)           =         2.634542	       1.394140
	 R(3,4)           =         2.839393	       1.502542
	 R(3,5)           =         2.047806	       1.083652
	 R(3,6)           =         2.056852	       1.088439
	 R(4,7)           =         2.484330	       1.314651
	 R(4,8)           =         2.036392	       1.077612
	 R(7,9)           =         2.028243	       1.073300
	 R(7,10)          =         2.028320	       1.073341
	 B(1,2,3)         =         1.915348	     109.741373
	 B(2,3,4)         =         2.000385	     114.613643
	 B(2,3,5)         =         1.857736	     106.440457
	 B(2,3,6)         =         1.935102	     110.873204
	 B(3,4,7)         =         2.195786	     125.809263
	 B(3,4,8)         =         2.000476	     114.618824
	 B(4,3,5)         =         1.906108	     109.211919
	 B(4,3,6)         =         1.899545	     108.835908
	 B(4,7,9)         =         2.125194	     121.764661
	 B(4,7,10)        =         2.113438	     121.091060
	 B(5,3,6)         =         1.859339	     106.532282
	 B(7,4,8)         =         2.086922	     119.571804
	 B(9,7,10)        =         2.044466	     117.139282
	 D(1,2,3,4)       =        -1.128778	     -64.674200
	 D(1,2,3,5)       =         3.045442	     174.490948
	 D(1,2,3,6)       =         1.030100	      59.020358
	 D(2,3,4,7)       =        -0.098035	      -5.617001
	 D(2,3,4,8)       =         3.045684	     174.504812
	*D(3,4,7,9)       =        -1.919862	    -110.000013
	 D(3,4,7,10)      =         1.236332	      70.836578
	 D(5,3,4,7)       =         1.984056	     113.678044
	 D(5,3,4,8)       =        -1.155410	     -66.200144
	 D(6,3,4,7)       =        -2.275782	    -130.392710
	 D(6,3,4,8)       =         0.867937	      49.729103
	 D(8,4,7,9)       =         1.219508	      69.872662
	 D(8,4,7,10)      =        -1.907483	    -109.290748

	Current energy   :      -191.8875088165

	Generating empirical Hessian (Schlegel '84) for each fragment.
	Taking RFO optimization step.
	Going to follow RFO solution 1.
	Using RFO vector 1.

	Determining step-restricting scale parameter for RS-RFO.
	Maximum step size allowed    0.50000

	 Iter      |step|        alpha        rfo_root  
	------------------------------------------------
	    0     0.78999       1.00000           1
	    1     0.60222       1.88538           1
	    2     0.52080       2.61265           1
	    3     0.50120       2.84437           1
	    4     0.50000       2.85938           1
	------------------------------------------------
	Norm of target step-size    0.50000
	Projected energy change by RFO approximation:        -0.0479646805

	Back-transformation to cartesian coordinates...
	Successfully converged to displaced geometry.

	Back-transformation to cartesian coordinates to adjust frozen coordinates...
	Successfully converged to displaced geometry.

	--- Internal Coordinate Step in ANG or DEG, aJ/ANG or AJ/DEG ---
	 ---------------------------------------------------------------------------
	   Coordinate                Previous        Force       Change         New 
	   ----------                --------       ------       ------       ------
	    1 R(1,2)          =      0.940453    -0.012052    -0.001089     0.939364
	    2 R(2,3)          =      1.394140    -0.002707    -0.000301     1.393839
	    3 R(3,4)          =      1.502542     0.040758     0.006042     1.508584
	    4 R(3,5)          =      1.083652    -0.015987    -0.002195     1.081457
	    5 R(3,6)          =      1.088439     0.035319     0.004909     1.093348
	    6 R(4,7)          =      1.314651     0.438368     0.037794     1.352445
	    7 R(4,8)          =      1.077612     0.052858     0.007147     1.084760
	    8 R(7,9)          =      1.073300     0.039748     0.005315     1.078615
	    9 R(7,10)         =      1.073341     0.049788     0.006658     1.079999
	   10 B(1,2,3)        =    109.741373     0.000167     0.460699   110.202072
	   11 B(2,3,4)        =    114.613643     0.000284     0.659301   115.272944
	   12 B(2,3,5)        =    106.440457     0.000270     0.483802   106.924259
	   13 B(2,3,6)        =    110.873204    -0.000362    -0.621020   110.252184
	   14 B(3,4,7)        =    125.809263     0.000370     0.736221   126.545484
	   15 B(3,4,8)        =    114.618824    -0.000606    -1.681700   112.937124
	   16 B(4,3,5)        =    109.211919    -0.001027    -3.328656   105.883263
	   17 B(4,3,6)        =    108.835908     0.000761     2.608443   111.444351
	   18 B(4,7,9)        =    121.764661     0.000063    -0.278134   121.486526
	   19 B(4,7,10)       =    121.091060     0.000449     0.792106   121.883166
	   20 B(5,3,6)        =    106.532282     0.000013    -0.041778   106.490504
	   21 B(7,4,8)        =    119.571804     0.000234     0.630809   120.202613
	   22 B(9,7,10)       =    117.139282    -0.000479    -1.787367   115.351915
	   23 D(1,2,3,4)      =    -64.674200    -0.000139    -2.217491   -66.891691
	   24 D(1,2,3,5)      =    174.490948     0.000074     1.229827   175.720775
	   25 D(1,2,3,6)      =     59.020358     0.000078     1.326208    60.346565
	   26 D(2,3,4,7)      =     -5.617001    -0.000099    -2.513663    -8.130664
	   27 D(2,3,4,8)      =    174.504812     0.000154     3.853961   178.358772
	   28 *D(3,4,7,9)     =   -110.000013    -0.000000    -0.000000  -110.000013
	   29 D(3,4,7,10)     =     70.836578    -0.000635   -14.352881    56.483697
	   30 D(5,3,4,7)      =    113.678044    -0.000147    -3.836946   109.841098
	   31 D(5,3,4,8)      =    -66.200144     0.000107     2.530678   -63.669466
	   32 D(6,3,4,7)      =   -130.392710    -0.000176    -4.372305  -134.765014
	   33 D(6,3,4,8)      =     49.729103     0.000078     1.995319    51.724421
	   34 D(8,4,7,9)      =     69.872662    -0.000265    -6.789730    63.082932
	   35 D(8,4,7,10)     =   -109.290748    -0.000900   -21.142611  -130.433358
	 ---------------------------------------------------------------------------

  ==> Convergence Check <==

  Measures of convergence in internal coordinates in au.
  Criteria marked as inactive (o), active & met (*), and active & unmet ( ).
  --------------------------------------------------------------------------------------------- ~
   Step     Total Energy     Delta E     MAX Force     RMS Force      MAX Disp      RMS Disp    ~
  --------------------------------------------------------------------------------------------- ~
    Convergence Criteria    1.00e-06 *    3.00e-04 *             o    1.20e-03 *             o  ~
  --------------------------------------------------------------------------------------------- ~
      1    -191.88750882   -1.92e+02      5.32e-02      1.53e-02 o    3.69e-01      8.44e-02 o  ~
  ---------------------------------------------------------------------------------------------

	Writing optimization data to binary file.
	Structure for next step:
	Cartesian Geometry (in Angstrom)
	    H    -1.1872612632   0.5693485188   1.2145212048
	    O    -0.2786061164   0.3951229129   1.3769915984
	    C     0.4875199798   0.7664043714   0.2733663896
	    C     0.2632219045  -0.0548466015  -0.9720506537
	    H     1.5236060646   0.6160587038   0.5444217888
	    H     0.3708322482   1.8350497599   0.0738878737
	    C    -0.4751898892  -1.1836609835  -1.0702031762
	    H     0.8568343782   0.2838957434  -1.8144171936
	    H    -0.0148731918  -2.1457455282  -1.2311757293
	    H    -1.5160076258  -1.2112171544  -0.7832585585
			--------------------------
			 OPTKING Finished Execution 
			--------------------------

    Structure for next step:
    Molecular point group: c1
    Full point group: C1

    Geometry (in Angstrom), charge = 0, multiplicity = 1:

    H           -1.168029068910     0.558981871567     1.235427154407
    O           -0.259373991466     0.384756278956     1.397897535573
    C            0.506752046192     0.756037709062     0.294272411051
    C            0.282453988036    -0.065213201088    -0.951144537143
    H            1.542838051923     0.605692052961     0.565327789485
    H            0.390064323516     1.824683015951     0.094793910407
    C           -0.455957749271    -1.194027496909    -1.049297052178
    H            0.876066416386     0.273529117924    -1.793511012702
    H            0.004358912993    -2.156111968124    -1.210269592934
    H           -1.496775406397    -1.221583665693    -0.762352456396

gradient() will perform analytic gradient computation.

*** tstart() called on cx1-27-3-1
*** at Fri Sep  9 21:43:14 2016


         ---------------------------------------------------------
                                   SCF
            by Justin Turney, Rob Parrish, and Andy Simmonett
                              RHF Reference
                        4 Threads,   2000 MiB Core
         ---------------------------------------------------------

  ==> Geometry <==

    Molecular point group: c1
    Full point group: C1

    Geometry (in Angstrom), charge = 0, multiplicity = 1:

       Center              X                  Y                   Z               Mass       
    ------------   -----------------  -----------------  -----------------  -----------------
           H         -1.168029068910     0.558981871567     1.235427154407     1.007825032070
           O         -0.259373991466     0.384756278956     1.397897535573    15.994914619560
           C          0.506752046192     0.756037709062     0.294272411051    12.000000000000
           C          0.282453988036    -0.065213201088    -0.951144537143    12.000000000000
           H          1.542838051923     0.605692052961     0.565327789485     1.007825032070
           H          0.390064323516     1.824683015951     0.094793910407     1.007825032070
           C         -0.455957749271    -1.194027496909    -1.049297052178    12.000000000000
           H          0.876066416386     0.273529117924    -1.793511012702     1.007825032070
           H          0.004358912993    -2.156111968124    -1.210269592934     1.007825032070
           H         -1.496775406397    -1.221583665693    -0.762352456396     1.007825032070

  Running in c1 symmetry.

  Rotational constants: A =      0.55719  B =      0.19165  C =      0.15136 [cm^-1]
  Rotational constants: A =  16704.25448  B =   5745.45080  C =   4537.57966 [MHz]
  Nuclear repulsion =  118.285387122266130

  Charge       = 0
  Multiplicity = 1
  Electrons    = 32
  Nalpha       = 16
  Nbeta        = 16

  ==> Algorithm <==

  SCF Algorithm Type is DF.
  DIIS enabled.
  MOM disabled.
  Fractional occupation disabled.
  Guess Type is READ.
  Energy threshold   = 1.00e-08
  Density threshold  = 1.00e-08
  Integral threshold = 0.00e+00

  ==> Primary Basis <==

  Basis Set: CC-PVTZ
    Number of shells: 76
    Number of basis function: 204
    Number of Cartesian functions: 230
    Spherical Harmonics?: true
    Max angular momentum: 3

  ==> Pre-Iterations <==

   -------------------------------------------------------
    Irrep   Nso     Nmo     Nalpha   Nbeta   Ndocc  Nsocc
   -------------------------------------------------------
     A        204     204       0       0       0       0
   -------------------------------------------------------
    Total     204     204      16      16      16       0
   -------------------------------------------------------

 OEINTS: Overlap, kinetic, potential, dipole, and quadrupole integrals
         stored in file 35.

  ==> Integral Setup <==

  ==> DFJK: Density-Fitted J/K Matrices <==

    J tasked:                  Yes
    K tasked:                  Yes
    wK tasked:                  No
    OpenMP threads:              4
    Integrals threads:           4
    Memory (MB):              1430
    Algorithm:                Core
    Integral Cache:           NONE
    Schwarz Cutoff:          1E-12
    Fitting Condition:       1E-12

   => Auxiliary Basis Set <=

  Basis Set: 
    Number of shells: 160
    Number of basis function: 496
    Number of Cartesian functions: 594
    Spherical Harmonics?: true
    Max angular momentum: 4

  Minimum eigenvalue in the overlap matrix is 5.8807191707E-04.
  Using Symmetric Orthogonalization.
  SCF Guess: Reading in previously saved MOs, projecting if necessary.

  Using orbitals from previous SCF, no projection.
  Recomputing DOCC and SOCC from number of alpha and beta electrons from previous calculation.
              A 
    DOCC [    16 ]

  ==> Iterations <==

                           Total Energy        Delta E     RMS |[F,P]|

   @DF-RHF iter   0:  -191.92206358860460   -1.91922e+02   7.47800e-04 
   @DF-RHF iter   1:  -191.91802896345234    4.03463e-03   1.35595e-04 
   @DF-RHF iter   2:  -191.91860328788800   -5.74324e-04   5.41458e-05 DIIS
   @DF-RHF iter   3:  -191.91869193429562   -8.86464e-05   2.30383e-05 DIIS
   @DF-RHF iter   4:  -191.91871539111287   -2.34568e-05   6.36494e-06 DIIS
   @DF-RHF iter   5:  -191.91871787363954   -2.48253e-06   2.99284e-06 DIIS
   @DF-RHF iter   6:  -191.91871837824118   -5.04602e-07   8.29558e-07 DIIS
   @DF-RHF iter   7:  -191.91871843614388   -5.79027e-08   3.42811e-07 DIIS
   @DF-RHF iter   8:  -191.91871844310668   -6.96281e-09   1.72213e-07 DIIS
   @DF-RHF iter   9:  -191.91871844515765   -2.05097e-09   6.87012e-08 DIIS
   @DF-RHF iter  10:  -191.91871844564940   -4.91752e-10   2.27414e-08 DIIS
   @DF-RHF iter  11:  -191.91871844570392   -5.45128e-11   7.96005e-09 DIIS

  ==> Post-Iterations <==

    Orbital Energies (a.u.)
    -----------------------

    Doubly Occupied:                                                      

       1A    -20.554627     2A    -11.285393     3A    -11.246001  
       4A    -11.222695     5A     -1.375225     6A     -1.054944  
       7A     -0.931590     8A     -0.775255     9A     -0.692728  
      10A     -0.647891    11A     -0.621743    12A     -0.574285  
      13A     -0.565129    14A     -0.500564    15A     -0.459023  
      16A     -0.303321  

    Virtual:                                                              

      17A      0.095781    18A      0.141152    19A      0.162564  
      20A      0.185757    21A      0.202959    22A      0.219345  
      23A      0.238479    24A      0.308284    25A      0.334506  
      26A      0.371694    27A      0.434098    28A      0.455061  
      29A      0.478424    30A      0.518723    31A      0.529430  
      32A      0.542653    33A      0.553887    34A      0.567020  
      35A      0.599413    36A      0.607465    37A      0.620134  
      38A      0.630510    39A      0.649706    40A      0.658544  
      41A      0.691207    42A      0.718526    43A      0.727565  
      44A      0.748529    45A      0.777405    46A      0.805380  
      47A      0.854411    48A      0.913679    49A      0.934438  
      50A      0.981418    51A      0.994134    52A      1.050926  
      53A      1.088629    54A      1.106689    55A      1.129949  
      56A      1.156460    57A      1.195311    58A      1.224103  
      59A      1.248126    60A      1.253588    61A      1.272772  
      62A      1.293637    63A      1.311499    64A      1.363476  
      65A      1.382189    66A      1.438092    67A      1.472599  
      68A      1.482073    69A      1.522392    70A      1.539520  
      71A      1.553986    72A      1.570188    73A      1.583705  
      74A      1.595830    75A      1.626374    76A      1.690728  
      77A      1.707385    78A      1.734541    79A      1.753218  
      80A      1.890811    81A      1.927582    82A      2.134454  
      83A      2.226029    84A      2.311739    85A      2.336802  
      86A      2.435075    87A      2.468208    88A      2.505946  
      89A      2.553098    90A      2.565047    91A      2.598744  
      92A      2.656556    93A      2.715128    94A      2.747266  
      95A      2.769090    96A      2.849918    97A      2.867126  
      98A      2.892967    99A      2.971267   100A      2.983001  
     101A      3.036375   102A      3.081064   103A      3.084511  
     104A      3.124815   105A      3.129834   106A      3.164131  
     107A      3.192011   108A      3.227029   109A      3.244881  
     110A      3.264328   111A      3.279046   112A      3.306234  
     113A      3.347404   114A      3.358035   115A      3.375741  
     116A      3.409463   117A      3.419071   118A      3.443860  
     119A      3.464893   120A      3.511621   121A      3.513343  
     122A      3.535937   123A      3.587915   124A      3.630021  
     125A      3.684689   126A      3.713041   127A      3.720663  
     128A      3.743497   129A      3.765195   130A      3.800166  
     131A      3.826169   132A      3.849809   133A      3.875397  
     134A      3.912648   135A      3.959543   136A      3.985704  
     137A      4.009718   138A      4.040432   139A      4.069611  
     140A      4.089245   141A      4.150410   142A      4.171211  
     143A      4.184068   144A      4.222827   145A      4.239000  
     146A      4.253671   147A      4.283179   148A      4.310971  
     149A      4.339467   150A      4.343400   151A      4.386470  
     152A      4.403621   153A      4.445873   154A      4.460456  
     155A      4.512722   156A      4.529739   157A      4.569258  
     158A      4.614333   159A      4.626447   160A      4.701921  
     161A      4.735243   162A      4.808406   163A      4.836603  
     164A      4.893667   165A      5.002898   166A      5.084101  
     167A      5.096745   168A      5.141573   169A      5.188578  
     170A      5.202657   171A      5.238556   172A      5.260943  
     173A      5.290862   174A      5.345563   175A      5.381039  
     176A      5.443362   177A      5.471509   178A      5.528040  
     179A      5.575295   180A      5.709387   181A      5.743668  
     182A      5.764528   183A      5.875119   184A      5.918301  
     185A      6.027167   186A      6.051700   187A      6.138786  
     188A      6.234044   189A      6.277277   190A      6.418834  
     191A      6.532929   192A      6.743208   193A      7.060403  
     194A      7.167464   195A      7.243767   196A      7.295900  
     197A      7.414380   198A      7.506681   199A      7.675139  
     200A      8.017327   201A     11.450144   202A     12.659355  
     203A     13.580958   204A     14.292271  

    Final Occupation by Irrep:
              A 
    DOCC [    16 ]

  Energy converged.

  @DF-RHF Final Energy:  -191.91871844570392

   => Energetics <=

    Nuclear Repulsion Energy =            118.2853871222661297
    One-Electron Energy =                -494.7873860687494698
    Two-Electron Energy =                 184.5832805007793525
    DFT Exchange-Correlation Energy =       0.0000000000000000
    Empirical Dispersion Energy =           0.0000000000000000
    PCM Polarization Energy =               0.0000000000000000
    EFP Energy =                            0.0000000000000000
    Total Energy =                       -191.9187184457040019

    Alert: EFP and PCM quantities not currently incorporated into SCF psivars.

Properties will be evaluated at   0.000000,   0.000000,   0.000000 Bohr
  ==> Properties <==


Properties computed using the SCF density matrix

  Nuclear Dipole Moment: (a.u.)
     X:     0.1380      Y:    -0.1058      Z:    -1.7469

  Electronic Dipole Moment: (a.u.)
     X:    -0.2541      Y:     0.4586      Z:     1.3878

  Dipole Moment: (a.u.)
     X:    -0.1161      Y:     0.3529      Z:    -0.3591     Total:     0.5166

  Dipole Moment: (Debye)
     X:    -0.2951      Y:     0.8969      Z:    -0.9127     Total:     1.3132


  Saving occupied orbitals to File 180.

*** tstop() called on cx1-27-3-1 at Fri Sep  9 21:43:19 2016
Module time:
	user time   =      11.87 seconds =       0.20 minutes
	system time =       0.21 seconds =       0.00 minutes
	total time  =          5 seconds =       0.08 minutes
Total time:
	user time   =      48.35 seconds =       0.81 minutes
	system time =       0.78 seconds =       0.01 minutes
	total time  =         15 seconds =       0.25 minutes

*** tstart() called on cx1-27-3-1
*** at Fri Sep  9 21:43:19 2016


         ------------------------------------------------------------
                                   SCF GRAD                          
                          Rob Parrish, Justin Turney,                
                       Andy Simmonett, and Alex Sokolov              
         ------------------------------------------------------------

  ==> Geometry <==

    Molecular point group: c1
    Full point group: C1

    Geometry (in Angstrom), charge = 0, multiplicity = 1:

       Center              X                  Y                   Z               Mass       
    ------------   -----------------  -----------------  -----------------  -----------------
           H         -1.168029068910     0.558981871567     1.235427154407     1.007825032070
           O         -0.259373991466     0.384756278956     1.397897535573    15.994914619560
           C          0.506752046192     0.756037709062     0.294272411051    12.000000000000
           C          0.282453988036    -0.065213201088    -0.951144537143    12.000000000000
           H          1.542838051923     0.605692052961     0.565327789485     1.007825032070
           H          0.390064323516     1.824683015951     0.094793910407     1.007825032070
           C         -0.455957749271    -1.194027496909    -1.049297052178    12.000000000000
           H          0.876066416386     0.273529117924    -1.793511012702     1.007825032070
           H          0.004358912993    -2.156111968124    -1.210269592934     1.007825032070
           H         -1.496775406397    -1.221583665693    -0.762352456396     1.007825032070

  Nuclear repulsion =  118.285387122266130

  ==> Basis Set <==

  Basis Set: CC-PVTZ
    Number of shells: 76
    Number of basis function: 204
    Number of Cartesian functions: 230
    Spherical Harmonics?: true
    Max angular momentum: 3

  ==> DFJKGrad: Density-Fitted SCF Gradients <==

    Gradient:                    1
    J tasked:                  Yes
    K tasked:                  Yes
    wK tasked:                  No
    OpenMP threads:              4
    Integrals threads:           4
    Memory (MB):              1430
    Schwarz Cutoff:          0E+00
    Fitting Condition:       1E-12

   => Auxiliary Basis Set <=

  Basis Set: 
    Number of shells: 160
    Number of basis function: 496
    Number of Cartesian functions: 594
    Spherical Harmonics?: true
    Max angular momentum: 4


  -Total Gradient:
     Atom            X                  Y                   Z
    ------   -----------------  -----------------  -----------------
       1       -0.000052642466     0.000023152727     0.000045782385
       2       -0.001574080436    -0.000196278341     0.000330288695
       3        0.034046717022    -0.025315571231     0.008117832773
       4        0.000904731627     0.011731422752     0.004390567759
       5       -0.000339516885     0.003633229129     0.002407829578
       6       -0.002469764209     0.000356273841    -0.001747033230
       7       -0.000813300140    -0.012538394158    -0.012298726009
       8       -0.026902404781     0.020713525791    -0.012182417099
       9        0.007399885272    -0.004850549970     0.045016199201
      10       -0.010199625005     0.006443189460    -0.034080324050


*** tstop() called on cx1-27-3-1 at Fri Sep  9 21:43:25 2016
Module time:
	user time   =      23.24 seconds =       0.39 minutes
	system time =       0.30 seconds =       0.00 minutes
	total time  =          6 seconds =       0.10 minutes
Total time:
	user time   =      71.61 seconds =       1.19 minutes
	system time =       1.08 seconds =       0.02 minutes
	total time  =         21 seconds =       0.35 minutes
CURRENT ENERGY: -191.9187184457

			-----------------------------------------
			 OPTKING 2.0: for geometry optimizations 
			  - R.A. King,  Bethel University        
			-----------------------------------------

	Previous internal coordinate definitions found.
	---Fragment 1 Geometry and Gradient---
	 H          -2.2072550555        1.0563226505        2.3346189790
	 O          -0.4901458099        0.7270839951        2.6416435041
	 C           0.9576225846        1.4287042163        0.5560942654
	 C           0.5337606825       -0.1232350903       -1.7974026880
	 H           2.9155413855        1.1445921010        1.0683146974
	 H           0.7371147457        3.4481511795        0.1791345297
	 C          -0.8616352743       -2.2563849643       -1.9828840607
	 H           1.6555256012        0.5168951222       -3.3892446303
	 H           0.0082371518       -4.0744611316       -2.2870780776
	 H          -2.8284956005       -2.3084585766       -1.4406373593
	            -0.0000526425        0.0000231527        0.0000457824
	            -0.0015740804       -0.0001962783        0.0003302887
	             0.0340467170       -0.0253155712        0.0081178328
	             0.0009047316        0.0117314228        0.0043905678
	            -0.0003395169        0.0036332291        0.0024078296
	            -0.0024697642        0.0003562738       -0.0017470332
	            -0.0008133001       -0.0125383942       -0.0122987260
	            -0.0269024048        0.0207135258       -0.0121824171
	             0.0073998853       -0.0048505500        0.0450161992
	            -0.0101996250        0.0064431895       -0.0340803240

	---Fragment 1 Intrafragment Coordinates---
	 - Coordinate -           - BOHR/RAD -       - ANG/DEG -
	 R(1,2)           =         1.775141	       0.939364
	 R(2,3)           =         2.633974	       1.393839
	 R(3,4)           =         2.850811	       1.508584
	 R(3,5)           =         2.043657	       1.081457
	 R(3,6)           =         2.066129	       1.093348
	 R(4,7)           =         2.555751	       1.352445
	 R(4,8)           =         2.049899	       1.084760
	 R(7,9)           =         2.038287	       1.078615
	 R(7,10)          =         2.040902	       1.079999
	 B(1,2,3)         =         1.923389	     110.202072
	 B(2,3,4)         =         2.011892	     115.272944
	 B(2,3,5)         =         1.866180	     106.924259
	 B(2,3,6)         =         1.924264	     110.252184
	 B(3,4,7)         =         2.208635	     126.545484
	 B(3,4,8)         =         1.971125	     112.937124
	 B(4,3,5)         =         1.848012	     105.883263
	 B(4,3,6)         =         1.945071	     111.444351
	 B(4,7,9)         =         2.120340	     121.486526
	 B(4,7,10)        =         2.127263	     121.883166
	 B(5,3,6)         =         1.858610	     106.490504
	 B(7,4,8)         =         2.097931	     120.202613
	 B(9,7,10)        =         2.013271	     115.351915
	 D(1,2,3,4)       =        -1.167480	     -66.891691
	 D(1,2,3,5)       =         3.066906	     175.720775
	 D(1,2,3,6)       =         1.053246	      60.346565
	 D(2,3,4,7)       =        -0.141907	      -8.130664
	 D(2,3,4,8)       =         3.112948	     178.358772
	*D(3,4,7,9)       =        -1.919862	    -110.000013
	 D(3,4,7,10)      =         0.985826	      56.483697
	 D(5,3,4,7)       =         1.917089	     109.841098
	 D(5,3,4,8)       =        -1.111242	     -63.669466
	 D(6,3,4,7)       =        -2.352093	    -134.765014
	 D(6,3,4,8)       =         0.902761	      51.724421
	 D(8,4,7,9)       =         1.101005	      63.082932
	 D(8,4,7,10)      =        -2.276492	    -130.433358

	Current energy   :      -191.9187184457

	Energy change for the previous step:
		Projected    :        -0.0479646805
		Actual       :        -0.0312096292

	Performing BFGS update.
	Previous computed or guess Hessian on step 1.
	Steps to be used in Hessian update: 1
	Taking RFO optimization step.
	Going to follow RFO solution 1.
	Using RFO vector 1.

	Determining step-restricting scale parameter for RS-RFO.
	Maximum step size allowed    0.50000

	 Iter      |step|        alpha        rfo_root  
	------------------------------------------------
	    0     0.73449       1.00000           1
	    1     0.57776       1.89273           1
	    2     0.51355       2.54036           1
	    3     0.50054       2.70508           1
	    4     0.50000       2.71226           1
	------------------------------------------------
	Norm of target step-size    0.50000
	Projected energy change by RFO approximation:        -0.0154084275

	Back-transformation to cartesian coordinates...
	Successfully converged to displaced geometry.

	Back-transformation to cartesian coordinates to adjust frozen coordinates...
	Successfully converged to displaced geometry.

	--- Internal Coordinate Step in ANG or DEG, aJ/ANG or AJ/DEG ---
	 ---------------------------------------------------------------------------
	   Coordinate                Previous        Force       Change         New 
	   ----------                --------       ------       ------       ------
	    1 R(1,2)          =      0.939364    -0.000390    -0.000035     0.939329
	    2 R(2,3)          =      1.393839    -0.010200    -0.001753     1.392087
	    3 R(3,4)          =      1.508584    -0.002112    -0.000953     1.507631
	    4 R(3,5)          =      1.081457     0.001869     0.000547     1.082004
	    5 R(3,6)          =      1.093348    -0.007667    -0.002014     1.091334
	    6 R(4,7)          =      1.352445    -0.092335    -0.012689     1.339756
	    7 R(4,8)          =      1.084760    -0.009942    -0.002570     1.082189
	    8 R(7,9)          =      1.078615    -0.006314    -0.001655     1.076960
	    9 R(7,10)         =      1.079999    -0.005029    -0.001464     1.078535
	   10 B(1,2,3)        =    110.202072    -0.000006    -0.108269   110.093803
	   11 B(2,3,4)        =    115.272944     0.000129     0.394187   115.667131
	   12 B(2,3,5)        =    106.924259     0.000075     0.111935   107.036193
	   13 B(2,3,6)        =    110.252184    -0.000064     0.116117   110.368301
	   14 B(3,4,7)        =    126.545484     0.000339     0.898584   127.444068
	   15 B(3,4,8)        =    112.937124    -0.000178    -0.664322   112.272802
	   16 B(4,3,5)        =    105.883263    -0.000439    -1.836083   104.047180
	   17 B(4,3,6)        =    111.444351     0.000225     0.861327   112.305678
	   18 B(4,7,9)        =    121.486526     0.000469     1.489053   122.975580
	   19 B(4,7,10)       =    121.883166    -0.000625    -3.882466   118.000700
	   20 B(5,3,6)        =    106.490504     0.000044     0.195994   106.686498
	   21 B(7,4,8)        =    120.202613    -0.000245    -1.363733   118.838880
	   22 B(9,7,10)       =    115.351915    -0.000202    -1.472889   113.879026
	   23 D(1,2,3,4)      =    -66.891691    -0.000059    -1.261984   -68.153675
	   24 D(1,2,3,5)      =    175.720775     0.000037     0.727375   176.448150
	   25 D(1,2,3,6)      =     60.346565     0.000023     0.373148    60.719713
	   26 D(2,3,4,7)      =     -8.130664    -0.000087    -3.603878   -11.734542
	   27 D(2,3,4,8)      =    178.358772     0.000115     3.939246   182.298018
	   28 *D(3,4,7,9)     =   -110.000013     0.000000    -0.000000  -110.000013
	   29 D(3,4,7,10)     =     56.483697    -0.000434   -13.421123    43.062574
	   30 D(5,3,4,7)      =    109.841098    -0.000118    -4.490923   105.350175
	   31 D(5,3,4,8)      =    -63.669466     0.000085     3.052201   -60.617265
	   32 D(6,3,4,7)      =   -134.765014    -0.000137    -4.887871  -139.652885
	   33 D(6,3,4,8)      =     51.724421     0.000066     2.655253    54.379675
	   34 D(8,4,7,9)      =     63.082932    -0.000214    -7.924690    55.158242
	   35 D(8,4,7,10)     =   -130.433358    -0.000648   -21.345813  -151.779172
	 ---------------------------------------------------------------------------

  ==> Convergence Check <==

  Measures of convergence in internal coordinates in au.
  Criteria marked as inactive (o), active & met (*), and active & unmet ( ).
  ---------------------------------------------------------------------------------------------
   Step     Total Energy     Delta E     MAX Force     RMS Force      MAX Disp      RMS Disp   
  ---------------------------------------------------------------------------------------------
    Convergence Criteria    1.00e-06 *    3.00e-04 *             o    1.20e-03 *             o
  ---------------------------------------------------------------------------------------------
      2    -191.91871845   -3.12e-02      3.71e-02      8.79e-03 o    3.73e-01      8.44e-02 o  ~
  ---------------------------------------------------------------------------------------------

	Writing optimization data to binary file.
	Structure for next step:
	Cartesian Geometry (in Angstrom)
	    H    -1.2009898647   0.6133870892   1.2208096019
	    O    -0.3017823769   0.3941427400   1.3811145732
	    C     0.4803268798   0.7526256118   0.2867196739
	    C     0.2482893781  -0.0454030766  -0.9711594343
	    H     1.5082310820   0.5382699338   0.5478664930
	    H     0.4191215974   1.8281620263   0.1121194726
	    C    -0.4518384908  -1.1805911658  -1.0981013794
	    H     0.9110142513   0.2516369059  -1.7734667539
	    H     0.0079142296  -2.1334114480  -1.2996046663
	    H    -1.3978891458  -1.2520749199  -0.5851535975
			--------------------------
			 OPTKING Finished Execution 
			--------------------------

    Structure for next step:
    Molecular point group: c1
    Full point group: C1

    Geometry (in Angstrom), charge = 0, multiplicity = 1:

    H           -1.179344845153     0.605313212075     1.239606661617
    O           -0.280137426102     0.386068879646     1.399911620656
    C            0.501971770870     0.744551724004     0.305516804952
    C            0.269934286941    -0.053476903398    -0.952362207250
    H            1.529875894643     0.530196062410     0.566663604106
    H            0.440766493161     1.820088056343     0.130916616964
    C           -0.430193528529    -1.188664905915    -1.079304142619
    H            0.932659109549     0.243563056382    -1.754669465564
    H            0.029559156772    -2.141485115362    -1.280807414089
    H           -1.376244111254    -1.260148654632    -0.566356399904

gradient() will perform analytic gradient computation.

*** tstart() called on cx1-27-3-1
*** at Fri Sep  9 21:43:25 2016


         ---------------------------------------------------------
                                   SCF
            by Justin Turney, Rob Parrish, and Andy Simmonett
                              RHF Reference
                        4 Threads,   2000 MiB Core
         ---------------------------------------------------------

  ==> Geometry <==

    Molecular point group: c1
    Full point group: C1

    Geometry (in Angstrom), charge = 0, multiplicity = 1:

       Center              X                  Y                   Z               Mass       
    ------------   -----------------  -----------------  -----------------  -----------------
           H         -1.179344845153     0.605313212075     1.239606661617     1.007825032070
           O         -0.280137426102     0.386068879646     1.399911620656    15.994914619560
           C          0.501971770870     0.744551724004     0.305516804952    12.000000000000
           C          0.269934286941    -0.053476903398    -0.952362207250    12.000000000000
           H          1.529875894643     0.530196062410     0.566663604106     1.007825032070
           H          0.440766493161     1.820088056343     0.130916616964     1.007825032070
           C         -0.430193528529    -1.188664905915    -1.079304142619    12.000000000000
           H          0.932659109549     0.243563056382    -1.754669465564     1.007825032070
           H          0.029559156772    -2.141485115362    -1.280807414089     1.007825032070
           H         -1.376244111254    -1.260148654632    -0.566356399904     1.007825032070

  Running in c1 symmetry.

  Rotational constants: A =      0.57031  B =      0.19069  C =      0.15123 [cm^-1]
  Rotational constants: A =  17097.57103  B =   5716.80121  C =   4533.90304 [MHz]
  Nuclear repulsion =  118.606921459589699

  Charge       = 0
  Multiplicity = 1
  Electrons    = 32
  Nalpha       = 16
  Nbeta        = 16

  ==> Algorithm <==

  SCF Algorithm Type is DF.
  DIIS enabled.
  MOM disabled.
  Fractional occupation disabled.
  Guess Type is READ.
  Energy threshold   = 1.00e-08
  Density threshold  = 1.00e-08
  Integral threshold = 0.00e+00

  ==> Primary Basis <==

  Basis Set: CC-PVTZ
    Number of shells: 76
    Number of basis function: 204
    Number of Cartesian functions: 230
    Spherical Harmonics?: true
    Max angular momentum: 3

  ==> Pre-Iterations <==

   -------------------------------------------------------
    Irrep   Nso     Nmo     Nalpha   Nbeta   Ndocc  Nsocc
   -------------------------------------------------------
     A        204     204       0       0       0       0
   -------------------------------------------------------
    Total     204     204      16      16      16       0
   -------------------------------------------------------

 OEINTS: Overlap, kinetic, potential, dipole, and quadrupole integrals
         stored in file 35.

  ==> Integral Setup <==

  ==> DFJK: Density-Fitted J/K Matrices <==

    J tasked:                  Yes
    K tasked:                  Yes
    wK tasked:                  No
    OpenMP threads:              4
    Integrals threads:           4
    Memory (MB):              1430
    Algorithm:                Core
    Integral Cache:           NONE
    Schwarz Cutoff:          1E-12
    Fitting Condition:       1E-12

   => Auxiliary Basis Set <=

  Basis Set: 
    Number of shells: 160
    Number of basis function: 496
    Number of Cartesian functions: 594
    Spherical Harmonics?: true
    Max angular momentum: 4

  Minimum eigenvalue in the overlap matrix is 5.8409798602E-04.
  Using Symmetric Orthogonalization.
  SCF Guess: Reading in previously saved MOs, projecting if necessary.

  Using orbitals from previous SCF, no projection.
  Recomputing DOCC and SOCC from number of alpha and beta electrons from previous calculation.
              A 
    DOCC [    16 ]

  ==> Iterations <==

                           Total Energy        Delta E     RMS |[F,P]|

   @DF-RHF iter   0:  -191.95403249703841   -1.91954e+02   5.89159e-04 
   @DF-RHF iter   1:  -191.93917591050192    1.48566e-02   1.22466e-04 
   @DF-RHF iter   2:  -191.93976643301087   -5.90523e-04   4.99351e-05 DIIS
   @DF-RHF iter   3:  -191.93986711861257   -1.00686e-04   2.20874e-05 DIIS
   @DF-RHF iter   4:  -191.93989405123634   -2.69326e-05   5.95108e-06 DIIS
   @DF-RHF iter   5:  -191.93989632254377   -2.27131e-06   2.69557e-06 DIIS
   @DF-RHF iter   6:  -191.93989672231433   -3.99771e-07   6.72100e-07 DIIS
   @DF-RHF iter   7:  -191.93989675593483   -3.36205e-08   2.03027e-07 DIIS
   @DF-RHF iter   8:  -191.93989675878501   -2.85019e-09   8.45752e-08 DIIS
   @DF-RHF iter   9:  -191.93989675923601   -4.50996e-10   3.34262e-08 DIIS
   @DF-RHF iter  10:  -191.93989675930558   -6.95763e-11   1.05937e-08 DIIS
   @DF-RHF iter  11:  -191.93989675931428   -8.69704e-12   4.70313e-09 DIIS

  ==> Post-Iterations <==

    Orbital Energies (a.u.)
    -----------------------

    Doubly Occupied:                                                      

       1A    -20.556553     2A    -11.286812     3A    -11.242123  
       4A    -11.218474     5A     -1.377648     6A     -1.058612  
       7A     -0.933300     8A     -0.774346     9A     -0.694123  
      10A     -0.652040    11A     -0.625194    12A     -0.576347  
      13A     -0.552514    14A     -0.497737    15A     -0.460638  
      16A     -0.322708  

    Virtual:                                                              

      17A      0.108707    18A      0.144662    19A      0.162624  
      20A      0.184537    21A      0.206065    22A      0.218148  
      23A      0.245641    24A      0.310281    25A      0.332440  
      26A      0.373988    27A      0.428968    28A      0.452448  
      29A      0.474144    30A      0.511110    31A      0.526829  
      32A      0.538399    33A      0.564184    34A      0.571951  
      35A      0.594907    36A      0.608125    37A      0.616888  
      38A      0.630526    39A      0.646842    40A      0.662788  
      41A      0.694280    42A      0.717792    43A      0.731527  
      44A      0.753313    45A      0.795854    46A      0.816328  
      47A      0.858108    48A      0.911923    49A      0.925914  
      50A      0.970868    51A      0.987282    52A      1.040778  
      53A      1.082990    54A      1.126541    55A      1.128074  
      56A      1.149402    57A      1.203921    58A      1.224117  
      59A      1.237750    60A      1.262473    61A      1.274462  
      62A      1.284814    63A      1.308356    64A      1.363751  
      65A      1.387525    66A      1.457180    67A      1.458496  
      68A      1.478953    69A      1.533765    70A      1.541174  
      71A      1.545525    72A      1.564323    73A      1.576369  
      74A      1.595621    75A      1.639004    76A      1.698023  
      77A      1.722321    78A      1.740679    79A      1.760367  
      80A      1.894482    81A      1.947051    82A      2.134299  
      83A      2.222516    84A      2.313282    85A      2.333528  
      86A      2.432251    87A      2.465053    88A      2.503808  
      89A      2.549442    90A      2.562304    91A      2.607564  
      92A      2.644176    93A      2.673656    94A      2.739428  
      95A      2.786449    96A      2.845790    97A      2.859410  
      98A      2.902822    99A      2.954385   100A      2.982975  
     101A      3.062259   102A      3.078887   103A      3.097241  
     104A      3.122899   105A      3.135772   106A      3.178310  
     107A      3.195409   108A      3.232048   109A      3.242455  
     110A      3.268872   111A      3.279951   112A      3.305770  
     113A      3.356973   114A      3.374337   115A      3.388795  
     116A      3.406917   117A      3.434236   118A      3.454166  
     119A      3.474333   120A      3.492998   121A      3.515329  
     122A      3.535562   123A      3.584469   124A      3.626356  
     125A      3.682834   126A      3.701984   127A      3.714478  
     128A      3.757328   129A      3.777516   130A      3.794067  
     131A      3.817316   132A      3.835627   133A      3.889301  
     134A      3.909512   135A      3.965231   136A      3.977933  
     137A      4.033226   138A      4.046117   139A      4.079230  
     140A      4.098199   141A      4.152388   142A      4.173325  
     143A      4.200005   144A      4.229953   145A      4.244017  
     146A      4.281400   147A      4.301689   148A      4.321411  
     149A      4.339908   150A      4.342984   151A      4.388155  
     152A      4.429901   153A      4.443831   154A      4.501395  
     155A      4.520316   156A      4.538680   157A      4.565035  
     158A      4.612846   159A      4.632862   160A      4.704323  
     161A      4.735592   162A      4.823772   163A      4.855266  
     164A      4.895498   165A      5.006532   166A      5.072057  
     167A      5.119649   168A      5.155007   169A      5.189732  
     170A      5.192800   171A      5.244324   172A      5.257387  
     173A      5.328294   174A      5.348128   175A      5.375604  
     176A      5.447559   177A      5.489940   178A      5.535143  
     179A      5.590409   180A      5.692303   181A      5.753489  
     182A      5.789659   183A      5.907962   184A      5.936951  
     185A      6.024965   186A      6.046872   187A      6.173143  
     188A      6.250016   189A      6.294053   190A      6.382233  
     191A      6.549748   192A      6.743864   193A      7.056255  
     194A      7.163593   195A      7.244990   196A      7.294211  
     197A      7.415490   198A      7.505819   199A      7.674167  
     200A      8.017866   201A     11.532067   202A     12.663432  
     203A     13.641112   204A     14.519063  

    Final Occupation by Irrep:
              A 
    DOCC [    16 ]

  Energy converged.

  @DF-RHF Final Energy:  -191.93989675931428

   => Energetics <=

    Nuclear Repulsion Energy =            118.6069214595896995
    One-Electron Energy =                -495.4352951419379565
    Two-Electron Energy =                 184.8884769230339202
    DFT Exchange-Correlation Energy =       0.0000000000000000
    Empirical Dispersion Energy =           0.0000000000000000
    PCM Polarization Energy =               0.0000000000000000
    EFP Energy =                            0.0000000000000000
    Total Energy =                       -191.9398967593143084

    Alert: EFP and PCM quantities not currently incorporated into SCF psivars.

Properties will be evaluated at   0.000000,   0.000000,   0.000000 Bohr
  ==> Properties <==


Properties computed using the SCF density matrix

  Nuclear Dipole Moment: (a.u.)
     X:     0.3523      Y:    -0.1880      Z:    -1.5538

  Electronic Dipole Moment: (a.u.)
     X:    -0.3943      Y:     0.5317      Z:     1.2736

  Dipole Moment: (a.u.)
     X:    -0.0420      Y:     0.3437      Z:    -0.2803     Total:     0.4455

  Dipole Moment: (Debye)
     X:    -0.1067      Y:     0.8736      Z:    -0.7124     Total:     1.1323


  Saving occupied orbitals to File 180.

*** tstop() called on cx1-27-3-1 at Fri Sep  9 21:43:29 2016
Module time:
	user time   =      11.97 seconds =       0.20 minutes
	system time =       0.16 seconds =       0.00 minutes
	total time  =          4 seconds =       0.07 minutes
Total time:
	user time   =      84.17 seconds =       1.40 minutes
	system time =       1.24 seconds =       0.02 minutes
	total time  =         25 seconds =       0.42 minutes

*** tstart() called on cx1-27-3-1
*** at Fri Sep  9 21:43:29 2016


         ------------------------------------------------------------
                                   SCF GRAD                          
                          Rob Parrish, Justin Turney,                
                       Andy Simmonett, and Alex Sokolov              
         ------------------------------------------------------------

  ==> Geometry <==

    Molecular point group: c1
    Full point group: C1

    Geometry (in Angstrom), charge = 0, multiplicity = 1:

       Center              X                  Y                   Z               Mass       
    ------------   -----------------  -----------------  -----------------  -----------------
           H         -1.179344845153     0.605313212075     1.239606661617     1.007825032070
           O         -0.280137426102     0.386068879646     1.399911620656    15.994914619560
           C          0.501971770870     0.744551724004     0.305516804952    12.000000000000
           C          0.269934286941    -0.053476903398    -0.952362207250    12.000000000000
           H          1.529875894643     0.530196062410     0.566663604106     1.007825032070
           H          0.440766493161     1.820088056343     0.130916616964     1.007825032070
           C         -0.430193528529    -1.188664905915    -1.079304142619    12.000000000000
           H          0.932659109549     0.243563056382    -1.754669465564     1.007825032070
           H          0.029559156772    -2.141485115362    -1.280807414089     1.007825032070
           H         -1.376244111254    -1.260148654632    -0.566356399904     1.007825032070

  Nuclear repulsion =  118.606921459589699

  ==> Basis Set <==

  Basis Set: CC-PVTZ
    Number of shells: 76
    Number of basis function: 204
    Number of Cartesian functions: 230
    Spherical Harmonics?: true
    Max angular momentum: 3

  ==> DFJKGrad: Density-Fitted SCF Gradients <==

    Gradient:                    1
    J tasked:                  Yes
    K tasked:                  Yes
    wK tasked:                  No
    OpenMP threads:              4
    Integrals threads:           4
    Memory (MB):              1430
    Schwarz Cutoff:          0E+00
    Fitting Condition:       1E-12

   => Auxiliary Basis Set <=

  Basis Set: 
    Number of shells: 160
    Number of basis function: 496
    Number of Cartesian functions: 594
    Spherical Harmonics?: true
    Max angular momentum: 4


  -Total Gradient:
     Atom            X                  Y                   Z
    ------   -----------------  -----------------  -----------------
       1        0.000352723441    -0.000334613310    -0.000193550967
       2       -0.000611084280     0.000409641644     0.000196570338
       3        0.027300513476    -0.020620205760     0.006443158478
       4       -0.010553041636     0.015696463418     0.012446571587
       5        0.000076901755     0.001464311674     0.000239112208
       6       -0.001310444045     0.000851543270    -0.000072321726
       7        0.003827250595    -0.012739786579    -0.033279730763
       8       -0.018080482023     0.013018222005    -0.009596090972
       9        0.008684792655    -0.005776871504     0.042759338592
      10       -0.009687129939     0.008031295141    -0.018943056772


*** tstop() called on cx1-27-3-1 at Fri Sep  9 21:43:35 2016
Module time:
	user time   =      22.82 seconds =       0.38 minutes
	system time =       0.29 seconds =       0.00 minutes
	total time  =          6 seconds =       0.10 minutes
Total time:
	user time   =     107.01 seconds =       1.78 minutes
	system time =       1.53 seconds =       0.03 minutes
	total time  =         31 seconds =       0.52 minutes
CURRENT ENERGY: -191.9398967593

			-----------------------------------------
			 OPTKING 2.0: for geometry optimizations 
			  - R.A. King,  Bethel University        
			-----------------------------------------

	Previous internal coordinate definitions found.
	---Fragment 1 Geometry and Gradient---
	 H          -2.2286387736        1.1438761954        2.3425171030
	 O          -0.5293830149        0.7295644510        2.6454495733
	 C           0.9485891734        1.4069988501        0.5773430904
	 C           0.5101018762       -0.1010567019       -1.7997037510
	 H           2.8910464582        1.0019253547        1.0708390212
	 H           0.8329279606        3.4394679642        0.2473965523
	 C          -0.8129479531       -2.2462511360       -2.0395892436
	 H           1.7624702924        0.4602674727       -3.3158447437
	 H           0.0558587110       -4.0468203857       -2.4203752416
	 H          -2.6007244623       -2.3813358440       -1.0702584894
	             0.0003527234       -0.0003346133       -0.0001935510
	            -0.0006110843        0.0004096416        0.0001965703
	             0.0273005135       -0.0206202058        0.0064431585
	            -0.0105530416        0.0156964634        0.0124465716
	             0.0000769018        0.0014643117        0.0002391122
	            -0.0013104440        0.0008515433       -0.0000723217
	             0.0038272506       -0.0127397866       -0.0332797308
	            -0.0180804820        0.0130182220       -0.0095960910
	             0.0086847927       -0.0057768715        0.0427593386
	            -0.0096871299        0.0080312951       -0.0189430568

	---Fragment 1 Intrafragment Coordinates---
	 - Coordinate -           - BOHR/RAD -       - ANG/DEG -
	 R(1,2)           =         1.775075	       0.939329
	 R(2,3)           =         2.630662	       1.392087
	 R(3,4)           =         2.849009	       1.507631
	 R(3,5)           =         2.044691	       1.082004
	 R(3,6)           =         2.062322	       1.091334
	 R(4,7)           =         2.531771	       1.339756
	 R(4,8)           =         2.045042	       1.082189
	 R(7,9)           =         2.035159	       1.076960
	 R(7,10)          =         2.038135	       1.078535
	 B(1,2,3)         =         1.921499	     110.093803
	 B(2,3,4)         =         2.018772	     115.667131
	 B(2,3,5)         =         1.868134	     107.036193
	 B(2,3,6)         =         1.926290	     110.368301
	 B(3,4,7)         =         2.224319	     127.444068
	 B(3,4,8)         =         1.959530	     112.272802
	 B(4,3,5)         =         1.815966	     104.047180
	 B(4,3,6)         =         1.960104	     112.305678
	 B(4,7,9)         =         2.146329	     122.975580
	 B(4,7,10)        =         2.059501	     118.000700
	 B(5,3,6)         =         1.862031	     106.686498
	 B(7,4,8)         =         2.074130	     118.838880
	 B(9,7,10)        =         1.987564	     113.879026
	 D(1,2,3,4)       =        -1.189506	     -68.153675
	 D(1,2,3,5)       =         3.079601	     176.448150
	 D(1,2,3,6)       =         1.059759	      60.719713
	 D(2,3,4,7)       =        -0.204806	     -11.734542
	 D(2,3,4,8)       =        -3.101485	    -177.701982
	*D(3,4,7,9)       =        -1.919862	    -110.000013
	 D(3,4,7,10)      =         0.751584	      43.062574
	 D(5,3,4,7)       =         1.838707	     105.350175
	 D(5,3,4,8)       =        -1.057971	     -60.617265
	 D(6,3,4,7)       =        -2.437403	    -139.652885
	 D(6,3,4,8)       =         0.949104	      54.379675
	 D(8,4,7,9)       =         0.962693	      55.158242
	 D(8,4,7,10)      =        -2.649046	    -151.779172

	Current energy   :      -191.9398967593

	Energy change for the previous step:
		Projected    :        -0.0154084275
		Actual       :        -0.0211783136
	Energy ratio indicates good step: Trust radius increased to 1.000e+00.


	Performing BFGS update.
	Previous computed or guess Hessian on step 1.
	Change in internal coordinate of 7.42e-01 exceeds limit of 5.00e-01.
	 Skipping Hessian update for step 1.
	Steps to be used in Hessian update: 2
	Taking RFO optimization step.
	Going to follow RFO solution 1.
	Using RFO vector 1.
	Norm of target step-size    0.62154
	Projected energy change by RFO approximation:        -0.0214771271

	Back-transformation to cartesian coordinates...
	Successfully converged to displaced geometry.

	Back-transformation to cartesian coordinates to adjust frozen coordinates...
	Successfully converged to displaced geometry.

	--- Internal Coordinate Step in ANG or DEG, aJ/ANG or AJ/DEG ---
	 ---------------------------------------------------------------------------
	   Coordinate                Previous        Force       Change         New 
	   ----------                --------       ------       ------       ------
	    1 R(1,2)          =      0.939329     0.003153     0.000698     0.940028
	    2 R(2,3)          =      1.392087    -0.001056    -0.000677     1.391409
	    3 R(3,4)          =      1.507631     0.001315     0.000095     1.507726
	    4 R(3,5)          =      1.082004     0.001313     0.000666     1.082670
	    5 R(3,6)          =      1.091334    -0.007615    -0.003407     1.087927
	    6 R(4,7)          =      1.339756    -0.068421    -0.017582     1.322174
	    7 R(4,8)          =      1.082189     0.003170     0.000433     1.082622
	    8 R(7,9)          =      1.076960    -0.006740    -0.002900     1.074060
	    9 R(7,10)         =      1.078535     0.008604     0.002587     1.081122
	   10 B(1,2,3)        =    110.093803     0.000019     0.106189   110.199992
	   11 B(2,3,4)        =    115.667131     0.000047     0.287047   115.954179
	   12 B(2,3,5)        =    107.036193    -0.000001     0.049418   107.085611
	   13 B(2,3,6)        =    110.368301     0.000011     0.158937   110.527238
	   14 B(3,4,7)        =    127.444068     0.000260     1.017467   128.461535
	   15 B(3,4,8)        =    112.272802    -0.000217    -2.182915   110.089887
	   16 B(4,3,5)        =    104.047180    -0.000123    -0.491268   103.555913
	   17 B(4,3,6)        =    112.305678     0.000034    -0.224004   112.081674
	   18 B(4,7,9)        =    122.975580     0.000416     2.922249   125.897829
	   19 B(4,7,10)       =    118.000700    -0.000447    -5.010085   112.990615
	   20 B(5,3,6)        =    106.686498     0.000019     0.189651   106.876148
	   21 B(7,4,8)        =    118.838880    -0.000171    -2.057512   116.781368
	   22 B(9,7,10)       =    113.879026    -0.000387    -4.186909   109.692118
	   23 D(1,2,3,4)      =    -68.153675    -0.000020    -1.065640   -69.219315
	   24 D(1,2,3,5)      =    176.448150     0.000009    -0.649228   175.798922
	   25 D(1,2,3,6)      =     60.719713     0.000002    -0.985397    59.734317
	   26 D(2,3,4,7)      =    -11.734542    -0.000074    -7.023752   -18.758294
	   27 D(2,3,4,8)      =   -177.701982     0.000074     4.354642  -173.347340
	   28 *D(3,4,7,9)     =   -110.000013     0.000000    -0.000000  -110.000013
	   29 D(3,4,7,10)     =     43.062574    -0.000262   -13.689049    29.373525
	   30 D(5,3,4,7)      =    105.350175    -0.000088    -7.141402    98.208773
	   31 D(5,3,4,8)      =    -60.617265     0.000060     4.236992   -56.380273
	   32 D(6,3,4,7)      =   -139.652885    -0.000095    -7.298927  -146.951812
	   33 D(6,3,4,8)      =     54.379675     0.000053     4.079467    58.459142
	   34 D(8,4,7,9)      =     55.158242    -0.000157   -11.993186    43.165056
	   35 D(8,4,7,10)     =   -151.779172    -0.000419   -25.682235  -177.461406
	 ---------------------------------------------------------------------------

  ==> Convergence Check <==

  Measures of convergence in internal coordinates in au.
  Criteria marked as inactive (o), active & met (*), and active & unmet ( ).
  ---------------------------------------------------------------------------------------------
   Step     Total Energy     Delta E     MAX Force     RMS Force      MAX Disp      RMS Disp   
  ---------------------------------------------------------------------------------------------
    Convergence Criteria    1.00e-06 *    3.00e-04 *             o    1.20e-03 *             o
  ---------------------------------------------------------------------------------------------
      3    -191.93989676   -2.12e-02      2.40e-02      5.82e-03 o    4.48e-01      1.05e-01 o  ~
  ---------------------------------------------------------------------------------------------

	Writing optimization data to binary file.
	Structure for next step:
	Cartesian Geometry (in Angstrom)
	    H    -1.2151349782   0.6976825813   1.2301340566
	    O    -0.3338965661   0.4087961463   1.3838092730
	    C     0.4747712724   0.7355309619   0.2996875029
	    C     0.2091367118  -0.0252482722  -0.9746323818
	    H     1.4861526652   0.4497617635   0.5597221792
	    H     0.4818682049   1.8116028924   0.1396762821
	    C    -0.4344046686  -1.1697068020  -1.1302397043
	    H     0.9605066821   0.2165609416  -1.7156061397
	    H     0.0090393902  -2.1098676123  -1.4005355896
	    H    -1.1991918793  -1.3291072128  -0.3828999516
			--------------------------
			 OPTKING Finished Execution 
			--------------------------

    Structure for next step:
    Molecular point group: c1
    Full point group: C1

    Geometry (in Angstrom), charge = 0, multiplicity = 1:

    H           -1.183790739385     0.684586075045     1.249259715543
    O           -0.302552394619     0.395699662152     1.402934920274
    C            0.506115382175     0.722434452752     0.318813232918
    C            0.240480841821    -0.038344723273    -0.955506554515
    H            1.517496697694     0.436665276174     0.578847889380
    H            0.513212314135     1.798506301116     0.158802024350
    C           -0.403060489404    -1.182803165629    -1.111113865079
    H            0.991850754772     0.203464472075    -1.696480255743
    H            0.040383535498    -2.122963904171    -1.381409729703
    H           -1.167847641762    -1.342203564271    -0.363774169478

gradient() will perform analytic gradient computation.

*** tstart() called on cx1-27-3-1
*** at Fri Sep  9 21:43:35 2016


         ---------------------------------------------------------
                                   SCF
            by Justin Turney, Rob Parrish, and Andy Simmonett
                              RHF Reference
                        4 Threads,   2000 MiB Core
         ---------------------------------------------------------

  ==> Geometry <==

    Molecular point group: c1
    Full point group: C1

    Geometry (in Angstrom), charge = 0, multiplicity = 1:

       Center              X                  Y                   Z               Mass       
    ------------   -----------------  -----------------  -----------------  -----------------
[...]
    Number of shells: 160
    Number of basis function: 496
    Number of Cartesian functions: 594
    Spherical Harmonics?: true
    Max angular momentum: 4


  -Total Gradient:
     Atom            X                  Y                   Z
    ------   -----------------  -----------------  -----------------
       1        0.001382459400    -0.000211487435    -0.000560068651
       2       -0.002130989481     0.000374853841     0.002385898705
       3        0.028551289585    -0.012517777334     0.001882540658
       4       -0.040380327366     0.022752805050     0.014238855880
       5       -0.000195702106    -0.000350369551    -0.000817032184
       6       -0.000924692497    -0.001700951496     0.000420214370
       7        0.004630742268    -0.000052266774    -0.056410348680
       8       -0.000211129411    -0.000169821721    -0.000245157291
       9        0.008377124579    -0.008897592763     0.040194775905
      10        0.000901225029     0.000772608184    -0.001089678709


*** tstop() called on cx1-27-3-1 at Fri Sep  9 21:51:35 2016
Module time:
	user time   =      23.81 seconds =       0.40 minutes
	system time =       0.31 seconds =       0.01 minutes
	total time  =          7 seconds =       0.12 minutes
Total time:
	user time   =    1743.12 seconds =      29.05 minutes
	system time =      24.02 seconds =       0.40 minutes
	total time  =        511 seconds =       8.52 minutes
CURRENT ENERGY: -191.9535688894

			-----------------------------------------
			 OPTKING 2.0: for geometry optimizations 
			  - R.A. King,  Bethel University        
			-----------------------------------------

	Previous internal coordinate definitions found.
	---Fragment 1 Geometry and Gradient---
	 H          -2.1901700060        1.4865071026        2.3970954175
	 O          -0.5869595628        0.7746555454        2.6656618660
	 C           0.9781857062        1.3309602855        0.6166888171
	 C           0.3935663239       -0.0403914560       -1.8221139344
	 H           2.8497437049        0.6650246291        1.0938879425
	 H           1.0988274213        3.3578789598        0.3356490370
	 C          -0.7317326138       -2.2578949957       -2.1144267202
	 H           1.8541200112        0.4076101211       -3.1882189585
	 H           0.1758196583       -3.9593163085       -2.7450358198
	 H          -2.0934681268       -2.7342632207       -0.6704587701
	             0.0013824594       -0.0002114874       -0.0005600687
	            -0.0021309895        0.0003748538        0.0023858987
	             0.0285512896       -0.0125177773        0.0018825407
	            -0.0403803274        0.0227528050        0.0142388559
	            -0.0001957021       -0.0003503696       -0.0008170322
	            -0.0009246925       -0.0017009515        0.0004202144
	             0.0046307423       -0.0000522668       -0.0564103487
	            -0.0002111294       -0.0001698217       -0.0002451573
	             0.0083771246       -0.0088975928        0.0401947759
	             0.0009012250        0.0007726082       -0.0010896787

	---Fragment 1 Intrafragment Coordinates---
	 - Coordinate -           - BOHR/RAD -       - ANG/DEG -
	 R(1,2)           =         1.774583	       0.939069
	 R(2,3)           =         2.637697	       1.395809
	 R(3,4)           =         2.858346	       1.512572
	 R(3,5)           =         2.043017	       1.081118
	 R(3,6)           =         2.049863	       1.084741
	 R(4,7)           =         2.503810	       1.324959
	 R(4,8)           =         2.049431	       1.084512
	 R(7,9)           =         2.028831	       1.073611
	 R(7,10)          =         2.041150	       1.080130
	 B(1,2,3)         =         1.911244	     109.506212
	 B(2,3,4)         =         2.026658	     116.118934
	 B(2,3,5)         =         1.868566	     107.060922
	 B(2,3,6)         =         1.928334	     110.485374
	 B(3,4,7)         =         2.235015	     128.056939
	 B(3,4,8)         =         1.894521	     108.548068
	 B(4,3,5)         =         1.803154	     103.313122
	 B(4,3,6)         =         1.949224	     111.682326
	 B(4,7,9)         =         2.187035	     125.307879
	 B(4,7,10)        =         2.008589	     115.083678
	 B(5,3,6)         =         1.875927	     107.482704
	 B(7,4,8)         =         2.022030	     115.853789
	 B(9,7,10)        =         1.899268	     108.820062
	 D(1,2,3,4)       =        -1.248034	     -71.507109
	 D(1,2,3,5)       =         3.032298	     173.737891
	 D(1,2,3,6)       =         0.994608	      56.986864
	 D(2,3,4,7)       =        -0.457885	     -26.234873
	 D(2,3,4,8)       =        -3.038702	    -174.104789
	*D(3,4,7,9)       =        -1.919862	    -110.000013
	 D(3,4,7,10)      =         0.526641	      30.174286
	 D(5,3,4,7)       =         1.581695	      90.624446
	 D(5,3,4,8)       =        -0.999122	     -57.245470
	 D(6,3,4,7)       =        -2.690293	    -154.142411
	 D(6,3,4,8)       =         1.012076	      57.987672
	 D(8,4,7,9)       =         0.626984	      35.923565
	 D(8,4,7,10)      =         3.073488	     176.097864

	Current energy   :      -191.9535688894

	Energy change for the previous step:
		Projected    :        -0.0009174133
		Actual       :        -0.0004186934

	Performing BFGS update.
	Previous computed or guess Hessian on step 1.
	Steps to be used in Hessian update: 49 48
	Taking RFO optimization step.
	Going to follow RFO solution 1.
	Rejecting RFO root 1 because normalization gives large value.
	Rejecting RFO root 2 because normalization gives large value.
	Rejecting RFO root 3 because normalization gives large value.
	Rejecting RFO root 4 because normalization gives large value.
	Rejecting RFO root 5 because normalization gives large value.
	Using RFO vector 6.

	Determining step-restricting scale parameter for RS-RFO.
	Maximum step size allowed    0.05933

	 Iter      |step|        alpha        rfo_root  
	------------------------------------------------
	    0   150.18384       1.00000           6
	    1    75.10829       1.99965           6
	    2    37.57052       3.99788           6
	    3    18.80164       7.99009           6
	    4     9.41721      15.95759           6
	    5     4.72501      31.82501           6
	    6     2.37895      63.29136           6
	    7     1.20598     125.16388           6
	    8     0.61964     244.77648           6
	    9     0.32675     468.30448           6
	   10     0.18088     858.72736           6
	   11     0.10911    1455.07704           6
	   12     0.07547    2155.28610           6
	   13     0.06234    2652.29019           6
	   14     0.05948    2792.52730           6
	   15     0.05933    2800.28828           6
	------------------------------------------------
	Norm of target step-size    0.05933
	Projected energy change by RFO approximation:         0.0000439468

	Back-transformation to cartesian coordinates...
	Successfully converged to displaced geometry.

	Back-transformation to cartesian coordinates to adjust frozen coordinates...
	Successfully converged to displaced geometry.

	--- Internal Coordinate Step in ANG or DEG, aJ/ANG or AJ/DEG ---
	 ---------------------------------------------------------------------------
	   Coordinate                Previous        Force       Change         New 
	   ----------                --------       ------       ------       ------
	    1 R(1,2)          =      0.939069     0.010291     0.000848     0.939917
	    2 R(2,3)          =      1.395809    -0.015061    -0.009533     1.386277
	    3 R(3,4)          =      1.512572    -0.011299    -0.001255     1.511317
	    4 R(3,5)          =      1.081118     0.002108    -0.007048     1.074070
	    5 R(3,6)          =      1.084741     0.014780     0.002770     1.087511
	    6 R(4,7)          =      1.324959    -0.024809    -0.001102     1.323857
	    7 R(4,8)          =      1.084512     0.000199    -0.001297     1.083215
	    8 R(7,9)          =      1.073611     0.010582     0.003794     1.077405
	    9 R(7,10)         =      1.080130     0.012790    -0.010975     1.069155
	   10 B(1,2,3)        =    109.506212     0.000114     0.769757   110.275968
	   11 B(2,3,4)        =    116.118934    -0.000094    -0.440327   115.678607
	   12 B(2,3,5)        =    107.060922    -0.000033     0.704154   107.765076
	   13 B(2,3,6)        =    110.485374     0.000070    -0.662060   109.823314
	   14 B(3,4,7)        =    128.056939     0.000151    -0.050456   128.006483
	   15 B(3,4,8)        =    108.548068    -0.000088     0.148898   108.696966
	   16 B(4,3,5)        =    103.313122     0.000080    -0.842982   102.470141
	   17 B(4,3,6)        =    111.682326     0.000017     1.391818   113.074144
	   18 B(4,7,9)        =    125.307879    -0.000041     0.064787   125.372665
	   19 B(4,7,10)       =    115.083678     0.000042     0.027186   115.110864
	   20 B(5,3,6)        =    107.482704    -0.000042    -0.160390   107.322314
	   21 B(7,4,8)        =    115.853789    -0.000043    -0.094015   115.759774
	   22 B(9,7,10)       =    108.820062    -0.000012    -0.117386   108.702676
	   23 D(1,2,3,4)      =    -71.507109     0.000001    -1.621734   -73.128843
	   24 D(1,2,3,5)      =    173.737891    -0.000005    -0.797815   172.940075
	   25 D(1,2,3,6)      =     56.986864     0.000003    -0.652314    56.334550
	   26 D(2,3,4,7)      =    -26.234873     0.000005    -0.099801   -26.334674
	   27 D(2,3,4,8)      =   -174.104789     0.000003    -0.090664  -174.195453
	   28 *D(3,4,7,9)     =   -110.000013     0.000000    -0.000000  -110.000013
	   29 D(3,4,7,10)     =     30.174286    -0.000004    -0.087058    30.087227
	   30 D(5,3,4,7)      =     90.624446    -0.000003    -0.018940    90.605506
	   31 D(5,3,4,8)      =    -57.245470    -0.000005    -0.009802   -57.255272
	   32 D(6,3,4,7)      =   -154.142411    -0.000002    -0.059165  -154.201576
	   33 D(6,3,4,8)      =     57.987672    -0.000004    -0.050027    57.937645
	   34 D(8,4,7,9)      =     35.923565     0.000001     0.054797    35.978362
	   35 D(8,4,7,10)     =    176.097864    -0.000003    -0.032262   176.065602
	 ---------------------------------------------------------------------------

  ==> Convergence Check <==

  Measures of convergence in internal coordinates in au.
  Criteria marked as inactive (o), active & met (*), and active & unmet ( ).
  ---------------------------------------------------------------------------------------------
   Step     Total Energy     Delta E     MAX Force     RMS Force      MAX Disp      RMS Disp   
  ---------------------------------------------------------------------------------------------
    Convergence Criteria    1.00e-06 *    3.00e-04 *             o    1.20e-03 *             o
  ---------------------------------------------------------------------------------------------
     50    -191.95356889   -4.19e-04      3.01e-03      1.02e-03 o    2.83e-02      1.00e-02 o  ~
  ---------------------------------------------------------------------------------------------


  **** Optimization has failed! (in 50 steps) ****

  ==> Optimization Summary <==

  Measures of convergence in internal coordinates in au.
  --------------------------------------------------------------------------------------------------------------- ~
   Step         Total Energy             Delta E       MAX Force       RMS Force        MAX Disp        RMS Disp  ~
  --------------------------------------------------------------------------------------------------------------- ~
      1    -191.887508816511   -191.887508816511      0.05320820      0.01525654      0.36900817      0.08440185  ~
      2    -191.918718445704     -0.031209629193      0.03712083      0.00878811      0.37255473      0.08441730  ~
      3    -191.939896759314     -0.021178313610      0.02398675      0.00581964      0.44823956      0.10497313  ~
      4    -191.952578054732     -0.012681295417      0.00482695      0.00180164      0.14568460      0.05144115  ~
      5    -191.953477166301     -0.000899111569      0.00383932      0.00109392      0.04596301      0.01821661  ~
      6    -191.953590496853     -0.000113330552      0.00115244      0.00042344      0.04231202      0.01295915  ~
      7    -191.953579792542      0.000010704311      0.00145401      0.00048119      0.02615361      0.01191719  ~
      8    -191.953615122602     -0.000035330059      0.00099413      0.00034506      0.56991497      0.16884918  ~
      9    -191.908106101205      0.045509021397      0.08319110      0.02614074      0.25723309      0.07649230  ~
     10    -191.941243469782     -0.033137368577      0.02409492      0.00691729      0.34771174      0.08521872  ~
     11    -191.952578752427     -0.011335282645      0.00705559      0.00177430      0.14616747      0.03729641  ~
     12    -191.953585732337     -0.001006979910      0.00223288      0.00067442      0.05558073      0.02224119  ~
     13    -191.953622700732     -0.000036968395      0.00094287      0.00029411      0.02599024      0.01035826  ~
     14    -191.953637403150     -0.000014702418      0.00022081      0.00010506      0.10834274      0.04225623  ~
     15    -191.953059205734      0.000578197416      0.00627274      0.00184114      0.08888590      0.03461653  ~
     16    -191.953628714326     -0.000569508592      0.00082639      0.00019781      0.01525264      0.00693482  ~
     17    -191.953631792634     -0.000003078308      0.00082654      0.00024608      0.00224282      0.00077291  ~
     18    -191.953631682140      0.000000110494      0.00091031      0.00021850      0.00130708      0.00055370  ~
     19    -191.953631076190      0.000000605950      0.00100117      0.00022538      0.10058292      0.03169181  ~
     20    -191.950442372555      0.003188703636      0.02669301      0.00746010      0.10339699      0.03169300  ~
     21    -191.951543517049     -0.001101144494      0.01642419      0.00437929      0.02818944      0.00792337  ~
     22    -191.952529329274     -0.000985812225      0.01171242      0.00308263      0.03013027      0.00792357  ~
     23    -191.953169720250     -0.000640390977      0.00692601      0.00199595      0.06368527      0.02376569  ~
     24    -191.952955857687      0.000213862563      0.01006985      0.00291613      0.05921094      0.02376719  ~
     25    -191.953030873680     -0.000075015992      0.01698110      0.00336884      0.01700953      0.00594368  ~
     26    -191.953369171677     -0.000338297997      0.01289074      0.00241044      0.01747189      0.00594247  ~
     27    -191.953509519670     -0.000140347993      0.00911637      0.00173716      0.01590119      0.00525228  ~
     28    -191.953510750456     -0.000001230785      0.00828614      0.00165820      0.00283872      0.00107257  ~
     29    -191.953505244658      0.000005505798      0.00813237      0.00164951      0.00357493      0.00148566  ~
     30    -191.953507169280     -0.000001924622      0.00879041      0.00176169      0.00137821      0.00037141  ~
     31    -191.953508879153     -0.000001709873      0.00925418      0.00178689      0.00091855      0.00037141  ~
     32    -191.953509498570     -0.000000619417      0.00919809      0.00177203      0.00093330      0.00037141  ~
     33    -191.953510000560     -0.000000501991      0.00928987      0.00178022      0.00123725      0.00037141  ~
     34    -191.953494745479      0.000015255082      0.01009559      0.00192100      0.00101968      0.00037141  ~
     35    -191.953496623236     -0.000001877757      0.00999824      0.00190266      0.00285502      0.00111422  ~
     36    -191.953500962065     -0.000004338829      0.01008161      0.00190534      0.00317127      0.00111422  ~
     37    -191.953509070658     -0.000008108594      0.00865998      0.00176672      0.00264618      0.00111445  ~
     38    -191.953537956999     -0.000028886341      0.00690383      0.00146753      0.00576090      0.00220640  ~
     39    -191.953562659110     -0.000024702111      0.00329329      0.00106342      0.00553784      0.00153593  ~
     40    -191.953568396717     -0.000005737606      0.00345380      0.00102152      0.00687759      0.00179170  ~
     41    -191.953566285517      0.000002111200      0.00371532      0.00103338      0.00787210      0.00230459  ~
     42    -191.953564184242      0.000002101274      0.00343359      0.00103412      0.00807054      0.00334262  ~
     43    -191.953542561027      0.000021623215      0.00319333      0.00123233      0.00585690      0.00239557  ~
     44    -191.953569734174     -0.000027173147      0.00252554      0.00099495      0.00342262      0.00095389  ~
     45    -191.953568174310      0.000001559865      0.00275991      0.00101911      0.00706597      0.00316671  ~
     46    -191.953549197251      0.000018977059      0.00288179      0.00108887      0.00586421      0.00271165  ~
     47    -191.953569600902     -0.000020403651      0.00247378      0.00100135      0.00418017      0.00108481  ~
     48    -191.953567896798      0.000001704104      0.00253007      0.00102305      0.02686519      0.01002777  ~
     49    -191.953150195993      0.000417700805      0.01313217      0.00315855      0.02612249      0.01002784  ~
     50    -191.953568889431     -0.000418693438      0.00301130      0.00101615      0.02830460      0.01002791  ~
  --------------------------------------------------------------------------------------------------------------- ~

	Writing optimization data to binary file.
			--------------------------
			 OPTKING Finished Execution 
			--------------------------

    Structure for next step:
    Molecular point group: c1
    Full point group: C1

    Geometry (in Angstrom), charge = 0, multiplicity = 1:

    H           -1.157369521179     0.799967600671     1.275451090438
    O           -0.312049774491     0.408067114075     1.399114365035
    C            0.516696968525     0.705617225536     0.328411245350
    C            0.208267722952    -0.021266311487    -0.960227256676
    H            1.501038559157     0.347894087963     0.566596825137
    H            0.585371283157     1.783767563024     0.203691534179
    C           -0.385246712760    -1.194822181888    -1.112231110529
    H            0.978535081975     0.214053980525    -1.684565684422
    H            0.096644221926    -2.098927494430    -1.445663268557
    H           -1.096727028276    -1.444983031012    -0.354400485924

	Optimizer: Did not converge!	Cleaning optimization helper files.


Properties will be evaluated at   0.000000,   0.000000,   0.000000 Bohr

Properties computed using the  density matrix

  Nuclear Dipole Moment: (a.u.)
     X:     0.8492      Y:    -0.3714      Z:    -1.3422

  Electronic Dipole Moment: (a.u.)
     X:    -0.7451      Y:     0.7186      Z:     1.1615

  Dipole Moment: (a.u.)
     X:     0.1041      Y:     0.3473      Z:    -0.1807     Total:     0.4051

  Dipole Moment: (Debye)
     X:     0.2646      Y:     0.8827      Z:    -0.4592     Total:     1.0295

  Quadrupole Moment: (Debye Ang)
    XX:   -22.9871     YY:   -22.8532     ZZ:   -32.1302
    XY:    -1.3323     XZ:    -2.5685     YZ:     0.3489

  Traceless Quadrupole Moment: (Debye Ang)
    XX:     3.0031     YY:     3.1370     ZZ:    -6.1401
    XY:    -1.3323     XZ:    -2.5685     YZ:     0.3489

  Mulliken Charges: (a.u.)
   Center  Symbol    Alpha    Beta     Spin     Total
       1     H     0.39133  0.39133  0.00000  0.21734
       2     O     4.19580  4.19580  0.00000 -0.39160
       3     C     2.95539  2.95539  0.00000  0.08921
       4     C     3.08732  3.08732  0.00000 -0.17465
       5     H     0.44699  0.44699  0.00000  0.10602
       6     H     0.46133  0.46133  0.00000  0.07733
       7     C     3.16190  3.16190  0.00000 -0.32381
       8     H     0.43571  0.43571  0.00000  0.12859
       9     H     0.42097  0.42097  0.00000  0.15806
      10     H     0.44325  0.44325  0.00000  0.11350

   Total alpha = 16.00000, Total beta = 16.00000, Total charge =  0.00000


*** PSI4 exiting successfully. Buy a developer a beer!
