    -----------------------------------------------------------------------
          Psi4: An Open-Source Ab Initio Electronic Structure Package
                              Psi4 (no tag) Driver

                          Git: Rev {detached?}  

    J. M. Turney, A. C. Simmonett, R. M. Parrish, E. G. Hohenstein,
    F. A. Evangelista, J. T. Fermann, B. J. Mintz, L. A. Burns, J. J. Wilke,
    M. L. Abrams, N. J. Russ, M. L. Leininger, C. L. Janssen, E. T. Seidl,
    W. D. Allen, H. F. Schaefer, R. A. King, E. F. Valeev, C. D. Sherrill,
    and T. D. Crawford, WIREs Comput. Mol. Sci. 2, 556-565 (2012)
    (doi: 10.1002/wcms.93)

                         Additional Contributions by
    A. E. DePrince, M. Saitow, U. Bozkaya, A. Yu. Sokolov
    -----------------------------------------------------------------------


    Psi4 started on: Thu Sep  1 22:20:36 2016

    Process ID:  16899
    PSI4DATADIR: /export131/home/mjharvey/miniconda3/share
    Memory level set to 256.000 MB

  ==> Input File <==

--------------------------------------------------------------------------
set {
	reference rhf
	basis 6-31G*
}


set_num_threads( 1 )
memory 2 gb

molecule MOL {
0 1

O	 -2.042549	 -1.228399	 -0.269030
C	 -1.653912	 -0.146171	 0.050137
C	 -0.332303	 0.024011	 0.778412
C	 -2.438579	 1.106236	 -0.272369
C	 0.845713	 -0.001731	 -0.208243
H	 -0.323783	 0.953829	 1.340327
H	 -0.235459	 -0.796807	 1.480410
C	 2.032183	 -0.814345	 0.312312
H	 1.172340	 1.015326	 -0.417987
H	 0.499682	 -0.417771	 -1.149685
C	 3.201674	 -0.849095	 -0.670689
H	 2.367784	 -0.398064	 1.259681
H	 1.705470	 -1.830103	 0.522220
H	 3.573210	 0.151113	 -0.874642
H	 2.904479	 -1.290654	 -1.617338
H	 4.026642	 -1.434196	 -0.276848
H	 -3.277823	 0.863061	 -0.908988
H	 -1.806773	 1.843019	 -0.759671
H	 -2.802853	 1.554979	 0.648059

	symmetry c1
}
set optking {
	frozen_dihedral = ("
		11 8 5 9,
		5 3 2 4
	")
}

ee = energy('scf')
oeprop('DIPOLE', 'QUADRUPOLE', 'MULLIKEN_CHARGES')
f=open( 'psi4out.xyz', 'w' )
f.write( "19  " )
f.write( str(ee) + "\n" )
f.write( MOL.save_string_xyz() )
f.close()
--------------------------------------------------------------------------

  Memory set to   2.000 GiB by Python script.

*** tstart() called on cx1-3-14-1.cx1.hpc.ic.ac.uk
*** at Thu Sep  1 22:20:36 2016


         ---------------------------------------------------------
                                   SCF
            by Justin Turney, Rob Parrish, and Andy Simmonett
                              RHF Reference
                        1 Threads,   2000 MiB Core
         ---------------------------------------------------------

  ==> Geometry <==

    Molecular point group: c1
    Full point group: C1

    Geometry (in Angstrom), charge = 0, multiplicity = 1:

       Center              X                  Y                   Z               Mass       
    ------------   -----------------  -----------------  -----------------  -----------------
           O         -1.993101808592    -0.952585237365    -0.217188467365    15.994914619560
           C         -1.604464808592     0.129642762635     0.101978532635    12.000000000000
           C         -0.282855808592     0.299824762635     0.830253532635    12.000000000000
           C         -2.389131808592     1.382049762635    -0.220527467365    12.000000000000
           C          0.895160191408     0.274082762635    -0.156401467365    12.000000000000
           H         -0.274335808592     1.229642762635     1.392168532635     1.007825032070
           H         -0.186011808592    -0.520993237365     1.532251532635     1.007825032070
           C          2.081630191408    -0.538531237365     0.364153532635    12.000000000000
           H          1.221787191408     1.291139762635    -0.366145467365     1.007825032070
           H          0.549129191408    -0.141957237365    -1.097843467365     1.007825032070
           C          3.251121191408    -0.573281237365    -0.618847467365    12.000000000000
           H          2.417231191408    -0.122250237365     1.311522532635     1.007825032070
           H          1.754917191408    -1.554289237365     0.574061532635     1.007825032070
           H          3.622657191408     0.426926762635    -0.822800467365     1.007825032070
           H          2.953926191408    -1.014840237365    -1.565496467365     1.007825032070
           H          4.076089191408    -1.158382237365    -0.225006467365     1.007825032070
           H         -3.228375808592     1.138874762635    -0.857146467365     1.007825032070
           H         -1.757325808592     2.118832762635    -0.707829467365     1.007825032070
           H         -2.753405808592     1.830792762635     0.699900532635     1.007825032070

  Running in c1 symmetry.

  Rotational constants: A =      0.20701  B =      0.03634  C =      0.03450 [cm^-1]
  Rotational constants: A =   6205.87745  B =   1089.51475  C =   1034.38589 [MHz]
  Nuclear repulsion =  302.287671097814894

  Charge       = 0
  Multiplicity = 1
  Electrons    = 56
  Nalpha       = 28
  Nbeta        = 28

  ==> Algorithm <==

  SCF Algorithm Type is DF.
  DIIS enabled.
  MOM disabled.
  Fractional occupation disabled.
  Guess Type is CORE.
  Energy threshold   = 1.00e-06
  Density threshold  = 1.00e-06
  Integral threshold = 0.00e+00

  ==> Primary Basis <==

  Basis Set: 6-31G*
    Number of shells: 66
    Number of basis function: 129
    Number of Cartesian functions: 129
    Spherical Harmonics?: false
    Max angular momentum: 2

  ==> Pre-Iterations <==

   -------------------------------------------------------
    Irrep   Nso     Nmo     Nalpha   Nbeta   Ndocc  Nsocc
   -------------------------------------------------------
     A        129     129       0       0       0       0
   -------------------------------------------------------
    Total     129     129      28      28      28       0
   -------------------------------------------------------

 OEINTS: Overlap, kinetic, potential, dipole, and quadrupole integrals
         stored in file 35.

  ==> Integral Setup <==

  ==> DFJK: Density-Fitted J/K Matrices <==

    J tasked:                  Yes
    K tasked:                  Yes
    wK tasked:                  No
    OpenMP threads:              1
    Integrals threads:           1
    Memory (MB):              1430
    Algorithm:                Core
    Integral Cache:           NONE
    Schwarz Cutoff:          1E-12
    Fitting Condition:       1E-12

   => Auxiliary Basis Set <=

  Basis Set: 
    Number of shells: 276
    Number of basis function: 867
    Number of Cartesian functions: 867
    Spherical Harmonics?: false
    Max angular momentum: 3

  Minimum eigenvalue in the overlap matrix is 3.4474865722E-03.
  Using Symmetric Orthogonalization.
  SCF Guess: Core (One-Electron) Hamiltonian.

  ==> Iterations <==

                           Total Energy        Delta E     RMS |[F,P]|

   @DF-RHF iter   1:  -233.69755201985839   -2.33698e+02   7.02016e-02 
   @DF-RHF iter   2:  -183.33040330642046    5.03671e+01   6.21036e-02 DIIS
   @DF-RHF iter   3:  -273.61860503834697   -9.02882e+01   4.00344e-02 DIIS
   @DF-RHF iter   4:  -244.38043930875284    2.92382e+01   6.11245e-02 DIIS
   @DF-RHF iter   5:  -305.76175552451679   -6.13813e+01   1.38252e-02 DIIS
   @DF-RHF iter   6:  -308.72741721183337   -2.96566e+00   6.37616e-03 DIIS
   @DF-RHF iter   7:  -309.04184533370739   -3.14428e-01   1.43834e-03 DIIS
   @DF-RHF iter   8:  -309.05661384394313   -1.47685e-02   6.44109e-04 DIIS
   @DF-RHF iter   9:  -309.05963061140125   -3.01677e-03   3.13542e-04 DIIS
   @DF-RHF iter  10:  -309.06049892642994   -8.68315e-04   9.75888e-05 DIIS
   @DF-RHF iter  11:  -309.06064078175524   -1.41855e-04   3.02053e-05 DIIS
   @DF-RHF iter  12:  -309.06065618775216   -1.54060e-05   9.67929e-06 DIIS
   @DF-RHF iter  13:  -309.06065813203401   -1.94428e-06   3.44317e-06 DIIS
   @DF-RHF iter  14:  -309.06065836256715   -2.30533e-07   1.16257e-06 DIIS
   @DF-RHF iter  15:  -309.06065839038098   -2.78138e-08   4.22180e-07 DIIS

  ==> Post-Iterations <==

    Orbital Energies (a.u.)
    -----------------------

    Doubly Occupied:                                                      

       1A    -20.546963     2A    -11.324730     3A    -11.229378  
       4A    -11.228330     5A    -11.228039     6A    -11.223056  
       7A    -11.213013     8A     -1.393128     9A     -1.090484  
      10A     -1.028655    11A     -0.983169    12A     -0.888673  
      13A     -0.806666    14A     -0.734085    15A     -0.663738  
      16A     -0.639679    17A     -0.624072    18A     -0.611987  
      19A     -0.581479    20A     -0.574617    21A     -0.553899  
      22A     -0.529548    23A     -0.523162    24A     -0.495231  
      25A     -0.479067    26A     -0.469923    27A     -0.467862  
      28A     -0.396844  

    Virtual:                                                              

      29A      0.169743    30A      0.224575    31A      0.239278  
      32A      0.275209    33A      0.277972    34A      0.293466  
      35A      0.298344    36A      0.308525    37A      0.312086  
      38A      0.325902    39A      0.341865    40A      0.347762  
      41A      0.366781    42A      0.389071    43A      0.414463  
      44A      0.440486    45A      0.453242    46A      0.503681  
      47A      0.516482    48A      0.706228    49A      0.725756  
      50A      0.737037    51A      0.745663    52A      0.761916  
      53A      0.785626    54A      0.800913    55A      0.828850  
      56A      0.879545    57A      0.899380    58A      0.916542  
      59A      0.955681    60A      0.965326    61A      0.978480  
      62A      0.992873    63A      1.028802    64A      1.087169  
      65A      1.106520    66A      1.111995    67A      1.123430  
      68A      1.139895    69A      1.155169    70A      1.173419  
      71A      1.179712    72A      1.196706    73A      1.201870  
      74A      1.211704    75A      1.222439    76A      1.224980  
      77A      1.254167    78A      1.261637    79A      1.335531  
      80A      1.349872    81A      1.375261    82A      1.418914  
      83A      1.478707    84A      1.640166    85A      1.658168  
      86A      1.720457    87A      1.755214    88A      1.797411  
      89A      1.842870    90A      1.892451    91A      1.983955  
      92A      2.046833    93A      2.080796    94A      2.100523  
      95A      2.146806    96A      2.167598    97A      2.195790  
      98A      2.214718    99A      2.235302   100A      2.279394  
     101A      2.291996   102A      2.335705   103A      2.358618  
     104A      2.378113   105A      2.474506   106A      2.512703  
     107A      2.566909   108A      2.580342   109A      2.626771  
     110A      2.671516   111A      2.726103   112A      2.738275  
     113A      2.754602   114A      2.770562   115A      2.848428  
     116A      2.914586   117A      2.982217   118A      3.037160  
     119A      3.096633   120A      3.146629   121A      3.375959  
     122A      3.377576   123A      4.460978   124A      4.524489  
     125A      4.599419   126A      4.703516   127A      4.814173  
     128A      4.895312   129A      5.010919  

    Final Occupation by Irrep:
              A 
    DOCC [    28 ]

  Energy converged.

  @DF-RHF Final Energy:  -309.06065839038098

   => Energetics <=

    Nuclear Repulsion Energy =            302.2876710978148935
    One-Electron Energy =               -1017.6378759526148770
    Two-Electron Energy =                 406.2895464644190042
    DFT Exchange-Correlation Energy =       0.0000000000000000
    Empirical Dispersion Energy =           0.0000000000000000
    PCM Polarization Energy =               0.0000000000000000
    EFP Energy =                            0.0000000000000000
    Total Energy =                       -309.0606583903810360

    Alert: EFP and PCM quantities not currently incorporated into SCF psivars.

Properties will be evaluated at   0.000000,   0.000000,   0.000000 Bohr
  ==> Properties <==


Properties computed using the SCF density matrix

  Nuclear Dipole Moment: (a.u.)
     X:     7.8617      Y:     3.2986      Z:    -0.1251

  Electronic Dipole Moment: (a.u.)
     X:    -7.3526      Y:    -2.2603      Z:     0.4287

  Dipole Moment: (a.u.)
     X:     0.5091      Y:     1.0382      Z:     0.3035     Total:     1.1955

  Dipole Moment: (Debye)
     X:     1.2940      Y:     2.6390      Z:     0.7715     Total:     3.0387


  Saving occupied orbitals to File 180.

*** tstop() called on cx1-3-14-1.cx1.hpc.ic.ac.uk at Thu Sep  1 22:20:47 2016
Module time:
	user time   =      10.56 seconds =       0.18 minutes
	system time =       0.05 seconds =       0.00 minutes
	total time  =         11 seconds =       0.18 minutes
Total time:
	user time   =      10.56 seconds =       0.18 minutes
	system time =       0.05 seconds =       0.00 minutes
	total time  =         11 seconds =       0.18 minutes


Properties will be evaluated at   0.000000,   0.000000,   0.000000 Bohr

Properties computed using the  density matrix

  Nuclear Dipole Moment: (a.u.)
     X:     7.8617      Y:     3.2986      Z:    -0.1251

  Electronic Dipole Moment: (a.u.)
     X:    -7.3526      Y:    -2.2603      Z:     0.4287

  Dipole Moment: (a.u.)
     X:     0.5091      Y:     1.0382      Z:     0.3035     Total:     1.1955

  Dipole Moment: (Debye)
     X:     1.2940      Y:     2.6390      Z:     0.7715     Total:     3.0387

  Quadrupole Moment: (Debye Ang)
    XX:   -47.7247     YY:   -46.2768     ZZ:   -44.4507
    XY:    -5.8096     XZ:    -1.0630     YZ:    -0.5560

  Traceless Quadrupole Moment: (Debye Ang)
    XX:    -1.5740     YY:    -0.1261     ZZ:     1.7000
    XY:    -5.8096     XZ:    -1.0630     YZ:    -0.5560

  Mulliken Charges: (a.u.)
   Center  Symbol    Alpha    Beta     Spin     Total
       1     O     4.26239  4.26239  0.00000 -0.52477
       2     C     2.74120  2.74120  0.00000  0.51760
       3     C     3.20077  3.20077  0.00000 -0.40154
       4     C     3.28953  3.28953  0.00000 -0.57907
       5     C     3.15986  3.15986  0.00000 -0.31972
       6     H     0.41502  0.41502  0.00000  0.16996
       7     H     0.39947  0.39947  0.00000  0.20106
       8     C     3.15392  3.15392  0.00000 -0.30783
       9     H     0.41948  0.41948  0.00000  0.16103
      10     H     0.40841  0.40841  0.00000  0.18319
      11     C     3.24129  3.24129  0.00000 -0.48258
      12     H     0.42179  0.42179  0.00000  0.15642
      13     H     0.41532  0.41532  0.00000  0.16936
      14     H     0.42194  0.42194  0.00000  0.15612
      15     H     0.41874  0.41874  0.00000  0.16252
      16     H     0.41738  0.41738  0.00000  0.16525
      17     H     0.39718  0.39718  0.00000  0.20564
      18     H     0.40969  0.40969  0.00000  0.18063
      19     H     0.40663  0.40663  0.00000  0.18674

   Total alpha = 28.00000, Total beta = 28.00000, Total charge =  0.00000


*** PSI4 exiting successfully. Buy a developer a beer!
