    -----------------------------------------------------------------------
          Psi4: An Open-Source Ab Initio Electronic Structure Package
                              Psi4 (no tag) Driver

                          Git: Rev {detached?}  

    J. M. Turney, A. C. Simmonett, R. M. Parrish, E. G. Hohenstein,
    F. A. Evangelista, J. T. Fermann, B. J. Mintz, L. A. Burns, J. J. Wilke,
    M. L. Abrams, N. J. Russ, M. L. Leininger, C. L. Janssen, E. T. Seidl,
    W. D. Allen, H. F. Schaefer, R. A. King, E. F. Valeev, C. D. Sherrill,
    and T. D. Crawford, WIREs Comput. Mol. Sci. 2, 556-565 (2012)
    (doi: 10.1002/wcms.93)

                         Additional Contributions by
    A. E. DePrince, M. Saitow, U. Bozkaya, A. Yu. Sokolov
    -----------------------------------------------------------------------


    Psi4 started on: Fri Sep  2 00:00:20 2016

    Process ID:  26656
    PSI4DATADIR: /export131/home/mjharvey/miniconda3/share
    Memory level set to 256.000 MB

  ==> Input File <==

--------------------------------------------------------------------------
set {
	reference rhf
	basis 6-31G*
}


set_num_threads( 1 )
memory 2 gb

molecule MOL {
0 1

H	 2.591676	 2.013956	 0.335017
O	 3.341076	 1.666752	 -0.126416
C	 3.569581	 0.339145	 0.272707
C	 2.732758	 -0.079107	 1.476667
H	 3.312328	 -0.273488	 -0.581796
H	 4.627526	 0.179639	 0.477868
C	 3.052704	 0.696734	 2.756734
H	 1.682401	 0.046209	 1.226842
H	 2.893399	 -1.142157	 1.648386
C	 2.234884	 0.216818	 3.959094
H	 2.866012	 1.753895	 2.589632
H	 4.114177	 0.597762	 2.984375
C	 2.577739	 0.903242	 5.286352
H	 1.175493	 0.350700	 3.747874
H	 2.387204	 -0.854085	 4.075996
C	 2.232197	 2.393586	 5.349241
H	 2.044961	 0.389928	 6.084144
H	 3.637761	 0.769497	 5.496831
C	 2.494300	 3.008716	 6.725596
H	 1.183365	 2.530201	 5.089627
H	 2.804269	 2.942167	 4.604865
C	 2.156261	 4.497788	 6.789291
H	 1.913726	 2.474856	 7.474872
H	 3.539625	 2.864594	 6.990945
H	 1.108656	 4.672128	 6.560480
H	 2.350754	 4.903807	 7.777196
H	 2.747900	 5.065410	 6.076457

	symmetry c1
}
set optking {
	frozen_dihedral = ("
		14 10 7 4,
		14 10 13 16,
		10 7 4 8,
		8 4 3 2,
		10 13 16 20,
		20 16 19 22
	")
}

ee = energy('scf')
oeprop('DIPOLE', 'QUADRUPOLE', 'MULLIKEN_CHARGES')
f=open( 'psi4out.xyz', 'w' )
f.write( "27  " )
f.write( str(ee) + "\n" )
f.write( MOL.save_string_xyz() )
f.close()
--------------------------------------------------------------------------

  Memory set to   2.000 GiB by Python script.

*** tstart() called on cx1-3-15-4.cx1.hpc.ic.ac.uk
*** at Fri Sep  2 00:00:21 2016


         ---------------------------------------------------------
                                   SCF
            by Justin Turney, Rob Parrish, and Andy Simmonett
                              RHF Reference
                        1 Threads,   2000 MiB Core
         ---------------------------------------------------------

  ==> Geometry <==

    Molecular point group: c1
    Full point group: C1

    Geometry (in Angstrom), charge = 0, multiplicity = 1:

       Center              X                  Y                   Z               Mass       
    ------------   -----------------  -----------------  -----------------  -----------------
           H         -0.123904728156     0.477892529343    -3.219688694934     1.007825032070
           O          0.625495271844     0.130688529343    -3.681121694934    15.994914619560
           C          0.854000271844    -1.196918470657    -3.281998694934    12.000000000000
           C          0.017177271844    -1.615170470657    -2.078038694934    12.000000000000
           H          0.596747271844    -1.809551470657    -4.136501694934     1.007825032070
           H          1.911945271844    -1.356424470657    -3.076837694934     1.007825032070
           C          0.337123271844    -0.839329470657    -0.797971694934    12.000000000000
           H         -1.033179728156    -1.489854470657    -2.327863694934     1.007825032070
           H          0.177818271844    -2.678220470657    -1.906319694934     1.007825032070
           C         -0.480696728156    -1.319245470657     0.404388305066    12.000000000000
           H          0.150431271844     0.217831529343    -0.965073694934     1.007825032070
           H          1.398596271844    -0.938301470657    -0.570330694934     1.007825032070
           C         -0.137841728156    -0.632821470657     1.731646305066    12.000000000000
           H         -1.540087728156    -1.185363470657     0.193168305066     1.007825032070
           H         -0.328376728156    -2.390148470657     0.521290305066     1.007825032070
           C         -0.483383728156     0.857522529343     1.794535305066    12.000000000000
           H         -0.670619728156    -1.146135470657     2.529438305066     1.007825032070
           H          0.922180271844    -0.766566470657     1.942125305066     1.007825032070
           C         -0.221280728156     1.472652529343     3.170890305066    12.000000000000
           H         -1.532215728156     0.994137529343     1.534921305066     1.007825032070
           H          0.088688271844     1.406103529343     1.050159305066     1.007825032070
           C         -0.559319728156     2.961724529343     3.234585305066    12.000000000000
           H         -0.801854728156     0.938792529343     3.920166305066     1.007825032070
           H          0.824044271844     1.328530529343     3.436239305066     1.007825032070
           H         -1.606924728156     3.136064529343     3.005774305066     1.007825032070
           H         -0.364826728156     3.367743529343     4.222490305066     1.007825032070
           H          0.032319271844     3.529346529343     2.521751305066     1.007825032070

  Running in c1 symmetry.

  Rotational constants: A =      0.09936  B =      0.01631  C =      0.01452 [cm^-1]
  Rotational constants: A =   2978.87377  B =    488.90867  C =    435.28587 [MHz]
  Nuclear repulsion =  459.990330605121585

  Charge       = 0
  Multiplicity = 1
  Electrons    = 74
  Nalpha       = 37
  Nbeta        = 37

  ==> Algorithm <==

  SCF Algorithm Type is DF.
  DIIS enabled.
  MOM disabled.
  Fractional occupation disabled.
  Guess Type is CORE.
  Energy threshold   = 1.00e-06
  Density threshold  = 1.00e-06
  Integral threshold = 0.00e+00

  ==> Primary Basis <==

  Basis Set: 6-31G*
    Number of shells: 90
    Number of basis function: 171
    Number of Cartesian functions: 171
    Spherical Harmonics?: false
    Max angular momentum: 2

  ==> Pre-Iterations <==

   -------------------------------------------------------
    Irrep   Nso     Nmo     Nalpha   Nbeta   Ndocc  Nsocc
   -------------------------------------------------------
     A        171     171       0       0       0       0
   -------------------------------------------------------
    Total     171     171      37      37      37       0
   -------------------------------------------------------

 OEINTS: Overlap, kinetic, potential, dipole, and quadrupole integrals
         stored in file 35.

  ==> Integral Setup <==

  ==> DFJK: Density-Fitted J/K Matrices <==

    J tasked:                  Yes
    K tasked:                  Yes
    wK tasked:                  No
    OpenMP threads:              1
    Integrals threads:           1
    Memory (MB):              1430
    Algorithm:                Core
    Integral Cache:           NONE
    Schwarz Cutoff:          1E-12
    Fitting Condition:       1E-12

   => Auxiliary Basis Set <=

  Basis Set: 
    Number of shells: 378
    Number of basis function: 1179
    Number of Cartesian functions: 1179
    Spherical Harmonics?: false
    Max angular momentum: 3

  Minimum eigenvalue in the overlap matrix is 3.0656249083E-03.
  Using Symmetric Orthogonalization.
  SCF Guess: Core (One-Electron) Hamiltonian.

  ==> Iterations <==

                           Total Energy        Delta E     RMS |[F,P]|

   @DF-RHF iter   1:  -288.09935735009742   -2.88099e+02   5.81769e-02 
   @DF-RHF iter   2:    11.63764566191452    2.99737e+02   6.61485e-02 DIIS
   @DF-RHF iter   3:  -251.15856816532414   -2.62796e+02   5.11547e-02 DIIS
   @DF-RHF iter   4:  -240.12606038644356    1.10325e+01   6.31869e-02 DIIS
   @DF-RHF iter   5:  -374.53737172275532   -1.34411e+02   1.70331e-02 DIIS
   @DF-RHF iter   6:  -321.29316255485094    5.32442e+01   4.11306e-02 DIIS
   @DF-RHF iter   7:  -387.71799414662132   -6.64248e+01   5.85176e-03 DIIS
   @DF-RHF iter   8:  -388.24080662334734   -5.22812e-01   1.35346e-03 DIIS
   @DF-RHF iter   9:  -388.26529535752854   -2.44887e-02   7.74914e-04 DIIS
   @DF-RHF iter  10:  -388.27564983564366   -1.03545e-02   3.52721e-04 DIIS
   @DF-RHF iter  11:  -388.27799150817191   -2.34167e-03   1.25248e-04 DIIS
   @DF-RHF iter  12:  -388.27837130813464   -3.79800e-04   3.16132e-05 DIIS
   @DF-RHF iter  13:  -388.27839762727797   -2.63191e-05   8.59112e-06 DIIS
   @DF-RHF iter  14:  -388.27839970597176   -2.07869e-06   2.40328e-06 DIIS
   @DF-RHF iter  15:  -388.27839985301409   -1.47042e-07   5.75780e-07 DIIS

  ==> Post-Iterations <==

    Orbital Energies (a.u.)
    -----------------------

    Doubly Occupied:                                                      

       1A    -20.548926     2A    -11.266031     3A    -11.224474  
       4A    -11.221790     5A    -11.219356     6A    -11.216876  
       7A    -11.216416     8A    -11.215043     9A    -11.209507  
      10A     -1.357546    11A     -1.097225    12A     -1.063649  
      13A     -1.013148    14A     -0.948984    15A     -0.889191  
      16A     -0.825784    17A     -0.805166    18A     -0.779991  
      19A     -0.661525    20A     -0.657129    21A     -0.649306  
      22A     -0.627362    23A     -0.608116    24A     -0.585534  
      25A     -0.575501    26A     -0.563901    27A     -0.540357  
      28A     -0.525914    29A     -0.511584    30A     -0.490792  
      31A     -0.486937    32A     -0.480028    33A     -0.467087  
      34A     -0.461440    35A     -0.447486    36A     -0.445011  
      37A     -0.424013  

    Virtual:                                                              

      38A      0.215723    39A      0.232300    40A      0.246623  
      41A      0.256723    42A      0.261587    43A      0.277608  
      44A      0.290788    45A      0.295720    46A      0.311591  
      47A      0.319977    48A      0.326155    49A      0.331936  
      50A      0.339163    51A      0.342447    52A      0.350110  
      53A      0.357927    54A      0.359940    55A      0.380165  
      56A      0.386432    57A      0.403465    58A      0.426902  
      59A      0.438406    60A      0.444839    61A      0.455488  
      62A      0.477820    63A      0.505802    64A      0.690530  
      65A      0.703310    66A      0.712528    67A      0.731345  
      68A      0.737488    69A      0.753870    70A      0.781013  
      71A      0.807607    72A      0.818039    73A      0.833911  
      74A      0.874774    75A      0.900696    76A      0.912090  
      77A      0.922610    78A      0.940351    79A      0.965459  
      80A      1.006822    81A      1.018503    82A      1.020777  
      83A      1.077978    84A      1.086196    85A      1.101567  
      86A      1.113180    87A      1.131132    88A      1.136963  
      89A      1.149749    90A      1.169877    91A      1.175029  
      92A      1.183818    93A      1.187839    94A      1.188708  
      95A      1.198428    96A      1.208121    97A      1.215002  
      98A      1.216894    99A      1.226392   100A      1.228434  
     101A      1.234435   102A      1.250112   103A      1.269126  
     104A      1.278816   105A      1.306936   106A      1.330755  
     107A      1.389752   108A      1.431078   109A      1.438577  
     110A      1.486801   111A      1.538817   112A      1.637220  
     113A      1.669395   114A      1.681203   115A      1.730036  
     116A      1.738660   117A      1.758919   118A      1.791696  
     119A      1.878724   120A      1.926289   121A      1.959292  
     122A      1.986355   123A      2.035789   124A      2.081258  
     125A      2.099157   126A      2.109658   127A      2.174292  
     128A      2.179814   129A      2.223796   130A      2.234667  
     131A      2.251770   132A      2.262418   133A      2.282177  
     134A      2.296650   135A      2.310712   136A      2.330670  
     137A      2.350208   138A      2.381138   139A      2.408752  
     140A      2.453542   141A      2.527802   142A      2.557956  
     143A      2.598944   144A      2.621914   145A      2.630865  
     146A      2.680354   147A      2.706649   148A      2.711644  
     149A      2.744745   150A      2.769165   151A      2.774529  
     152A      2.804868   153A      2.814833   154A      2.832481  
     155A      2.928736   156A      2.946954   157A      2.994346  
     158A      3.068564   159A      3.098350   160A      3.141462  
     161A      3.197608   162A      3.227469   163A      4.202379  
     164A      4.545367   165A      4.606462   166A      4.688565  
     167A      4.766094   168A      4.820376   169A      4.859382  
     170A      4.950143   171A      5.011409  

    Final Occupation by Irrep:
              A 
    DOCC [    37 ]

  Energy converged.

  @DF-RHF Final Energy:  -388.27839985301409

   => Energetics <=

    Nuclear Repulsion Energy =            459.9903306051215850
    One-Electron Energy =               -1437.8811953655610978
    Two-Electron Energy =                 589.6124649074256467
    DFT Exchange-Correlation Energy =       0.0000000000000000
    Empirical Dispersion Energy =           0.0000000000000000
    PCM Polarization Energy =               0.0000000000000000
    EFP Energy =                            0.0000000000000000
    Total Energy =                       -388.2783998530138660

    Alert: EFP and PCM quantities not currently incorporated into SCF psivars.

Properties will be evaluated at   0.000000,   0.000000,   0.000000 Bohr
  ==> Properties <==


Properties computed using the SCF density matrix

  Nuclear Dipole Moment: (a.u.)
     X:    -1.7775      Y:     1.5342      Z:     8.1148

  Electronic Dipole Moment: (a.u.)
     X:     1.3710      Y:    -1.9278      Z:    -7.4932

  Dipole Moment: (a.u.)
     X:    -0.4065      Y:    -0.3936      Z:     0.6216     Total:     0.8405

  Dipole Moment: (Debye)
     X:    -1.0331      Y:    -1.0004      Z:     1.5798     Total:     2.1364


  Saving occupied orbitals to File 180.

*** tstop() called on cx1-3-15-4.cx1.hpc.ic.ac.uk at Fri Sep  2 00:00:47 2016
Module time:
	user time   =      25.83 seconds =       0.43 minutes
	system time =       0.24 seconds =       0.00 minutes
	total time  =         26 seconds =       0.43 minutes
Total time:
	user time   =      25.83 seconds =       0.43 minutes
	system time =       0.24 seconds =       0.00 minutes
	total time  =         26 seconds =       0.43 minutes


Properties will be evaluated at   0.000000,   0.000000,   0.000000 Bohr

Properties computed using the  density matrix

  Nuclear Dipole Moment: (a.u.)
     X:    -1.7775      Y:     1.5342      Z:     8.1148

  Electronic Dipole Moment: (a.u.)
     X:     1.3710      Y:    -1.9278      Z:    -7.4932

  Dipole Moment: (a.u.)
     X:    -0.4065      Y:    -0.3936      Z:     0.6216     Total:     0.8405

  Dipole Moment: (Debye)
     X:    -1.0331      Y:    -1.0004      Z:     1.5798     Total:     2.1364

  Quadrupole Moment: (Debye Ang)
    XX:   -59.9558     YY:   -59.2098     ZZ:   -70.5184
    XY:    -1.8916     XZ:     4.2775     YZ:     3.1597

  Traceless Quadrupole Moment: (Debye Ang)
    XX:     3.2723     YY:     4.0182     ZZ:    -7.2904
    XY:    -1.8916     XZ:     4.2775     YZ:     3.1597

  Mulliken Charges: (a.u.)
   Center  Symbol    Alpha    Beta     Spin     Total
       1     H     0.27899  0.27899  0.00000  0.44201
       2     O     4.37720  4.37720  0.00000 -0.75440
       3     C     2.97589  2.97589  0.00000  0.04822
       4     C     3.18936  3.18936  0.00000 -0.37873
       5     H     0.42436  0.42436  0.00000  0.15129
       6     H     0.42400  0.42400  0.00000  0.15201
       7     C     3.15431  3.15431  0.00000 -0.30862
       8     H     0.42172  0.42172  0.00000  0.15657
       9     H     0.41702  0.41702  0.00000  0.16595
      10     C     3.15276  3.15276  0.00000 -0.30552
      11     H     0.42296  0.42296  0.00000  0.15408
      12     H     0.41965  0.41965  0.00000  0.16069
      13     C     3.15322  3.15322  0.00000 -0.30643
      14     H     0.42414  0.42414  0.00000  0.15172
      15     H     0.42138  0.42138  0.00000  0.15723
      16     C     3.15344  3.15344  0.00000 -0.30688
      17     H     0.42118  0.42118  0.00000  0.15763
      18     H     0.42301  0.42301  0.00000  0.15397
      19     C     3.15122  3.15122  0.00000 -0.30245
      20     H     0.42512  0.42512  0.00000  0.14977
      21     H     0.42153  0.42153  0.00000  0.15693
      22     C     3.23937  3.23937  0.00000 -0.47874
      23     H     0.42306  0.42306  0.00000  0.15387
      24     H     0.42258  0.42258  0.00000  0.15484
      25     H     0.42201  0.42201  0.00000  0.15598
      26     H     0.41905  0.41905  0.00000  0.16190
      27     H     0.42145  0.42145  0.00000  0.15711

   Total alpha = 37.00000, Total beta = 37.00000, Total charge = -0.00000


*** PSI4 exiting successfully. Buy a developer a beer!
