    -----------------------------------------------------------------------
          Psi4: An Open-Source Ab Initio Electronic Structure Package
                              Psi4 (no tag) Driver

                          Git: Rev {detached?}  

    J. M. Turney, A. C. Simmonett, R. M. Parrish, E. G. Hohenstein,
    F. A. Evangelista, J. T. Fermann, B. J. Mintz, L. A. Burns, J. J. Wilke,
    M. L. Abrams, N. J. Russ, M. L. Leininger, C. L. Janssen, E. T. Seidl,
    W. D. Allen, H. F. Schaefer, R. A. King, E. F. Valeev, C. D. Sherrill,
    and T. D. Crawford, WIREs Comput. Mol. Sci. 2, 556-565 (2012)
    (doi: 10.1002/wcms.93)

                         Additional Contributions by
    A. E. DePrince, M. Saitow, U. Bozkaya, A. Yu. Sokolov
    -----------------------------------------------------------------------


    Psi4 started on: Fri Sep  2 21:28:19 2016

    Process ID:  12076
    PSI4DATADIR: /export131/home/mjharvey/miniconda3/share
    Memory level set to 256.000 MB

  ==> Input File <==

--------------------------------------------------------------------------
set {
	reference rhf
	basis 6-31G*
}


set_num_threads( 4 )
memory 2 gb

molecule MOL {
0 1

H	 2.591676	 2.013956	 0.335017
O	 3.341076	 1.666752	 -0.126416
C	 3.569581	 0.339145	 0.272707
C	 4.686164	 0.204663	 1.302214
H	 2.635986	 -0.004840	 0.699028
H	 3.780103	 -0.288086	 -0.592765
C	 6.064480	 0.621907	 0.783540
H	 4.427119	 0.802771	 2.172001
H	 4.721990	 -0.832970	 1.629936
C	 7.171939	 0.424218	 1.822420
H	 6.031773	 1.665197	 0.482140
H	 6.305267	 0.044802	 -0.109383
C	 8.585972	 0.746606	 1.325510
H	 6.952033	 1.029845	 2.699748
H	 7.152190	 -0.610985	 2.156583
C	 8.833495	 2.221871	 0.998703
H	 9.295645	 0.437118	 2.089969
H	 8.805178	 0.140904	 0.447495
C	 10.284756	 2.510758	 0.609059
H	 8.566262	 2.830435	 1.861459
H	 8.182402	 2.539995	 0.188038
C	 10.533112	 3.981518	 0.276123
H	 10.942401	 2.208981	 1.421415
H	 10.556602	 1.896420	 -0.246846
H	 10.301359	 4.619970	 1.123999
H	 11.570320	 4.154389	 0.006033
H	 9.916280	 4.304741	 -0.557789

	symmetry c1
}
set optking {
	frozen_dihedral = ("
		4 3 2 1
	")
}

ee = optimize('scf')
oeprop('DIPOLE', 'QUADRUPOLE', 'MULLIKEN_CHARGES')
f=open( 'psi4out.xyz', 'w' )
f.write( "27  " )
f.write( str(ee) + "\n" )
f.write( MOL.save_string_xyz() )
f.close()
--------------------------------------------------------------------------

  Memory set to   2.000 GiB by Python script.
gradient() will perform analytic gradient computation.

*** tstart() called on cx1-1-1-4.cx1.hpc.ic.ac.uk
*** at Fri Sep  2 21:28:20 2016


         ---------------------------------------------------------
                                   SCF
            by Justin Turney, Rob Parrish, and Andy Simmonett
                              RHF Reference
                        4 Threads,   2000 MiB Core
         ---------------------------------------------------------

  ==> Geometry <==

    Molecular point group: c1
    Full point group: C1

    Geometry (in Angstrom), charge = 0, multiplicity = 1:

       Center              X                  Y                   Z               Mass       
    ------------   -----------------  -----------------  -----------------  -----------------
           H         -4.354665387262     0.581364921399    -0.453321699861     1.007825032070
           O         -3.605265387262     0.234160921399    -0.914754699861    15.994914619560
           C         -3.376760387262    -1.093446078601    -0.515631699861    12.000000000000
           C         -2.260177387262    -1.227928078601     0.513875300139    12.000000000000
           H         -4.310355387262    -1.437431078601    -0.089310699861     1.007825032070
           H         -3.166238387262    -1.720677078601    -1.381103699861     1.007825032070
           C         -0.881861387262    -0.810684078601    -0.004798699861    12.000000000000
           H         -2.519222387262    -0.629820078601     1.383662300139     1.007825032070
           H         -2.224351387262    -2.265561078601     0.841597300139     1.007825032070
           C          0.225597612738    -1.008373078601     1.034081300139    12.000000000000
           H         -0.914568387262     0.232605921399    -0.306198699861     1.007825032070
           H         -0.641074387262    -1.387789078601    -0.897721699861     1.007825032070
           C          1.639630612738    -0.685985078601     0.537171300139    12.000000000000
           H          0.005691612738    -0.402746078601     1.911409300139     1.007825032070
           H          0.205848612738    -2.043576078601     1.368244300139     1.007825032070
           C          1.887153612738     0.789279921399     0.210364300139    12.000000000000
           H          2.349303612738    -0.995473078601     1.301630300139     1.007825032070
           H          1.858836612738    -1.291687078601    -0.340843699861     1.007825032070
           C          3.338414612738     1.078166921399    -0.179279699861    12.000000000000
           H          1.619920612738     1.397843921399     1.073120300139     1.007825032070
           H          1.236060612738     1.107403921399    -0.600300699861     1.007825032070
           C          3.586770612738     2.548926921399    -0.512215699861    12.000000000000
           H          3.996059612738     0.776389921399     0.633076300139     1.007825032070
           H          3.610260612738     0.463828921399    -1.035184699861     1.007825032070
           H          3.355017612738     3.187378921399     0.335660300139     1.007825032070
           H          4.623978612738     2.721797921399    -0.782305699861     1.007825032070
           H          2.969938612738     2.872149921399    -1.346127699861     1.007825032070

  Running in c1 symmetry.

  Rotational constants: A =      0.09896  B =      0.01618  C =      0.01441 [cm^-1]
  Rotational constants: A =   2966.85338  B =    484.96345  C =    431.94660 [MHz]
  Nuclear repulsion =  458.615249501288190

  Charge       = 0
  Multiplicity = 1
  Electrons    = 74
  Nalpha       = 37
  Nbeta        = 37

  ==> Algorithm <==

  SCF Algorithm Type is DF.
  DIIS enabled.
  MOM disabled.
  Fractional occupation disabled.
  Guess Type is CORE.
  Energy threshold   = 1.00e-08
  Density threshold  = 1.00e-08
  Integral threshold = 0.00e+00

  ==> Primary Basis <==

  Basis Set: 6-31G*
    Number of shells: 90
    Number of basis function: 171
    Number of Cartesian functions: 171
    Spherical Harmonics?: false
    Max angular momentum: 2

  ==> Pre-Iterations <==

   -------------------------------------------------------
    Irrep   Nso     Nmo     Nalpha   Nbeta   Ndocc  Nsocc
   -------------------------------------------------------
     A        171     171       0       0       0       0
   -------------------------------------------------------
    Total     171     171      37      37      37       0
   -------------------------------------------------------

 OEINTS: Overlap, kinetic, potential, dipole, and quadrupole integrals
         stored in file 35.

  ==> Integral Setup <==

  ==> DFJK: Density-Fitted J/K Matrices <==

    J tasked:                  Yes
    K tasked:                  Yes
    wK tasked:                  No
    OpenMP threads:              4
    Integrals threads:           4
    Memory (MB):              1430
    Algorithm:                Core
    Integral Cache:           NONE
    Schwarz Cutoff:          1E-12
    Fitting Condition:       1E-12

   => Auxiliary Basis Set <=

  Basis Set: 
    Number of shells: 378
    Number of basis function: 1179
    Number of Cartesian functions: 1179
    Spherical Harmonics?: false
    Max angular momentum: 3

  Minimum eigenvalue in the overlap matrix is 3.0788686205E-03.
  Using Symmetric Orthogonalization.
  SCF Guess: Core (One-Electron) Hamiltonian.

  ==> Iterations <==

                           Total Energy        Delta E     RMS |[F,P]|

   @DF-RHF iter   1:  -287.76694542472160   -2.87767e+02   5.82118e-02 
   @DF-RHF iter   2:    11.15411786085883    2.98921e+02   6.60124e-02 DIIS
   @DF-RHF iter   3:  -249.54171178069066   -2.60696e+02   5.13311e-02 DIIS
   @DF-RHF iter   4:  -240.67244990588756    8.86926e+00   6.27638e-02 DIIS
   @DF-RHF iter   5:  -374.51322173410711   -1.33841e+02   1.70902e-02 DIIS
   @DF-RHF iter   6:  -322.20365159677635    5.23096e+01   4.04215e-02 DIIS
   @DF-RHF iter   7:  -387.78191836330916   -6.55783e+01   5.54273e-03 DIIS
   @DF-RHF iter   8:  -388.24971287986580   -4.67795e-01   1.19731e-03 DIIS
   @DF-RHF iter   9:  -388.27010728063908   -2.03944e-02   6.38067e-04 DIIS
   @DF-RHF iter  10:  -388.27739803158170   -7.29075e-03   2.89821e-04 DIIS
   @DF-RHF iter  11:  -388.27892378763988   -1.52576e-03   1.10312e-04 DIIS
   @DF-RHF iter  12:  -388.27922038156430   -2.96594e-04   2.70545e-05 DIIS
   @DF-RHF iter  13:  -388.27923896338416   -1.85818e-05   8.40855e-06 DIIS
   @DF-RHF iter  14:  -388.27924079843240   -1.83505e-06   2.22432e-06 DIIS
   @DF-RHF iter  15:  -388.27924092836622   -1.29934e-07   5.68833e-07 DIIS
   @DF-RHF iter  16:  -388.27924093841193   -1.00457e-08   1.46412e-07 DIIS
   @DF-RHF iter  17:  -388.27924093910883   -6.96900e-10   3.30647e-08 DIIS
   @DF-RHF iter  18:  -388.27924093914089   -3.20597e-11   9.24310e-09 DIIS

  ==> Post-Iterations <==

    Orbital Energies (a.u.)
    -----------------------

    Doubly Occupied:                                                      

       1A    -20.551289     2A    -11.268470     3A    -11.213332  
       4A    -11.211110     5A    -11.210329     6A    -11.209658  
       7A    -11.208081     8A    -11.208066     9A    -11.204953  
      10A     -1.359263    11A     -1.088678    12A     -1.056356  
      13A     -1.007717    14A     -0.943185    15A     -0.880797  
      16A     -0.815228    17A     -0.797283    18A     -0.772029  
      19A     -0.692825    20A     -0.649260    21A     -0.639960  
      22A     -0.607402    23A     -0.595308    24A     -0.584444  
      25A     -0.569064    26A     -0.550283    27A     -0.536049  
      28A     -0.519697    29A     -0.507043    30A     -0.493099  
      31A     -0.476106    32A     -0.468067    33A     -0.461530  
      34A     -0.455491    35A     -0.447941    36A     -0.435723  
      37A     -0.419643  

    Virtual:                                                              

      38A      0.216513    39A      0.235003    40A      0.248273  
      41A      0.266816    42A      0.271925    43A      0.272285  
      44A      0.296067    45A      0.303687    46A      0.317892  
      47A      0.328006    48A      0.332468    49A      0.336813  
      50A      0.343041    51A      0.346457    52A      0.356774  
      53A      0.362735    54A      0.369034    55A      0.384743  
      56A      0.390209    57A      0.406266    58A      0.427035  
      59A      0.444710    60A      0.448437    61A      0.455413  
      62A      0.488007    63A      0.508069    64A      0.696263  
      65A      0.710850    66A      0.719663    67A      0.738628  
      68A      0.744872    69A      0.759053    70A      0.783018  
      71A      0.809198    72A      0.815922    73A      0.841268  
      74A      0.878851    75A      0.904669    76A      0.914329  
      77A      0.929323    78A      0.948550    79A      0.971276  
      80A      1.014155    81A      1.022121    82A      1.028562  
      83A      1.080509    84A      1.087401    85A      1.101578  
      86A      1.114949    87A      1.137464    88A      1.138923  
      89A      1.161150    90A      1.173069    91A      1.180219  
      92A      1.190583    93A      1.193344    94A      1.196345  
      95A      1.199345    96A      1.213841    97A      1.219683  
      98A      1.223362    99A      1.229994   100A      1.235542  
     101A      1.240392   102A      1.254369   103A      1.275338  
     104A      1.278810   105A      1.309268   106A      1.335448  
     107A      1.376815   108A      1.436158   109A      1.446280  
     110A      1.473980   111A      1.561768   112A      1.644354  
     113A      1.674097   114A      1.702946   115A      1.738228  
     116A      1.761560   117A      1.775335   118A      1.799565  
     119A      1.856905   120A      1.943996   121A      1.952992  
     122A      1.990649   123A      2.045586   124A      2.070812  
     125A      2.097594   126A      2.124265   127A      2.162322  
     128A      2.181532   129A      2.231131   130A      2.240628  
     131A      2.259584   132A      2.271357   133A      2.293064  
     134A      2.304087   135A      2.319088   136A      2.338000  
     137A      2.357158   138A      2.397829   139A      2.414555  
     140A      2.462298   141A      2.534223   142A      2.565704  
     143A      2.606194   144A      2.613238   145A      2.639913  
     146A      2.670883   147A      2.690229   148A      2.717751  
     149A      2.737971   150A      2.772757   151A      2.779994  
     152A      2.809881   153A      2.836864   154A      2.888873  
     155A      2.934285   156A      2.953769   157A      3.002325  
     158A      3.059142   159A      3.108274   160A      3.147909  
     161A      3.195151   162A      3.231136   163A      4.181305  
     164A      4.552903   165A      4.611227   166A      4.692429  
     167A      4.773657   168A      4.827262   169A      4.864468  
     170A      4.955602   171A      5.018850  

    Final Occupation by Irrep:
              A 
    DOCC [    37 ]

  Energy converged.

  @DF-RHF Final Energy:  -388.27924093914089

   => Energetics <=

    Nuclear Repulsion Energy =            458.6152495012881900
    One-Electron Energy =               -1435.5594607402179008
    Two-Electron Energy =                 588.6649702997887061
    DFT Exchange-Correlation Energy =       0.0000000000000000
    Empirical Dispersion Energy =           0.0000000000000000
    PCM Polarization Energy =               0.0000000000000000
    EFP Energy =                            0.0000000000000000
    Total Energy =                       -388.2792409391410047

    Alert: EFP and PCM quantities not currently incorporated into SCF psivars.

Properties will be evaluated at   0.000000,   0.000000,   0.000000 Bohr
  ==> Properties <==


Properties computed using the SCF density matrix

  Nuclear Dipole Moment: (a.u.)
     X:     7.2016      Y:     1.0942      Z:     1.5105

  Electronic Dipole Moment: (a.u.)
     X:    -7.6047      Y:    -1.3989      Z:    -1.0283

  Dipole Moment: (a.u.)
     X:    -0.4031      Y:    -0.3047      Z:     0.4822     Total:     0.6984

  Dipole Moment: (Debye)
     X:    -1.0246      Y:    -0.7744      Z:     1.2256     Total:     1.7753


  Saving occupied orbitals to File 180.

*** tstop() called on cx1-1-1-4.cx1.hpc.ic.ac.uk at Fri Sep  2 21:28:31 2016
Module time:
	user time   =      33.84 seconds =       0.56 minutes
	system time =       0.43 seconds =       0.01 minutes
	total time  =         11 seconds =       0.18 minutes
Total time:
	user time   =      33.84 seconds =       0.56 minutes
	system time =       0.43 seconds =       0.01 minutes
	total time  =         11 seconds =       0.18 minutes

*** tstart() called on cx1-1-1-4.cx1.hpc.ic.ac.uk
*** at Fri Sep  2 21:28:31 2016


         ------------------------------------------------------------
                                   SCF GRAD                          
                          Rob Parrish, Justin Turney,                
                       Andy Simmonett, and Alex Sokolov              
         ------------------------------------------------------------

  ==> Geometry <==

    Molecular point group: c1
    Full point group: C1

    Geometry (in Angstrom), charge = 0, multiplicity = 1:

       Center              X                  Y                   Z               Mass       
    ------------   -----------------  -----------------  -----------------  -----------------
           H         -4.354665387262     0.581364921399    -0.453321699861     1.007825032070
           O         -3.605265387262     0.234160921399    -0.914754699861    15.994914619560
           C         -3.376760387262    -1.093446078601    -0.515631699861    12.000000000000
           C         -2.260177387262    -1.227928078601     0.513875300139    12.000000000000
           H         -4.310355387262    -1.437431078601    -0.089310699861     1.007825032070
           H         -3.166238387262    -1.720677078601    -1.381103699861     1.007825032070
           C         -0.881861387262    -0.810684078601    -0.004798699861    12.000000000000
           H         -2.519222387262    -0.629820078601     1.383662300139     1.007825032070
           H         -2.224351387262    -2.265561078601     0.841597300139     1.007825032070
           C          0.225597612738    -1.008373078601     1.034081300139    12.000000000000
           H         -0.914568387262     0.232605921399    -0.306198699861     1.007825032070
           H         -0.641074387262    -1.387789078601    -0.897721699861     1.007825032070
           C          1.639630612738    -0.685985078601     0.537171300139    12.000000000000
           H          0.005691612738    -0.402746078601     1.911409300139     1.007825032070
           H          0.205848612738    -2.043576078601     1.368244300139     1.007825032070
           C          1.887153612738     0.789279921399     0.210364300139    12.000000000000
           H          2.349303612738    -0.995473078601     1.301630300139     1.007825032070
           H          1.858836612738    -1.291687078601    -0.340843699861     1.007825032070
           C          3.338414612738     1.078166921399    -0.179279699861    12.000000000000
           H          1.619920612738     1.397843921399     1.073120300139     1.007825032070
           H          1.236060612738     1.107403921399    -0.600300699861     1.007825032070
           C          3.586770612738     2.548926921399    -0.512215699861    12.000000000000
           H          3.996059612738     0.776389921399     0.633076300139     1.007825032070
           H          3.610260612738     0.463828921399    -1.035184699861     1.007825032070
           H          3.355017612738     3.187378921399     0.335660300139     1.007825032070
           H          4.623978612738     2.721797921399    -0.782305699861     1.007825032070
           H          2.969938612738     2.872149921399    -1.346127699861     1.007825032070

  Nuclear repulsion =  458.615249501288190

  ==> Basis Set <==

  Basis Set: 6-31G*
    Number of shells: 90
    Number of basis function: 171
    Number of Cartesian functions: 171
    Spherical Harmonics?: false
    Max angular momentum: 2

  ==> DFJKGrad: Density-Fitted SCF Gradients <==

    Gradient:                    1
    J tasked:                  Yes
    K tasked:                  Yes
    wK tasked:                  No
    OpenMP threads:              4
    Integrals threads:           4
    Memory (MB):              1430
    Schwarz Cutoff:          0E+00
    Fitting Condition:       1E-12

   => Auxiliary Basis Set <=

  Basis Set: 
    Number of shells: 378
    Number of basis function: 1179
    Number of Cartesian functions: 1179
    Spherical Harmonics?: false
    Max angular momentum: 3


  -Total Gradient:
     Atom            X                  Y                   Z
    ------   -----------------  -----------------  -----------------
       1       -0.002689480396     0.000820716456    -0.000031294821
       2       -0.007622662488    -0.004181088258     0.008022834628
       3        0.009308880180     0.001113541449    -0.007440040923
       4       -0.000960882460    -0.001574885394     0.002146401078
       5       -0.000316884333     0.011167123406    -0.002477821635
       6        0.000086581815    -0.007220972938     0.000704542472
       7       -0.000998100026    -0.003031548530     0.000746175048
       8       -0.000238293682    -0.000051073495    -0.001239438084
       9        0.000642430716     0.000182556293    -0.000120547351
      10        0.000958347068     0.001107044015     0.000056500828
      11        0.001846993297     0.001796088419     0.000973109033
      12        0.000514548619    -0.000281132773    -0.000377325563
      13        0.000096296882    -0.000060160625    -0.000047321044
      14       -0.000206145565    -0.000165864547    -0.000375662775
      15       -0.000478414923     0.000307939366    -0.000504399577
      16        0.000271620781    -0.000091120478     0.000533792421
      17       -0.000147926524     0.000045582858    -0.000090198961
      18        0.000087439464    -0.000063067781     0.000010307309
      19        0.000076483503     0.000046614339    -0.000118218042
      20       -0.000031713539    -0.000030586668    -0.000118799183
      21       -0.000051644388     0.000163145523    -0.000236378807
      22        0.000036807032     0.000019610957     0.000122203990
      23       -0.000131240240     0.000010755342    -0.000050990660
      24        0.000017086874    -0.000031568842     0.000021924982
      25        0.000013570186    -0.000018321060    -0.000042179825
      26       -0.000089563120    -0.000028929854    -0.000000254669
      27        0.000005865273     0.000049602817    -0.000066919868


*** tstop() called on cx1-1-1-4.cx1.hpc.ic.ac.uk at Fri Sep  2 21:28:42 2016
Module time:
	user time   =      42.05 seconds =       0.70 minutes
	system time =       0.28 seconds =       0.00 minutes
	total time  =         11 seconds =       0.18 minutes
Total time:
	user time   =      75.91 seconds =       1.27 minutes
	system time =       0.71 seconds =       0.01 minutes
	total time  =         22 seconds =       0.37 minutes
CURRENT ENERGY: -388.2792409391

			-----------------------------------------
			 OPTKING 2.0: for geometry optimizations 
			  - R.A. King,  Bethel University        
			-----------------------------------------

	Internal coordinates to be generated automatically.
	Detected frag with atoms:  1 2 3 4 5 6 7 8 9 10 11 12 13 14 15 16 17 18 19 20
	 21 22 23 24 25 26 27
	---Fragment 1 Bond Connectivity---
	 1 : 2
	 2 : 1 3
	 3 : 2 4 5 6
	 4 : 3 7 8 9
	 5 : 3
	 6 : 3
	 7 : 4 10 11 12
	 8 : 4
	 9 : 4
	 10 : 7 13 14 15
	 11 : 7
	 12 : 7
	 13 : 10 16 17 18
	 14 : 10
	 15 : 10
	 16 : 13 19 20 21
	 17 : 13
	 18 : 13
	 19 : 16 22 23 24
	 20 : 16
	 21 : 16
	 22 : 19 25 26 27
	 23 : 19
	 24 : 19
	 25 : 22
	 26 : 22
	 27 : 22

	Assuming in current code that numbering for constraints corresponds to unified fragment.
	Frozen dihedral atom list: 
	     4     3     2     1
	---Fragment 1 Geometry and Gradient---
	 H          -8.2291249823        1.0986204847       -0.8566538628
	 O          -6.8129642183        0.4425000125       -1.7286358615
	 C          -6.3811523483       -2.0663136296       -0.9744026982
	 C          -4.2711162737       -2.3204477794        0.9710835837
	 H          -8.1453912173       -2.7163510735       -0.1687727635
	 H          -5.9833234234       -3.2516084417       -2.6099077539
	 C          -1.6664765091       -1.5319708888       -0.0090682285
	 H          -4.7606403798       -1.1901874615        2.6147428077
	 H          -4.2034149452       -4.2812899759        1.5903884114
	 C           0.4263177043       -1.9055489583        1.9541304564
	 H          -1.7282837817        0.4395614883       -0.5786316850
	 H          -1.2114550227       -2.6225412888       -1.6964481563
	 C           3.0984528172       -1.2963239298        1.0151066437
	 H           0.0107555893       -0.7610797896        3.6120401051
	 H           0.3889975029       -3.8617991203        2.5856070101
	 C           3.5662034988        1.4915228936        0.3975309154
	 H           4.4395404311       -1.8811714912        2.4597247935
	 H           3.5126921239       -2.4409348279       -0.6441012469
	 C           6.3086893361        2.0374402070       -0.3387895339
	 H           3.0612063151        2.6415421880        2.0279034749
	 H           2.3358160417        2.0926901299       -1.1344039201
	 C           6.7780141596        4.8167738142       -0.9679473937
	 H           7.5514582788        1.4671643238        1.1963408285
	 H           6.8224038264        0.8765096340       -1.9562155797
	 H           6.3400644591        6.0232732432        0.6343060409
	 H           8.7380532224        5.1434526605       -1.4783435249
	 H           5.6123706096        5.4275767640       -2.5438126926
	            -0.0026894804        0.0008207165       -0.0000312948
	            -0.0076226625       -0.0041810883        0.0080228346
	             0.0093088802        0.0011135414       -0.0074400409
	            -0.0009608825       -0.0015748854        0.0021464011
	            -0.0003168843        0.0111671234       -0.0024778216
	             0.0000865818       -0.0072209729        0.0007045425
	            -0.0009981000       -0.0030315485        0.0007461750
	            -0.0002382937       -0.0000510735       -0.0012394381
	             0.0006424307        0.0001825563       -0.0001205474
	             0.0009583471        0.0011070440        0.0000565008
	             0.0018469933        0.0017960884        0.0009731090
	             0.0005145486       -0.0002811328       -0.0003773256
	             0.0000962969       -0.0000601606       -0.0000473210
	            -0.0002061456       -0.0001658645       -0.0003756628
	            -0.0004784149        0.0003079394       -0.0005043996
	             0.0002716208       -0.0000911205        0.0005337924
	            -0.0001479265        0.0000455829       -0.0000901990
	             0.0000874395       -0.0000630678        0.0000103073
	             0.0000764835        0.0000466143       -0.0001182180
	            -0.0000317135       -0.0000305867       -0.0001187992
	            -0.0000516444        0.0001631455       -0.0002363788
	             0.0000368070        0.0000196110        0.0001222040
	            -0.0001312402        0.0000107553       -0.0000509907
	             0.0000170869       -0.0000315688        0.0000219250
	             0.0000135702       -0.0000183211       -0.0000421798
	            -0.0000895631       -0.0000289299       -0.0000002547
	             0.0000058653        0.0000496028       -0.0000669199

	Previous optimization step data not found.  Starting new optimization.

	---Fragment 1 Intrafragment Coordinates---
	 - Coordinate -           - BOHR/RAD -       - ANG/DEG -
	 R(1,2)           =         1.787836	       0.946082
	 R(2,3)           =         2.655085	       1.405010
	 R(3,4)           =         2.881276	       1.524706
	 R(3,5)           =         2.045514	       1.082439
	 R(3,6)           =         2.058657	       1.089394
	 R(4,7)           =         2.892497	       1.530644
	 R(4,8)           =         2.053957	       1.086907
	 R(4,9)           =         2.057431	       1.088746
	 R(7,10)          =         2.893700	       1.531280
	 R(7,11)          =         2.053086	       1.086446
	 R(7,12)          =         2.060010	       1.090110
	 R(10,13)         =         2.897107	       1.533083
	 R(10,14)         =         2.056980	       1.088507
	 R(10,15)         =         2.055984	       1.087980
	 R(13,16)         =         2.893489	       1.531169
	 R(13,17)         =         2.056085	       1.088033
	 R(13,18)         =         2.057838	       1.088961
	 R(16,19)         =         2.891612	       1.530175
	 R(16,20)         =         2.058077	       1.089088
	 R(16,21)         =         2.054770	       1.087338
	 R(19,22)         =         2.888044	       1.528287
	 R(19,23)         =         2.055800	       1.087883
	 R(19,24)         =         2.056144	       1.088065
	 R(22,25)         =         2.052963	       1.086381
	 R(22,26)         =         2.051579	       1.085649
	 R(22,27)         =         2.053085	       1.086446
	 B(1,2,3)         =         1.914577	     109.697160
	 B(2,3,4)         =         1.976053	     113.219522
	 B(2,3,5)         =         1.846152	     105.776745
	 B(2,3,6)         =         1.928143	     110.474457
	 B(3,4,7)         =         1.989525	     113.991387
	 B(3,4,8)         =         1.893638	     108.497458
	 B(3,4,9)         =         1.887468	     108.143928
	 B(4,3,5)         =         1.915227	     109.734428
	 B(4,3,6)         =         1.922103	     110.128365
	 B(4,7,10)        =         1.967264	     112.715908
	 B(4,7,11)        =         1.905684	     109.187647
	 B(4,7,12)        =         1.909383	     109.399590
	 B(5,3,6)         =         1.871928	     107.253578
	 B(7,4,8)         =         1.913229	     109.619923
	 B(7,4,9)         =         1.909395	     109.400253
	 B(7,10,13)       =         2.004260	     114.835610
	 B(7,10,14)       =         1.905911	     109.200658
	 B(7,10,15)       =         1.894507	     108.547232
	 B(8,4,9)         =         1.866501	     106.942606
	 B(10,7,11)       =         1.911294	     109.509065
	 B(10,7,12)       =         1.904584	     109.124624
	 B(10,13,16)      =         2.005226	     114.890963
	 B(10,13,17)      =         1.890258	     108.303798
	 B(10,13,18)      =         1.907140	     109.271086
	 B(11,7,12)       =         1.862709	     106.725355
	 B(13,10,14)      =         1.907713	     109.303916
	 B(13,10,15)      =         1.892708	     108.444197
	 B(13,16,19)      =         1.970960	     112.927698
	 B(13,16,20)      =         1.906714	     109.246643
	 B(13,16,21)      =         1.922202	     110.134075
	 B(14,10,15)      =         1.852688	     106.151219
	 B(16,13,17)      =         1.895030	     108.577243
	 B(16,13,18)      =         1.908456	     109.346495
	 B(16,19,22)      =         1.972824	     113.034500
	 B(16,19,23)      =         1.907972	     109.318756
	 B(16,19,24)      =         1.907810	     109.309489
	 B(17,13,18)      =         1.851456	     106.080613
	 B(19,16,20)      =         1.905983	     109.204796
	 B(19,16,21)      =         1.899516	     108.834275
	 B(19,22,25)      =         1.940004	     111.154027
	 B(19,22,26)      =         1.941950	     111.265567
	 B(19,22,27)      =         1.940410	     111.177315
	 B(20,16,21)      =         1.854798	     106.272108
	 B(22,19,23)      =         1.908577	     109.353381
	 B(22,19,24)      =         1.908577	     109.353431
	 B(23,19,24)      =         1.854323	     106.244880
	 B(25,22,26)      =         1.880097	     107.721612
	 B(25,22,27)      =         1.878733	     107.643474
	 B(26,22,27)      =         1.879781	     107.703538
	*D(1,2,3,4)       =        -1.745329	     -99.999988
	 D(1,2,3,5)       =         0.352548	      20.199531
	 D(1,2,3,6)       =         2.372813	     135.952157
	 D(2,3,4,7)       =        -1.117499	     -64.027992
	 D(2,3,4,8)       =         1.019513	      58.413800
	 D(2,3,4,9)       =         3.038126	     174.071773
	 D(3,4,7,10)      =        -3.102764	    -177.775303
	 D(3,4,7,11)      =         1.052182	      60.285611
	 D(3,4,7,12)      =        -0.980457	     -56.176052
	 D(4,7,10,13)     =         3.079671	     176.452141
	 D(4,7,10,14)     =        -1.054060	     -60.393181
	 D(4,7,10,15)     =         0.958504	      54.918235
	 D(5,3,4,7)       =         3.107625	     178.053818
	 D(5,3,4,8)       =        -1.038548	     -59.504391
	 D(5,3,4,9)       =         0.980065	      56.153582
	 D(6,3,4,7)       =         1.050839	      60.208667
	 D(6,3,4,8)       =        -3.095333	    -177.349541
	 D(6,3,4,9)       =        -1.076721	     -61.691568
	 D(7,10,13,16)    =         1.159582	      66.439178
	 D(7,10,13,17)    =        -3.001961	    -171.999710
	 D(7,10,13,18)    =        -0.992509	     -56.866583
	 D(8,4,7,10)      =         1.054184	      60.400305
	 D(8,4,7,11)      =        -1.074054	     -61.538781
	 D(8,4,7,12)      =        -3.106694	    -178.000445
	 D(9,4,7,10)      =        -0.987341	     -56.570463
	 D(9,4,7,11)      =        -3.115579	    -178.509549
	 D(9,4,7,12)      =         1.134966	      65.028787
	 D(10,13,16,19)   =         3.065805	     175.657668
	 D(10,13,16,20)   =         0.941127	      53.922594
	 D(10,13,16,21)   =        -1.089851	     -62.443871
	 D(11,7,10,13)    =        -1.078447	     -61.790462
	 D(11,7,10,14)    =         1.071008	      61.364216
	 D(11,7,10,15)    =         3.083571	     176.675632
	 D(12,7,10,13)    =         0.954646	      54.697172
	 D(12,7,10,14)    =         3.104100	     177.851850
	 D(12,7,10,15)    =        -1.166521	     -66.836734
	 D(13,16,19,22)   =         3.136984	     179.735959
	 D(13,16,19,23)   =        -1.016043	     -58.214963
	 D(13,16,19,24)   =         1.006942	      57.693500
	 D(14,10,13,16)   =        -0.988908	     -56.660234
	 D(14,10,13,17)   =         1.132734	      64.900877
	 D(14,10,13,18)   =        -3.140999	    -179.965996
	 D(15,10,13,16)   =        -3.001457	    -171.970808
	 D(15,10,13,17)   =        -0.879815	     -50.409697
	 D(15,10,13,18)   =         1.129637	      64.723430
	 D(16,19,22,25)   =         1.044253	      59.831309
	 D(16,19,22,26)   =         3.139610	     179.886391
	 D(16,19,22,27)   =        -1.048345	     -60.065728
	 D(17,13,16,19)   =         0.946761	      54.245423
	 D(17,13,16,20)   =        -1.177917	     -67.489651
	 D(17,13,16,21)   =         3.074291	     176.143884
	 D(18,13,16,19)   =        -1.065992	     -61.076815
	 D(18,13,16,20)   =         3.092516	     177.188111
	 D(18,13,16,21)   =         1.061538	      60.821646
	 D(20,16,19,22)   =        -1.021112	     -58.505381
	 D(20,16,19,23)   =         1.109047	      63.543697
	 D(20,16,19,24)   =         3.132031	     179.452160
	 D(21,16,19,22)   =         0.996740	      57.108971
	 D(21,16,19,23)   =         3.126898	     179.158049
	 D(21,16,19,24)   =        -1.133303	     -64.933488
	 D(23,19,22,25)   =        -1.085566	     -62.198354
	 D(23,19,22,26)   =         1.009790	      57.856727
	 D(23,19,22,27)   =         3.105021	     177.904609
	 D(24,19,22,25)   =        -3.109319	    -178.150872
	 D(24,19,22,26)   =        -1.013963	     -58.095791
	 D(24,19,22,27)   =         1.081268	      61.952091

	Current energy   :      -388.2792409391

	Generating empirical Hessian (Schlegel '84) for each fragment.
	Taking RFO optimization step.
	Going to follow RFO solution 1.
	Using RFO vector 1.
	Norm of target step-size    0.30901
	Projected energy change by RFO approximation:        -0.0195187047

	Back-transformation to cartesian coordinates...
	Successfully converged to displaced geometry.

	Back-transformation to cartesian coordinates to adjust frozen coordinates...
	Successfully converged to displaced geometry.

	--- Internal Coordinate Step in ANG or DEG, aJ/ANG or AJ/DEG ---
	 ---------------------------------------------------------------------------
	   Coordinate                Previous        Force       Change         New 
	   ----------                --------       ------       ------       ------
	    1 R(1,2)          =      0.946082    -0.019907    -0.002164     0.943918
	    2 R(2,3)          =      1.405010     0.031046     0.004403     1.409413
	    3 R(3,4)          =      1.524706    -0.015474    -0.003268     1.521437
	    4 R(3,5)          =      1.082439     0.035026     0.006216     1.088655
	    5 R(3,6)          =      1.089394    -0.029779    -0.005407     1.083987
	    6 R(4,7)          =      1.530644    -0.011492    -0.002472     1.528172
	    7 R(4,8)          =      1.086907     0.007935     0.001429     1.088336
	    8 R(4,9)          =      1.088746     0.001558     0.000282     1.089028
	    9 R(7,10)         =      1.531280     0.003865     0.000833     1.532113
	   10 R(7,11)         =      1.086446    -0.011527    -0.002073     1.084374
	   11 R(7,12)         =      1.090110    -0.004709    -0.000857     1.089253
	   12 R(10,13)        =      1.533083    -0.001405    -0.000305     1.532778
	   13 R(10,14)        =      1.088507     0.002912     0.000527     1.089034
	   14 R(10,15)        =      1.087980     0.003619     0.000654     1.088634
	   15 R(13,16)        =      1.531169    -0.000787    -0.000169     1.530999
	   16 R(13,17)        =      1.088033     0.001424     0.000257     1.088291
	   17 R(13,18)        =      1.088961    -0.000366    -0.000066     1.088895
	   18 R(16,19)        =      1.530175     0.000198     0.000043     1.530218
	   19 R(16,20)        =      1.089088     0.000852     0.000155     1.089242
	   20 R(16,21)        =      1.087338    -0.002100    -0.000379     1.086959
	   21 R(19,22)        =      1.528287    -0.000106    -0.000023     1.528265
	   22 R(19,23)        =      1.087883     0.000992     0.000179     1.088062
	   23 R(19,24)        =      1.088065    -0.000040    -0.000007     1.088058
	   24 R(22,25)        =      1.086381     0.000384     0.000069     1.086450
	   25 R(22,26)        =      1.085649     0.000742     0.000133     1.085782
	   26 R(22,27)        =      1.086446    -0.000517    -0.000093     1.086353
	   27 B(1,2,3)        =    109.697160    -0.000059    -0.268773   109.428387
	   28 B(2,3,4)        =    113.219522    -0.000481    -1.764624   111.454898
	   29 B(2,3,5)        =    105.776745     0.000880     7.378399   113.155144
	   30 B(2,3,6)        =    110.474457    -0.000364    -4.875649   105.598808
	   31 B(3,4,7)        =    113.991387    -0.000222    -0.763777   113.227610
	   32 B(3,4,8)        =    108.497458     0.000097     0.291126   108.788583
	   33 B(3,4,9)        =    108.143928     0.000041     0.115319   108.259247
	   34 B(4,3,5)        =    109.734428    -0.000262     0.337329   110.071757
	   35 B(4,3,6)        =    110.128365     0.000330    -0.969492   109.158873
	   36 B(4,7,10)       =    112.715908    -0.000047    -0.109588   112.606321
	   37 B(4,7,11)       =    109.187647    -0.000082    -0.564530   108.623117
	   38 B(4,7,12)       =    109.399590     0.000004    -0.261462   109.138128
	   39 B(5,3,6)        =    107.253578    -0.000072    -0.102779   107.150799
	   40 B(7,4,8)        =    109.619923     0.000034    -0.050046   109.569877
	   41 B(7,4,9)        =    109.400253     0.000110     0.549497   109.949750
	   42 B(7,10,13)      =    114.835610    -0.000052    -0.172129   114.663481
	   43 B(7,10,14)      =    109.200658     0.000025     0.093820   109.294478
	   44 B(7,10,15)      =    108.547232     0.000049     0.356568   108.903799
	   45 B(8,4,9)        =    106.942606    -0.000051    -0.107652   106.834953
	   46 B(10,7,11)      =    109.509065     0.000134     1.034781   110.543846
	   47 B(10,7,12)      =    109.124624     0.000019     0.142328   109.266952
	   48 B(10,13,16)     =    114.890963    -0.000014    -0.055152   114.835810
	   49 B(10,13,17)     =    108.303798     0.000009     0.081307   108.385105
	   50 B(10,13,18)     =    109.271086    -0.000000    -0.053394   109.217692
	   51 B(11,7,12)      =    106.725355    -0.000027    -0.258123   106.467232
	   52 B(13,10,14)     =    109.303916     0.000003    -0.130440   109.173476
	   53 B(13,10,15)     =    108.444197    -0.000008    -0.078267   108.365930
	   54 B(13,16,19)     =    112.927698    -0.000003    -0.012901   112.914797
	   55 B(13,16,20)     =    109.246643     0.000001    -0.023180   109.223463
	   56 B(13,16,21)     =    110.134075    -0.000006    -0.030147   110.103928
	   57 B(14,10,15)     =    106.151219    -0.000014    -0.061208   106.090010
	   58 B(16,13,17)     =    108.577243     0.000004     0.047321   108.624564
	   59 B(16,13,18)     =    109.346495     0.000003    -0.039836   109.306659
	   60 B(16,19,22)     =    113.034500    -0.000002    -0.007521   113.026978
	   61 B(16,19,23)     =    109.318756     0.000005     0.050691   109.369447
	   62 B(16,19,24)     =    109.309489    -0.000001    -0.015764   109.293724
	   63 B(17,13,18)     =    106.080613    -0.000001     0.028327   106.108940
	   64 B(19,16,20)     =    109.204796    -0.000002    -0.022634   109.182163
	   65 B(19,16,21)     =    108.834275     0.000009     0.072514   108.906788
	   66 B(19,22,25)     =    111.154027    -0.000001    -0.010677   111.143350
	   67 B(19,22,26)     =    111.265567     0.000003     0.017480   111.283046
	   68 B(19,22,27)     =    111.177315    -0.000005    -0.021740   111.155576
	   69 B(20,16,21)     =    106.272108     0.000001     0.018336   106.290444
	   70 B(22,19,23)     =    109.353381    -0.000002    -0.004303   109.349078
	   71 B(22,19,24)     =    109.353431    -0.000000    -0.025001   109.328429
	   72 B(23,19,24)     =    106.244880    -0.000000     0.002507   106.247387
	   73 B(25,22,26)     =    107.721612    -0.000001    -0.001680   107.719932
	   74 B(25,22,27)     =    107.643474     0.000002    -0.003206   107.640268
	   75 B(26,22,27)     =    107.703538     0.000002     0.020680   107.724219
	   76 *D(1,2,3,4)     =    -99.999988    -0.000000     0.000000   -99.999988
	   77 D(1,2,3,5)      =     20.199531    -0.000004     4.490283    24.689814
	   78 D(1,2,3,6)      =    135.952157     0.000046     5.634643   141.586800
	   79 D(2,3,4,7)      =    -64.027992     0.000098     6.500727   -57.527265
	   80 D(2,3,4,8)      =     58.413800     0.000090     6.133553    64.547353
	   81 D(2,3,4,9)      =    174.071773     0.000093     6.221485   180.293258
	   82 D(3,4,7,10)     =   -177.775303     0.000004    -1.609053  -179.384356
	   83 D(3,4,7,11)     =     60.285611    -0.000014    -2.452460    57.833151
	   84 D(3,4,7,12)     =    -56.176052     0.000003    -1.685289   -57.861341
	   85 D(4,7,10,13)    =    176.452141     0.000003     0.054071   176.506212
	   86 D(4,7,10,14)    =    -60.393181    -0.000001    -0.167697   -60.560879
	   87 D(4,7,10,15)    =     54.918235     0.000005     0.005472    54.923707
	   88 D(5,3,4,7)      =    178.053818    -0.000046    -1.981009   176.072809
	   89 D(5,3,4,8)      =    -59.504391    -0.000054    -2.348183   -61.852573
	   90 D(5,3,4,9)      =     56.153582    -0.000051    -2.260250    53.893332
	   91 D(6,3,4,7)      =     60.208667    -0.000034    -1.478654    58.730013
	   92 D(6,3,4,8)      =   -177.349541    -0.000043    -1.845828  -179.195369
	   93 D(6,3,4,9)      =    -61.691568    -0.000040    -1.757895   -63.449464
	   94 D(7,10,13,16)   =     66.439178    -0.000003    -0.203662    66.235517
	   95 D(7,10,13,17)   =   -171.999710    -0.000002    -0.118886  -172.118597
	   96 D(7,10,13,18)   =    -56.866583    -0.000001    -0.069625   -56.936208
	   97 D(8,4,7,10)     =     60.400305     0.000005    -1.421928    58.978377
	   98 D(8,4,7,11)     =    -61.538781    -0.000013    -2.265335   -63.804116
	   99 D(8,4,7,12)     =   -178.000445     0.000004    -1.498163  -179.498608
	  100 D(9,4,7,10)     =    -56.570463     0.000000    -1.582325   -58.152788
	  101 D(9,4,7,11)     =   -178.509549    -0.000018    -2.425732  -180.935281
	  102 D(9,4,7,12)     =     65.028787    -0.000001    -1.658560    63.370227
	  103 D(10,13,16,19)  =    175.657668     0.000001     0.157441   175.815109
	  104 D(10,13,16,20)  =     53.922594     0.000001     0.211514    54.134108
	  105 D(10,13,16,21)  =    -62.443871     0.000002     0.220055   -62.223816
	  106 D(11,7,10,13)   =    -61.790462    -0.000007    -0.004281   -61.794742
	  107 D(11,7,10,14)   =     61.364216    -0.000010    -0.226049    61.138167
	  108 D(11,7,10,15)   =    176.675632    -0.000005    -0.052880   176.622752
	  109 D(12,7,10,13)   =     54.697172     0.000006     0.359282    55.056454
	  110 D(12,7,10,14)   =    177.851850     0.000002     0.137514   177.989363
	  111 D(12,7,10,15)   =    -66.836734     0.000008     0.310683   -66.526051
	  112 D(13,16,19,22)  =    179.735959    -0.000000     0.035376   179.771335
	  113 D(13,16,19,23)  =    -58.214963    -0.000000     0.061315   -58.153648
	  114 D(13,16,19,24)  =     57.693500     0.000000     0.083871    57.777371
	  115 D(14,10,13,16)  =    -56.660234    -0.000002    -0.102253   -56.762488
	  116 D(14,10,13,17)  =     64.900877    -0.000001    -0.017478    64.883399
	  117 D(14,10,13,18)  =   -179.965996    -0.000001     0.031783  -179.934213
	  118 D(15,10,13,16)  =   -171.970808     0.000003     0.082173  -171.888636
	  119 D(15,10,13,17)  =    -50.409697     0.000003     0.166948   -50.242749
	  120 D(15,10,13,18)  =     64.723430     0.000004     0.216209    64.939639
	  121 D(16,19,22,25)  =     59.831309     0.000000     0.039604    59.870914
	  122 D(16,19,22,26)  =    179.886391     0.000000     0.042035   179.928426
	  123 D(16,19,22,27)  =    -60.065728     0.000001     0.065335   -60.000393
	  124 D(17,13,16,19)  =     54.245423    -0.000001     0.054171    54.299594
	  125 D(17,13,16,20)  =    -67.489651     0.000000     0.108244   -67.381407
	  126 D(17,13,16,21)  =    176.143884     0.000001     0.116785   176.260669
	  127 D(18,13,16,19)  =    -61.076815    -0.000001     0.016045   -61.060770
	  128 D(18,13,16,20)  =    177.188111    -0.000000     0.070117   177.258229
	  129 D(18,13,16,21)  =     60.821646    -0.000000     0.078658    60.900305
	  130 D(20,16,19,22)  =    -58.505381    -0.000001    -0.018986   -58.524367
	  131 D(20,16,19,23)  =     63.543697    -0.000001     0.006953    63.550650
	  132 D(20,16,19,24)  =    179.452160    -0.000000     0.029509   179.481669
	  133 D(21,16,19,22)  =     57.108971     0.000000     0.030393    57.139364
	  134 D(21,16,19,23)  =    179.158049     0.000000     0.056332   179.214381
	  135 D(21,16,19,24)  =    -64.933488     0.000001     0.078888   -64.854600
	  136 D(23,19,22,25)  =    -62.198354    -0.000001    -0.017167   -62.215521
	  137 D(23,19,22,26)  =     57.856727    -0.000001    -0.014736    57.841991
	  138 D(23,19,22,27)  =    177.904609    -0.000000     0.008564   177.913172
	  139 D(24,19,22,25)  =   -178.150872    -0.000000    -0.003724  -178.154596
	  140 D(24,19,22,26)  =    -58.095791    -0.000000    -0.001293   -58.097084
	  141 D(24,19,22,27)  =     61.952091     0.000000     0.022006    61.974097
	 ---------------------------------------------------------------------------

  ==> Convergence Check <==

  Measures of convergence in internal coordinates in au.
  Criteria marked as inactive (o), active & met (*), and active & unmet ( ).
  --------------------------------------------------------------------------------------------- ~
   Step     Total Energy     Delta E     MAX Force     RMS Force      MAX Disp      RMS Disp    ~
  --------------------------------------------------------------------------------------------- ~
    Convergence Criteria    1.00e-06 *    3.00e-04 *             o    1.20e-03 *             o  ~
  --------------------------------------------------------------------------------------------- ~
      1    -388.27924094   -3.88e+02      1.16e-02      1.78e-03 o    1.29e-01      2.60e-02 o  ~
  ---------------------------------------------------------------------------------------------

	Writing optimization data to binary file.
	Structure for next step:
	Cartesian Geometry (in Angstrom)
	    H    -4.1625948542   0.6948734352  -0.4903505564
	    O    -3.4591848654   0.2571619205  -0.9426819052
	    C    -3.3730771261  -1.0768748355  -0.4961654080
	    C    -2.2621355935  -1.2500305672   0.5288213833
	    H    -4.3122000831  -1.4561403521  -0.0969458941
	    H    -3.1395167550  -1.6644555271  -1.3766351623
	    C    -0.8893694209  -0.8276461636   0.0068896166
	    H    -2.5095523755  -0.6693033465   1.4153971560
	    H    -2.2384523312  -2.2954412200   0.8330222288
	    C     0.2206709623  -1.0219280917   1.0448854455
	    H    -0.9415603312   0.2096466350  -0.3048245283
	    H    -0.6528036736  -1.4065330410  -0.8849618851
	    C     1.6307873390  -0.6920603314   0.5427215173
	    H     0.0026213226  -0.4154262570   1.9227266012
	    H     0.2102652123  -2.0566960525   1.3829252789
	    C     1.8666341820   0.7840289978   0.2118209503
	    H     2.3462447696  -0.9961357006   1.3043220171
	    H     1.8491242252  -1.2972849790  -0.3357569892
	    C     3.3137238452   1.0813755680  -0.1870323295
	    H     1.6013618560   1.3920619316   1.0757508850
	    H     1.2078451616   1.0960499831  -0.5944788412
	    C     3.5507533204   2.5532256363  -0.5232871936
	    H     3.9790567153   0.7845385486   0.6211128769
	    H     3.5835991319   0.4681265178  -1.0443316941
	    H     3.3207567747   3.1911024215   0.3255879561
	    H     4.5850732522   2.7324940158  -0.8007180163
	    H     2.9258735136   2.8713928076  -1.3530202696
			--------------------------
			 OPTKING Finished Execution 
			--------------------------

    Structure for next step:
    Molecular point group: c1
    Full point group: C1

    Geometry (in Angstrom), charge = 0, multiplicity = 1:

    H           -4.170905293165     0.695591929103    -0.490942694168
    O           -3.467495358136     0.257880447885    -0.943274008489
    C           -3.381387625337    -1.076156206293    -0.496757545388
    C           -2.270446177618    -1.249311924746     0.528229167697
    H           -4.320510510701    -1.455421693955    -0.097538061965
    H           -3.147827272111    -1.663736853001    -1.377227232477
    C           -0.897680109847    -0.826927553360     0.006297440810
    H           -2.517862940689    -0.668584748433     1.414804872675
    H           -2.246762917132    -2.294722497702     0.832429989942
    C            0.212360188598    -1.021209466625     1.044293190431
    H           -0.949871016157     0.210365165955    -0.305416680268
    H           -0.661114380559    -1.405814386589    -0.885553992799
    C            1.622476457650    -0.691341731551     0.542129300561
    H           -0.005689434491    -0.414707678262     1.922134279087
    H            0.201954439366    -2.055977348453     1.382332998003
    C            1.858323282626     0.784747484908     0.211228758900
    H            2.337933833533    -0.995417077560     1.303729742241
    H            1.840813327157    -1.296566332972    -0.336349138857
    C            3.305412835329     1.082094032418    -0.187624490428
    H            1.593050976835     1.392780372277     1.075158627608
    H            1.199534312510     1.096768446399    -0.595070971077
    C            3.542442292383     2.553943988328    -0.523879328885
    H            3.970745654607     0.785257035641     0.620520654241
    H            3.575288101427     0.468845029086    -1.044923789619
    H            3.312445764287     3.191820724797     0.324995755944
    H            4.576762145171     2.733212354115    -0.801310130384
    H            2.917562533299     2.872111135302    -1.353612341570

gradient() will perform analytic gradient computation.

*** tstart() called on cx1-1-1-4.cx1.hpc.ic.ac.uk
*** at Fri Sep  2 21:28:43 2016


         ---------------------------------------------------------
                                   SCF
            by Justin Turney, Rob Parrish, and Andy Simmonett
                              RHF Reference
                        4 Threads,   2000 MiB Core
         ---------------------------------------------------------

  ==> Geometry <==

    Molecular point group: c1
    Full point group: C1

    Geometry (in Angstrom), charge = 0, multiplicity = 1:

       Center              X                  Y                   Z               Mass       
    ------------   -----------------  -----------------  -----------------  -----------------
           H         -4.170905293165     0.695591929103    -0.490942694168     1.007825032070
           O         -3.467495358136     0.257880447885    -0.943274008489    15.994914619560
           C         -3.381387625337    -1.076156206293    -0.496757545388    12.000000000000
           C         -2.270446177618    -1.249311924746     0.528229167697    12.000000000000
           H         -4.320510510701    -1.455421693955    -0.097538061965     1.007825032070
           H         -3.147827272111    -1.663736853001    -1.377227232477     1.007825032070
           C         -0.897680109847    -0.826927553360     0.006297440810    12.000000000000
           H         -2.517862940689    -0.668584748433     1.414804872675     1.007825032070
           H         -2.246762917132    -2.294722497702     0.832429989942     1.007825032070
           C          0.212360188598    -1.021209466625     1.044293190431    12.000000000000
           H         -0.949871016157     0.210365165955    -0.305416680268     1.007825032070
           H         -0.661114380559    -1.405814386589    -0.885553992799     1.007825032070
           C          1.622476457650    -0.691341731551     0.542129300561    12.000000000000
           H         -0.005689434491    -0.414707678262     1.922134279087     1.007825032070
           H          0.201954439366    -2.055977348453     1.382332998003     1.007825032070
           C          1.858323282626     0.784747484908     0.211228758900    12.000000000000
           H          2.337933833533    -0.995417077560     1.303729742241     1.007825032070
           H          1.840813327157    -1.296566332972    -0.336349138857     1.007825032070
           C          3.305412835329     1.082094032418    -0.187624490428    12.000000000000
           H          1.593050976835     1.392780372277     1.075158627608     1.007825032070
           H          1.199534312510     1.096768446399    -0.595070971077     1.007825032070
           C          3.542442292383     2.553943988328    -0.523879328885    12.000000000000
           H          3.970745654607     0.785257035641     0.620520654241     1.007825032070
           H          3.575288101427     0.468845029086    -1.044923789619     1.007825032070
           H          3.312445764287     3.191820724797     0.324995755944     1.007825032070
           H          4.576762145171     2.733212354115    -0.801310130384     1.007825032070
           H          2.917562533299     2.872111135302    -1.353612341570     1.007825032070

  Running in c1 symmetry.

  Rotational constants: A =      0.09775  B =      0.01658  C =      0.01469 [cm^-1]
  Rotational constants: A =   2930.35803  B =    496.93516  C =    440.37231 [MHz]
  Nuclear repulsion =  460.275254713024651

  Charge       = 0
  Multiplicity = 1
  Electrons    = 74
  Nalpha       = 37
  Nbeta        = 37

  ==> Algorithm <==

  SCF Algorithm Type is DF.
  DIIS enabled.
  MOM disabled.
  Fractional occupation disabled.
  Guess Type is READ.
  Energy threshold   = 1.00e-08
  Density threshold  = 1.00e-08
  Integral threshold = 0.00e+00

  ==> Primary Basis <==

  Basis Set: 6-31G*
    Number of shells: 90
    Number of basis function: 171
    Number of Cartesian functions: 171
    Spherical Harmonics?: false
    Max angular momentum: 2

  ==> Pre-Iterations <==

   -------------------------------------------------------
    Irrep   Nso     Nmo     Nalpha   Nbeta   Ndocc  Nsocc
   -------------------------------------------------------
     A        171     171       0       0       0       0
   -------------------------------------------------------
    Total     171     171      37      37      37       0
   -------------------------------------------------------

 OEINTS: Overlap, kinetic, potential, dipole, and quadrupole integrals
         stored in file 35.

  ==> Integral Setup <==

  ==> DFJK: Density-Fitted J/K Matrices <==

    J tasked:                  Yes
    K tasked:                  Yes
    wK tasked:                  No
    OpenMP threads:              4
    Integrals threads:           4
    Memory (MB):              1430
    Algorithm:                Core
    Integral Cache:           NONE
    Schwarz Cutoff:          1E-12
    Fitting Condition:       1E-12

   => Auxiliary Basis Set <=

  Basis Set: 
    Number of shells: 378
    Number of basis function: 1179
    Number of Cartesian functions: 1179
    Spherical Harmonics?: false
    Max angular momentum: 3

  Minimum eigenvalue in the overlap matrix is 3.0281176628E-03.
  Using Symmetric Orthogonalization.
  SCF Guess: Reading in previously saved MOs, projecting if necessary.

  Using orbitals from previous SCF, no projection.
  Recomputing DOCC and SOCC from number of alpha and beta electrons from previous calculation.
              A 
    DOCC [    37 ]

  ==> Iterations <==

                           Total Energy        Delta E     RMS |[F,P]|

   @DF-RHF iter   0:  -388.27954234924982   -3.88280e+02   9.93344e-04 
   @DF-RHF iter   1:  -388.27991677350064   -3.74424e-04   1.38311e-04 
   @DF-RHF iter   2:  -388.28043910196368   -5.22328e-04   5.07328e-05 DIIS
   @DF-RHF iter   3:  -388.28052514438411   -8.60424e-05   1.47127e-05 DIIS
   @DF-RHF iter   4:  -388.28053019775155   -5.05337e-06   4.06449e-06 DIIS
   @DF-RHF iter   5:  -388.28053086322632   -6.65475e-07   1.01689e-06 DIIS
   @DF-RHF iter   6:  -388.28053090474668   -4.15204e-08   3.25147e-07 DIIS
   @DF-RHF iter   7:  -388.28053090809340   -3.34671e-09   9.65848e-08 DIIS
   @DF-RHF iter   8:  -388.28053090840388   -3.10479e-10   2.86996e-08 DIIS
   @DF-RHF iter   9:  -388.28053090843127   -2.73985e-11   9.69607e-09 DIIS

  ==> Post-Iterations <==

    Orbital Energies (a.u.)
    -----------------------

    Doubly Occupied:                                                      

       1A    -20.553654     2A    -11.267904     3A    -11.211878  
       4A    -11.210653     5A    -11.209609     6A    -11.208820  
       7A    -11.207383     8A    -11.205904     9A    -11.204623  
      10A     -1.359769    11A     -1.088016    12A     -1.056162  
      13A     -1.007722    14A     -0.942751    15A     -0.880560  
      16A     -0.814738    17A     -0.797168    18A     -0.771807  
      19A     -0.693418    20A     -0.647595    21A     -0.638946  
      22A     -0.604125    23A     -0.594766    24A     -0.583570  
      25A     -0.567712    26A     -0.549703    27A     -0.534355  
      28A     -0.522626    29A     -0.507495    30A     -0.491922  
      31A     -0.475500    32A     -0.467647    33A     -0.463273  
      34A     -0.454717    35A     -0.446670    36A     -0.435606  
      37A     -0.420311  

    Virtual:                                                              

      38A      0.221271    39A      0.235769    40A      0.249393  
      41A      0.267037    42A      0.271717    43A      0.273940  
      44A      0.296821    45A      0.302031    46A      0.316563  
      47A      0.329441    48A      0.330400    49A      0.336132  
      50A      0.342944    51A      0.347484    52A      0.358059  
      53A      0.364023    54A      0.369307    55A      0.385690  
      56A      0.392999    57A      0.406216    58A      0.426552  
      59A      0.445752    60A      0.450027    61A      0.455209  
      62A      0.488423    63A      0.507993    64A      0.696468  
      65A      0.711586    66A      0.720579    67A      0.739227  
      68A      0.745966    69A      0.759633    70A      0.784836  
      71A      0.809404    72A      0.816303    73A      0.837351  
      74A      0.879560    75A      0.905831    76A      0.916401  
      77A      0.931475    78A      0.947566    79A      0.972774  
      80A      1.012768    81A      1.021097    82A      1.029582  
      83A      1.081434    84A      1.090929    85A      1.104998  
      86A      1.112684    87A      1.137943    88A      1.139827  
      89A      1.157078    90A      1.173199    91A      1.181036  
      92A      1.193091    93A      1.194157    94A      1.195486  
      95A      1.199679    96A      1.214040    97A      1.217410  
      98A      1.223932    99A      1.228838   100A      1.236037  
     101A      1.240609   102A      1.255788   103A      1.275733  
     104A      1.281561   105A      1.309427   106A      1.350554  
     107A      1.369418   108A      1.444567   109A      1.448495  
     110A      1.473695   111A      1.575379   112A      1.645031  
     113A      1.672963   114A      1.701712   115A      1.735240  
     116A      1.761983   117A      1.788815   118A      1.804206  
     119A      1.843362   120A      1.947891   121A      1.950702  
     122A      1.993129   123A      2.052952   124A      2.072210  
     125A      2.102826   126A      2.126051   127A      2.165380  
     128A      2.185419   129A      2.233527   130A      2.240968  
     131A      2.257848   132A      2.278823   133A      2.294027  
     134A      2.302674   135A      2.322040   136A      2.340038  
     137A      2.358117   138A      2.395025   139A      2.409579  
     140A      2.450487   141A      2.531539   142A      2.569639  
     143A      2.605606   144A      2.617502   145A      2.641406  
     146A      2.666288   147A      2.686140   148A      2.725145  
     149A      2.741755   150A      2.773185   151A      2.784038  
     152A      2.812353   153A      2.836604   154A      2.880706  
     155A      2.934762   156A      2.956469   157A      3.001333  
     158A      3.059595   159A      3.107814   160A      3.148835  
     161A      3.191515   162A      3.238248   163A      4.181329  
     164A      4.555145   165A      4.613242   166A      4.691776  
     167A      4.773538   168A      4.827805   169A      4.864765  
     170A      4.956596   171A      5.021301  

    Final Occupation by Irrep:
              A 
    DOCC [    37 ]

  Energy converged.

  @DF-RHF Final Energy:  -388.28053090843127

   => Energetics <=

    Nuclear Repulsion Energy =            460.2752547130246512
    One-Electron Energy =               -1438.9134167537554276
    Two-Electron Energy =                 590.3576311322995025
    DFT Exchange-Correlation Energy =       0.0000000000000000
    Empirical Dispersion Energy =           0.0000000000000000
    PCM Polarization Energy =               0.0000000000000000
    EFP Energy =                            0.0000000000000000
    Total Energy =                       -388.2805309084312739

    Alert: EFP and PCM quantities not currently incorporated into SCF psivars.

Properties will be evaluated at   0.000000,   0.000000,   0.000000 Bohr
  ==> Properties <==


Properties computed using the SCF density matrix

  Nuclear Dipole Moment: (a.u.)
     X:     7.0196      Y:     1.1223      Z:     1.4843

  Electronic Dipole Moment: (a.u.)
     X:    -7.4697      Y:    -1.3624      Z:    -1.0050

  Dipole Moment: (a.u.)
     X:    -0.4502      Y:    -0.2402      Z:     0.4793     Total:     0.7000

  Dipole Moment: (Debye)
     X:    -1.1442      Y:    -0.6105      Z:     1.2183     Total:     1.7793


  Saving occupied orbitals to File 180.

*** tstop() called on cx1-1-1-4.cx1.hpc.ic.ac.uk at Fri Sep  2 21:28:53 2016
Module time:
	user time   =      29.99 seconds =       0.50 minutes
	system time =       0.31 seconds =       0.01 minutes
	total time  =         10 seconds =       0.17 minutes
Total time:
	user time   =     107.48 seconds =       1.79 minutes
	system time =       1.07 seconds =       0.02 minutes
	total time  =         33 seconds =       0.55 minutes

*** tstart() called on cx1-1-1-4.cx1.hpc.ic.ac.uk
*** at Fri Sep  2 21:28:53 2016


         ------------------------------------------------------------
                                   SCF GRAD                          
                          Rob Parrish, Justin Turney,                
                       Andy Simmonett, and Alex Sokolov              
         ------------------------------------------------------------

  ==> Geometry <==

    Molecular point group: c1
    Full point group: C1

    Geometry (in Angstrom), charge = 0, multiplicity = 1:

       Center              X                  Y                   Z               Mass       
    ------------   -----------------  -----------------  -----------------  -----------------
           H         -4.170905293165     0.695591929103    -0.490942694168     1.007825032070
           O         -3.467495358136     0.257880447885    -0.943274008489    15.994914619560
           C         -3.381387625337    -1.076156206293    -0.496757545388    12.000000000000
           C         -2.270446177618    -1.249311924746     0.528229167697    12.000000000000
           H         -4.320510510701    -1.455421693955    -0.097538061965     1.007825032070
           H         -3.147827272111    -1.663736853001    -1.377227232477     1.007825032070
           C         -0.897680109847    -0.826927553360     0.006297440810    12.000000000000
           H         -2.517862940689    -0.668584748433     1.414804872675     1.007825032070
           H         -2.246762917132    -2.294722497702     0.832429989942     1.007825032070
           C          0.212360188598    -1.021209466625     1.044293190431    12.000000000000
           H         -0.949871016157     0.210365165955    -0.305416680268     1.007825032070
           H         -0.661114380559    -1.405814386589    -0.885553992799     1.007825032070
           C          1.622476457650    -0.691341731551     0.542129300561    12.000000000000
           H         -0.005689434491    -0.414707678262     1.922134279087     1.007825032070
           H          0.201954439366    -2.055977348453     1.382332998003     1.007825032070
           C          1.858323282626     0.784747484908     0.211228758900    12.000000000000
           H          2.337933833533    -0.995417077560     1.303729742241     1.007825032070
           H          1.840813327157    -1.296566332972    -0.336349138857     1.007825032070
           C          3.305412835329     1.082094032418    -0.187624490428    12.000000000000
           H          1.593050976835     1.392780372277     1.075158627608     1.007825032070
           H          1.199534312510     1.096768446399    -0.595070971077     1.007825032070
           C          3.542442292383     2.553943988328    -0.523879328885    12.000000000000
           H          3.970745654607     0.785257035641     0.620520654241     1.007825032070
           H          3.575288101427     0.468845029086    -1.044923789619     1.007825032070
           H          3.312445764287     3.191820724797     0.324995755944     1.007825032070
           H          4.576762145171     2.733212354115    -0.801310130384     1.007825032070
           H          2.917562533299     2.872111135302    -1.353612341570     1.007825032070

  Nuclear repulsion =  460.275254713024651

  ==> Basis Set <==

  Basis Set: 6-31G*
    Number of shells: 90
    Number of basis function: 171
    Number of Cartesian functions: 171
    Spherical Harmonics?: false
    Max angular momentum: 2

  ==> DFJKGrad: Density-Fitted SCF Gradients <==

    Gradient:                    1
    J tasked:                  Yes
    K tasked:                  Yes
    wK tasked:                  No
    OpenMP threads:              4
    Integrals threads:           4
    Memory (MB):              1430
    Schwarz Cutoff:          0E+00
    Fitting Condition:       1E-12

   => Auxiliary Basis Set <=

  Basis Set: 
    Number of shells: 378
    Number of basis function: 1179
    Number of Cartesian functions: 1179
    Spherical Harmonics?: false
    Max angular momentum: 3


  -Total Gradient:
     Atom            X                  Y                   Z
    ------   -----------------  -----------------  -----------------
       1        0.000172951178    -0.002796888916    -0.001646838434
       2        0.007035947424     0.002649611102    -0.001805148822
       3       -0.009317381869     0.002281574834     0.005972663759
       4        0.001141259217     0.000190356530    -0.002146640021
       5        0.001030497580    -0.005093453092     0.001295357228
       6        0.001089734793     0.002362768885    -0.000233500898
       7       -0.000760211914    -0.000437682277    -0.000272758208
       8       -0.000291082935     0.000193761571    -0.000898291778
       9       -0.000093357377    -0.000021694247    -0.000569331125
      10        0.000424142302    -0.000218777453     0.000382911669
      11       -0.000163295947     0.000735646714    -0.000220412948
      12       -0.000180428844     0.000259539783     0.000005633438
      13       -0.000153421663     0.000049869026     0.000026355304
      14        0.000010902438     0.000003377353    -0.000053623707
      15        0.000188471082    -0.000111532542     0.000143764539
      16       -0.000037130935    -0.000023170826     0.000023595221
      17       -0.000058743188    -0.000027913120     0.000026499119
      18       -0.000042327413     0.000009655054     0.000014797258
      19        0.000042019447     0.000000989612     0.000011198790
      20       -0.000008732642    -0.000022562105    -0.000031242326
      21       -0.000026023544     0.000045947064    -0.000042813201
      22       -0.000021179766    -0.000015781640     0.000016653219
      23        0.000025824988     0.000006761532     0.000005521458
      24       -0.000011658859     0.000004036373     0.000008374481
      25       -0.000004141694    -0.000014339090    -0.000009294602
      26        0.000002176958    -0.000010423423    -0.000003820650
      27        0.000005191185     0.000000323301     0.000000391239


*** tstop() called on cx1-1-1-4.cx1.hpc.ic.ac.uk at Fri Sep  2 21:29:05 2016
Module time:
	user time   =      42.04 seconds =       0.70 minutes
	system time =       0.30 seconds =       0.00 minutes
	total time  =         12 seconds =       0.20 minutes
Total time:
	user time   =     149.54 seconds =       2.49 minutes
	system time =       1.37 seconds =       0.02 minutes
	total time  =         45 seconds =       0.75 minutes
CURRENT ENERGY: -388.2805309084

			-----------------------------------------
			 OPTKING 2.0: for geometry optimizations 
			  - R.A. King,  Bethel University        
			-----------------------------------------

	Previous internal coordinate definitions found.
	---Fragment 1 Geometry and Gradient---
	 H          -7.8818687303        1.3144782462       -0.9277472389
	 O          -6.5526165939        0.4873234215       -1.7825295443
	 C          -6.3898965610       -2.0336405061       -0.9387357152
	 C          -4.2905214752       -2.3608573923        0.9982084623
	 H          -8.1645816195       -2.7503484094       -0.1843202246
	 H          -5.9485314579       -3.1440070094       -2.6025822921
	 C          -1.6963695625       -1.5626666076        0.0119004385
	 H          -4.7580713980       -1.2634420712        2.6735937408
	 H          -4.2457665989       -4.3363970716        1.5730647058
	 C           0.4013025980       -1.9298062162        1.9734281324
	 H          -1.7949960821        0.3975325516       -0.5771538821
	 H          -1.2493251218       -2.6566041843       -1.6734545223
	 C           3.0660361620       -1.3064465369        1.0244759067
	 H          -0.0107514730       -0.7836839371        3.6323073781
	 H           0.3816385817       -3.8852341240        2.6122307907
	 C           3.5117220705        1.4829578299        0.3991645057
	 H           4.4180546622       -1.8810656646        2.4636921641
	 H           3.4786330501       -2.4501552824       -0.6356077575
	 C           6.2463250149        2.0448613713       -0.3545589027
	 H           3.0104300619        2.6319734669        2.0317553556
	 H           2.2667913376        2.0725919949       -1.1245211650
	 C           6.6942457742        4.8262546967       -0.9899884583
	 H           7.5036218306        1.4839207413        1.1726140963
	 H           6.7563153579        0.8859887037       -1.9746197921
	 H           6.2596153245        6.0316670351        0.6141529731
	 H           8.6488270297        5.1650228123       -1.5142566939
	 H           5.5133941635        5.4275034689       -2.5579566157
	             0.0001729512       -0.0027968889       -0.0016468384
	             0.0070359474        0.0026496111       -0.0018051488
	            -0.0093173819        0.0022815748        0.0059726638
	             0.0011412592        0.0001903565       -0.0021466400
	             0.0010304976       -0.0050934531        0.0012953572
	             0.0010897348        0.0023627689       -0.0002335009
	            -0.0007602119       -0.0004376823       -0.0002727582
	            -0.0002910829        0.0001937616       -0.0008982918
	            -0.0000933574       -0.0000216942       -0.0005693311
	             0.0004241423       -0.0002187775        0.0003829117
	            -0.0001632959        0.0007356467       -0.0002204129
	            -0.0001804288        0.0002595398        0.0000056334
	            -0.0001534217        0.0000498690        0.0000263553
	             0.0000109024        0.0000033774       -0.0000536237
	             0.0001884711       -0.0001115325        0.0001437645
	            -0.0000371309       -0.0000231708        0.0000235952
	            -0.0000587432       -0.0000279131        0.0000264991
	            -0.0000423274        0.0000096551        0.0000147973
	             0.0000420194        0.0000009896        0.0000111988
	            -0.0000087326       -0.0000225621       -0.0000312423
	            -0.0000260235        0.0000459471       -0.0000428132
	            -0.0000211798       -0.0000157816        0.0000166532
	             0.0000258250        0.0000067615        0.0000055215
	            -0.0000116589        0.0000040364        0.0000083745
	            -0.0000041417       -0.0000143391       -0.0000092946
	             0.0000021770       -0.0000104234       -0.0000038206
	             0.0000051912        0.0000003233        0.0000003912

	---Fragment 1 Intrafragment Coordinates---
	 - Coordinate -           - BOHR/RAD -       - ANG/DEG -
	 R(1,2)           =         1.783746	       0.943918
	 R(2,3)           =         2.663405	       1.409413
	 R(3,4)           =         2.875100	       1.521437
	 R(3,5)           =         2.057260	       1.088655
	 R(3,6)           =         2.048439	       1.083987
	 R(4,7)           =         2.887826	       1.528172
	 R(4,8)           =         2.056657	       1.088336
	 R(4,9)           =         2.057965	       1.089028
	 R(7,10)          =         2.895274	       1.532113
	 R(7,11)          =         2.049169	       1.084374
	 R(7,12)          =         2.058390	       1.089253
	 R(10,13)         =         2.896531	       1.532778
	 R(10,14)         =         2.057976	       1.089034
	 R(10,15)         =         2.057220	       1.088634
	 R(13,16)         =         2.893169	       1.530999
	 R(13,17)         =         2.056571	       1.088291
	 R(13,18)         =         2.057713	       1.088895
	 R(16,19)         =         2.891693	       1.530218
	 R(16,20)         =         2.058369	       1.089242
	 R(16,21)         =         2.054054	       1.086959
	 R(19,22)         =         2.888001	       1.528265
	 R(19,23)         =         2.056139	       1.088062
	 R(19,24)         =         2.056131	       1.088058
	 R(22,25)         =         2.053093	       1.086450
	 R(22,26)         =         2.051831	       1.085782
	 R(22,27)         =         2.052909	       1.086353
	 B(1,2,3)         =         1.909886	     109.428387
	 B(2,3,4)         =         1.945255	     111.454898
	 B(2,3,5)         =         1.974930	     113.155144
	 B(2,3,6)         =         1.843047	     105.598808
	 B(3,4,7)         =         1.976195	     113.227610
	 B(3,4,8)         =         1.898719	     108.788583
	 B(3,4,9)         =         1.889480	     108.259247
	 B(4,3,5)         =         1.921115	     110.071757
	 B(4,3,6)         =         1.905182	     109.158873
	 B(4,7,10)        =         1.965351	     112.606321
	 B(4,7,11)        =         1.895831	     108.623117
	 B(4,7,12)        =         1.904820	     109.138128
	 B(5,3,6)         =         1.870134	     107.150799
	 B(7,4,8)         =         1.912355	     109.569877
	 B(7,4,9)         =         1.918985	     109.949750
	 B(7,10,13)       =         2.001255	     114.663481
	 B(7,10,14)       =         1.907548	     109.294478
	 B(7,10,15)       =         1.900730	     108.903799
	 B(8,4,9)         =         1.864622	     106.834953
	 B(10,7,11)       =         1.929354	     110.543846
	 B(10,7,12)       =         1.907068	     109.266952
	 B(10,13,16)      =         2.004263	     114.835810
	 B(10,13,17)      =         1.891677	     108.385105
	 B(10,13,18)      =         1.906208	     109.217692
	 B(11,7,12)       =         1.858204	     106.467232
	 B(13,10,14)      =         1.905437	     109.173476
	 B(13,10,15)      =         1.891342	     108.365930
	 B(13,16,19)      =         1.970735	     112.914797
	 B(13,16,20)      =         1.906309	     109.223463
	 B(13,16,21)      =         1.921676	     110.103928
	 B(14,10,15)      =         1.851620	     106.090010
	 B(16,13,17)      =         1.895856	     108.624564
	 B(16,13,18)      =         1.907761	     109.306659
	 B(16,19,22)      =         1.972693	     113.026978
	 B(16,19,23)      =         1.908857	     109.369447
	 B(16,19,24)      =         1.907535	     109.293724
	 B(17,13,18)      =         1.851950	     106.108940
	 B(19,16,20)      =         1.905588	     109.182163
	 B(19,16,21)      =         1.900782	     108.906788
	 B(19,22,25)      =         1.939817	     111.143350
	 B(19,22,26)      =         1.942256	     111.283046
	 B(19,22,27)      =         1.940031	     111.155576
	 B(20,16,21)      =         1.855118	     106.290444
	 B(22,19,23)      =         1.908501	     109.349078
	 B(22,19,24)      =         1.908141	     109.328429
	 B(23,19,24)      =         1.854367	     106.247387
	 B(25,22,26)      =         1.880067	     107.719932
	 B(25,22,27)      =         1.878677	     107.640268
	 B(26,22,27)      =         1.880142	     107.724219
	*D(1,2,3,4)       =        -1.745329	     -99.999988
	 D(1,2,3,5)       =         0.430919	      24.689814
	 D(1,2,3,6)       =         2.471156	     141.586800
	 D(2,3,4,7)       =        -1.004040	     -57.527265
	 D(2,3,4,8)       =         1.126564	      64.547353
	 D(2,3,4,9)       =        -3.136474	    -179.706742
	 D(3,4,7,10)      =        -3.130848	    -179.384356
	 D(3,4,7,11)      =         1.009379	      57.833151
	 D(3,4,7,12)      =        -1.009871	     -57.861341
	 D(4,7,10,13)     =         3.080615	     176.506212
	 D(4,7,10,14)     =        -1.056987	     -60.560879
	 D(4,7,10,15)     =         0.958600	      54.923707
	 D(5,3,4,7)       =         3.073050	     176.072809
	 D(5,3,4,8)       =        -1.079531	     -61.852573
	 D(5,3,4,9)       =         0.940616	      53.893332
	 D(6,3,4,7)       =         1.025032	      58.730013
	 D(6,3,4,8)       =        -3.127549	    -179.195369
	 D(6,3,4,9)       =        -1.107402	     -63.449464
	 D(7,10,13,16)    =         1.156028	      66.235517
	 D(7,10,13,17)    =        -3.004036	    -172.118597
	 D(7,10,13,18)    =        -0.993724	     -56.936208
	 D(8,4,7,10)      =         1.029367	      58.978377
	 D(8,4,7,11)      =        -1.113592	     -63.804116
	 D(8,4,7,12)      =        -3.132842	    -179.498608
	 D(9,4,7,10)      =        -1.014958	     -58.152788
	 D(9,4,7,11)      =         3.125269	     179.064719
	 D(9,4,7,12)      =         1.106019	      63.370227
	 D(10,13,16,19)   =         3.068553	     175.815109
	 D(10,13,16,20)   =         0.944818	      54.134108
	 D(10,13,16,21)   =        -1.086010	     -62.223816
	 D(11,7,10,13)    =        -1.078522	     -61.794742
	 D(11,7,10,14)    =         1.067062	      61.138167
	 D(11,7,10,15)    =         3.082649	     176.622752
	 D(12,7,10,13)    =         0.960916	      55.056454
	 D(12,7,10,14)    =         3.106500	     177.989363
	 D(12,7,10,15)    =        -1.161099	     -66.526051
	 D(13,16,19,22)   =         3.137602	     179.771335
	 D(13,16,19,23)   =        -1.014973	     -58.153648
	 D(13,16,19,24)   =         1.008405	      57.777371
	 D(14,10,13,16)   =        -0.990692	     -56.762488
	 D(14,10,13,17)   =         1.132429	      64.883399
	 D(14,10,13,18)   =        -3.140444	    -179.934213
	 D(15,10,13,16)   =        -3.000023	    -171.888636
	 D(15,10,13,17)   =        -0.876901	     -50.242749
	 D(15,10,13,18)   =         1.133411	      64.939639
	 D(16,19,22,25)   =         1.044945	      59.870914
[...]

	Back-transformation to cartesian coordinates...
	Successfully converged to displaced geometry.

	Back-transformation to cartesian coordinates to adjust frozen coordinates...
	Successfully converged to displaced geometry.

	--- Internal Coordinate Step in ANG or DEG, aJ/ANG or AJ/DEG ---
	 ---------------------------------------------------------------------------
	   Coordinate                Previous        Force       Change         New 
	   ----------                --------       ------       ------       ------
	    1 R(1,2)          =      0.945138     0.000219     0.000019     0.945157
	    2 R(2,3)          =      1.408599    -0.000330    -0.000006     1.408593
	    3 R(3,4)          =      1.523452     0.000123     0.000044     1.523495
	    4 R(3,5)          =      1.087276    -0.000059    -0.000014     1.087262
	    5 R(3,6)          =      1.084732    -0.000025    -0.000005     1.084727
	    6 R(4,7)          =      1.529158     0.000367     0.000064     1.529223
	    7 R(4,8)          =      1.088782     0.000062     0.000010     1.088792
	    8 R(4,9)          =      1.089193    -0.000141    -0.000019     1.089175
	    9 R(7,10)         =      1.531049    -0.000052    -0.000013     1.531035
	   10 R(7,11)         =      1.083750    -0.000013    -0.000005     1.083745
	   11 R(7,12)         =      1.089505     0.000021     0.000005     1.089510
	   12 R(10,13)        =      1.533144     0.000102     0.000016     1.533160
	   13 R(10,14)        =      1.089030     0.000009    -0.000001     1.089029
	   14 R(10,15)        =      1.088499     0.000011     0.000005     1.088504
	   15 R(13,16)        =      1.531053    -0.000039    -0.000007     1.531046
	   16 R(13,17)        =      1.088282     0.000001    -0.000001     1.088281
	   17 R(13,18)        =      1.088930     0.000020     0.000003     1.088932
	   18 R(16,19)        =      1.530167    -0.000031    -0.000006     1.530161
	   19 R(16,20)        =      1.089261     0.000016     0.000001     1.089262
	   20 R(16,21)        =      1.086900    -0.000065    -0.000008     1.086891
	   21 R(19,22)        =      1.528324     0.000007     0.000002     1.528326
	   22 R(19,23)        =      1.088044     0.000020     0.000003     1.088048
	   23 R(19,24)        =      1.088075    -0.000004    -0.000001     1.088075
	   24 R(22,25)        =      1.086462    -0.000008    -0.000001     1.086461
	   25 R(22,26)        =      1.085776     0.000003     0.000001     1.085777
	   26 R(22,27)        =      1.086355     0.000003     0.000000     1.086355
	   27 B(1,2,3)        =    109.908474    -0.000001     0.001078   109.909552
	   28 B(2,3,4)        =    112.039224    -0.000005    -0.015303   112.023921
	   29 B(2,3,5)        =    110.608752    -0.000002    -0.024842   110.583911
	   30 B(2,3,6)        =    106.933499     0.000000    -0.000279   106.933220
	   31 B(3,4,7)        =    113.225167    -0.000002    -0.010314   113.214853
	   32 B(3,4,8)        =    108.875624    -0.000000    -0.009214   108.866410
	   33 B(3,4,9)        =    108.391683     0.000001     0.012824   108.404507
	   34 B(4,3,5)        =    110.164107     0.000005     0.018077   110.182184
	   35 B(4,3,6)        =    109.806839     0.000003     0.020486   109.827325
	   36 B(4,7,10)       =    112.663735     0.000002     0.004827   112.668562
	   37 B(4,7,11)       =    108.641787     0.000000    -0.002605   108.639182
	   38 B(4,7,12)       =    109.080184    -0.000002    -0.008484   109.071700
	   39 B(5,3,6)        =    107.116822    -0.000001     0.002481   107.119303
	   40 B(7,4,8)        =    109.647458     0.000001     0.005328   109.652786
	   41 B(7,4,9)        =    109.861505     0.000001     0.003005   109.864510
	   42 B(7,10,13)      =    114.690578     0.000002     0.004515   114.695093
	   43 B(7,10,14)      =    109.320595    -0.000001    -0.001944   109.318651
	   44 B(7,10,15)      =    108.794305    -0.000000    -0.001945   108.792360
	   45 B(8,4,9)        =    106.616299    -0.000000    -0.001163   106.615136
	   46 B(10,7,11)      =    110.520881    -0.000002    -0.005792   110.515088
	   47 B(10,7,12)      =    109.188449     0.000000     0.003630   109.192080
	   48 B(10,13,16)     =    114.796407     0.000000    -0.000806   114.795602
	   49 B(10,13,17)     =    108.421987    -0.000000    -0.001102   108.420885
	   50 B(10,13,18)     =    109.225373     0.000000     0.002396   109.227769
	   51 B(11,7,12)      =    106.552134     0.000001     0.008559   106.560693
	   52 B(13,10,14)     =    109.189471     0.000000     0.003743   109.193214
	   53 B(13,10,15)     =    108.400769    -0.000001    -0.003686   108.397083
	   54 B(13,16,19)     =    112.932531     0.000000     0.001552   112.934083
	   55 B(13,16,20)     =    109.217538    -0.000000    -0.002545   109.214993
	   56 B(13,16,21)     =    110.089816    -0.000000    -0.000220   110.089596
	   57 B(14,10,15)     =    106.093218     0.000000    -0.001147   106.092071
	   58 B(16,13,17)     =    108.621198    -0.000000    -0.003358   108.617840
	   59 B(16,13,18)     =    109.312625     0.000000     0.002989   109.315614
	   60 B(16,19,22)     =    113.027878    -0.000000    -0.000292   113.027586
	   61 B(16,19,23)     =    109.361037     0.000000     0.001436   109.362473
	   62 B(16,19,24)     =    109.300680    -0.000000    -0.000880   109.299800
	   63 B(17,13,18)     =    106.103704     0.000000    -0.000161   106.103543
	   64 B(19,16,20)     =    109.182888    -0.000000    -0.000075   109.182813
	   65 B(19,16,21)     =    108.908190    -0.000000     0.001364   108.909554
	   66 B(19,22,25)     =    111.144919     0.000000     0.000039   111.144958
	   67 B(19,22,26)     =    111.285420    -0.000000     0.000023   111.285443
	   68 B(19,22,27)     =    111.153958    -0.000000    -0.000194   111.153765
	   69 B(20,16,21)     =    106.289626     0.000000    -0.000171   106.289455
	   70 B(22,19,23)     =    109.350776    -0.000000    -0.000041   109.350735
	   71 B(22,19,24)     =    109.328954     0.000000    -0.000041   109.328913
	   72 B(23,19,24)     =    106.245552    -0.000000    -0.000177   106.245375
	   73 B(25,22,26)     =    107.716851     0.000000     0.000218   107.717069
	   74 B(25,22,27)     =    107.638784    -0.000000    -0.000241   107.638543
	   75 B(26,22,27)     =    107.726310     0.000000     0.000162   107.726472
	   76 *D(1,2,3,4)     =    -99.999988     0.000000    -0.000000   -99.999988
	   77 D(1,2,3,5)      =     23.335742     0.000000    -0.005723    23.330019
	   78 D(1,2,3,6)      =    139.643169    -0.000000    -0.015980   139.627189
	   79 D(2,3,4,7)      =    -60.814828    -0.000000     0.067293   -60.747535
	   80 D(2,3,4,8)      =     61.420178    -0.000000     0.060498    61.480676
	   81 D(2,3,4,9)      =    177.024944    -0.000000     0.061118   177.086062
	   82 D(3,4,7,10)     =    178.604606    -0.000000     0.039145   178.643751
	   83 D(3,4,7,11)     =     55.799595     0.000000     0.045150    55.844745
	   84 D(3,4,7,12)     =    -59.974672    -0.000000     0.040996   -59.933676
	   85 D(4,7,10,13)    =    175.858941    -0.000000     0.058383   175.917324
	   86 D(4,7,10,14)    =    -61.147530     0.000000     0.065026   -61.082504
	   87 D(4,7,10,15)    =     54.294823     0.000000     0.061533    54.356356
	   88 D(5,3,4,7)      =    175.599416     0.000001     0.097039   175.696455
	   89 D(5,3,4,8)      =    -62.165578     0.000001     0.090244   -62.075335
	   90 D(5,3,4,9)      =     53.439187     0.000001     0.090864    53.530051
	   91 D(6,3,4,7)      =     57.856250    -0.000000     0.070758    57.927008
	   92 D(6,3,4,8)      =   -179.908744    -0.000000     0.063963  -179.844781
	   93 D(6,3,4,9)      =    -64.303979    -0.000000     0.064583   -64.239395
	   94 D(7,10,13,16)   =     66.233621     0.000000     0.052558    66.286179
	   95 D(7,10,13,17)   =   -172.123877     0.000000     0.046850  -172.077027
	   96 D(7,10,13,18)   =    -56.923627     0.000000     0.047337   -56.876289
	   97 D(8,4,7,10)     =     56.800908     0.000000     0.054205    56.855113
	   98 D(8,4,7,11)     =    -66.004103     0.000000     0.060210   -65.943893
	   99 D(8,4,7,12)     =    178.221630     0.000000     0.056056   178.277686
	  100 D(9,4,7,10)     =    -60.058974    -0.000000     0.050742   -60.008232
	  101 D(9,4,7,11)     =    177.136015     0.000000     0.056747   177.192762
	  102 D(9,4,7,12)     =     61.361748     0.000000     0.052593    61.414341
	  103 D(10,13,16,19)  =    176.182404    -0.000000    -0.091667   176.090736
	  104 D(10,13,16,20)  =     54.492801    -0.000000    -0.090800    54.402001
	  105 D(10,13,16,21)  =    -61.852644    -0.000000    -0.088990   -61.941633
	  106 D(11,7,10,13)   =    -62.394446    -0.000000     0.054211   -62.340235
	  107 D(11,7,10,14)   =     60.599083     0.000000     0.060854    60.659937
	  108 D(11,7,10,15)   =    176.041436     0.000000     0.057361   176.098797
	  109 D(12,7,10,13)   =     54.499781     0.000000     0.063416    54.563197
	  110 D(12,7,10,14)   =    177.493310     0.000000     0.070058   177.563369
	  111 D(12,7,10,15)   =    -67.064337     0.000000     0.066566   -66.997771
	  112 D(13,16,19,22)  =    179.886396     0.000000     0.000347   179.886743
	  113 D(13,16,19,23)  =    -58.041868     0.000000     0.001133   -58.040736
	  114 D(13,16,19,24)  =     57.886142     0.000000     0.001231    57.887373
	  115 D(14,10,13,16)  =    -56.830362     0.000000     0.048981   -56.781381
	  116 D(14,10,13,17)  =     64.812140    -0.000000     0.043273    64.855414
	  117 D(14,10,13,18)  =   -179.987610     0.000000     0.043760  -179.943849
	  118 D(15,10,13,16)  =   -171.987613     0.000000     0.050345  -171.937268
	  119 D(15,10,13,17)  =    -50.345111     0.000000     0.044637   -50.300474
	  120 D(15,10,13,18)  =     64.855139     0.000000     0.045124    64.900263
	  121 D(16,19,22,25)  =     59.901533     0.000000     0.002946    59.904479
	  122 D(16,19,22,26)  =    179.957796     0.000000     0.003264   179.961060
	  123 D(16,19,22,27)  =    -59.967868     0.000000     0.003354   -59.964514
	  124 D(17,13,16,19)  =     54.648433    -0.000000    -0.087181    54.561252
	  125 D(17,13,16,20)  =    -67.041169    -0.000000    -0.086313   -67.127482
	  126 D(17,13,16,21)  =    176.613386    -0.000000    -0.084503   176.528883
	  127 D(18,13,16,19)  =    -60.707078    -0.000000    -0.086763   -60.793841
	  128 D(18,13,16,20)  =    177.603319    -0.000000    -0.085895   177.517424
	  129 D(18,13,16,21)  =     61.257875    -0.000000    -0.084085    61.173790
	  130 D(20,16,19,22)  =    -58.404464    -0.000000    -0.001914   -58.406378
	  131 D(20,16,19,23)  =     63.667272    -0.000000    -0.001128    63.666144
	  132 D(20,16,19,24)  =    179.595282    -0.000000    -0.001030   179.594252
	  133 D(21,16,19,22)  =     57.259459    -0.000000    -0.001407    57.258052
	  134 D(21,16,19,23)  =    179.331196    -0.000000    -0.000622   179.330574
	  135 D(21,16,19,24)  =    -64.740794    -0.000000    -0.000524   -64.741318
	  136 D(23,19,22,25)  =    -62.175955    -0.000000     0.001333   -62.174622
	  137 D(23,19,22,26)  =     57.880308    -0.000000     0.001651    57.881959
	  138 D(23,19,22,27)  =    177.954644    -0.000000     0.001741   177.956385
	  139 D(24,19,22,25)  =   -178.114077    -0.000000     0.001591  -178.112485
	  140 D(24,19,22,26)  =    -58.057813    -0.000000     0.001909   -58.055904
	  141 D(24,19,22,27)  =     62.016523    -0.000000     0.001999    62.018522
	 ---------------------------------------------------------------------------

  ==> Convergence Check <==

  Measures of convergence in internal coordinates in au.
  Criteria marked as inactive (o), active & met (*), and active & unmet ( ).
  ---------------------------------------------------------------------------------------------
   Step     Total Energy     Delta E     MAX Force     RMS Force      MAX Disp      RMS Disp   
  ---------------------------------------------------------------------------------------------
    Convergence Criteria    1.00e-06 *    3.00e-04 *             o    1.20e-03 *             o
  ---------------------------------------------------------------------------------------------
      5    -388.28095907   -7.97e-07 *    6.70e-05 *    1.35e-05 o    1.69e-03      6.58e-04 o  ~
  ---------------------------------------------------------------------------------------------


  **** Optimization is complete! (in 5 steps) ****

  ==> Optimization Summary <==

  Measures of convergence in internal coordinates in au.
  --------------------------------------------------------------------------------------------------------------- ~
   Step         Total Energy             Delta E       MAX Force       RMS Force        MAX Disp        RMS Disp  ~
  --------------------------------------------------------------------------------------------------------------- ~
      1    -388.279240939141   -388.279240939141      0.01157077      0.00177819      0.12877735      0.02600410  ~
      2    -388.280530908431     -0.001289969290      0.00625295      0.00090958      0.04840829      0.01052639  ~
      3    -388.280950643452     -0.000419735021      0.00075970      0.00013638      0.00993568      0.00263173  ~
      4    -388.280958270277     -0.000007626825      0.00037104      0.00004743      0.00653918      0.00263193  ~
      5    -388.280959067003     -0.000000796727      0.00006695      0.00001352      0.00169365      0.00065846  ~
  --------------------------------------------------------------------------------------------------------------- ~

	Writing optimization data to binary file.
	Final energy is   -388.2809590670034
	Final (previous) structure:
	Cartesian Geometry (in Angstrom)
	    H    -4.2370386771   0.6721140641  -0.4186945064
	    O    -3.5124692465   0.2858836049  -0.8867870175
	    C    -3.3713786933  -1.0669539174  -0.5206249277
	    C    -2.2624296143  -1.2691435740   0.5041951783
	    H    -4.3105404958  -1.4601121856  -0.1390870348
	    H    -3.1395264945  -1.6168988841  -1.4264111440
	    C    -0.8861599670  -0.8372575909  -0.0034285458
	    H    -2.5109567197  -0.7128027441   1.4065063181
	    H    -2.2402916934  -2.3217004121   0.7834368110
	    C     0.2126251483  -1.0140860008   1.0480052623
	    H    -0.9435332754   0.1967841443  -0.3227709076
	    H    -0.6331736748  -1.4215598632  -0.8875152679
	    C     1.6279183551  -0.6891601399   0.5561716955
	    H    -0.0156631640  -0.3961092261   1.9151708523
	    H     0.1990775830  -2.0441556323   1.3995761653
	    C     1.8640672838   0.7825785923   0.2063967633
	    H     2.3360842185  -0.9805136217   1.3294581027
	    H     1.8567201078  -1.3066345864  -0.3110900593
	    C     3.3125445919   1.0762170044  -0.1899620997
	    H     1.5942196607   1.4019313873   1.0608402729
	    H     1.2085616927   1.0828509642  -0.6069298275
	    C     3.5500997997   2.5442891004  -0.5422479669
	    H     3.9746138433   0.7891711932   0.6243532819
	    H     3.5864361192   0.4532437354  -1.0389588606
	    H     3.3167905856   3.1917757449   0.2984230631
	    H     4.5853086764   2.7209303645  -0.8180200533
	    H     2.9279957840   2.8525854411  -1.3777756879
	Saving final (previous) structure.
			--------------------------
			 OPTKING Finished Execution 
			--------------------------

    Final optimized geometry and variables:
    Molecular point group: c1
    Full point group: C1

    Geometry (in Angstrom), charge = 0, multiplicity = 1:

    H           -4.237038353560     0.672114012816    -0.418694474393
    O           -3.512468978268     0.285883583033    -0.886786949740
    C           -3.371378435803    -1.066953835907    -0.520624887896
    C           -2.262429441580    -1.269143477073     0.504195139757
    H           -4.310540166596    -1.460112074055    -0.139087024195
    H           -3.139526254748    -1.616898760636    -1.426411035091
    C           -0.886159899297    -0.837257526958    -0.003428545568
    H           -2.510956527921    -0.712802689654     1.406506210704
    H           -2.240291522368    -2.321700234780     0.783436751130
    C            0.212625132088    -1.014085923387     1.048005182297
    H           -0.943533203396     0.196784129231    -0.322770882949
    H           -0.633173626493    -1.421559754594    -0.887515200139
    C            1.627918230757    -0.689160087311     0.556171653051
    H           -0.015663162833    -0.396109195856     1.915170706001
    H            0.199077567760    -2.044155476180     1.399576058390
    C            1.864067141441     0.782578532521     0.206396747549
    H            2.336084040153    -0.980513546834     1.329458001162
    H            1.856719965988    -1.306634486571    -0.311090035496
    C            3.312544338916     1.076216922246    -0.189962085204
    H            1.594219538910     1.401931280199     1.060840191937
    H            1.208561600369     1.082850881474    -0.606929781149
    C            3.550099528579     2.544288906085    -0.542247925467
    H            3.974613539809     0.789171132981     0.624353234211
    H            3.586435845321     0.453243700755    -1.038958781232
    H            3.316790332298     3.191775501191     0.298423040360
    H            4.585308326244     2.720930156714    -0.818019990882
    H            2.927995560428     2.852585223230    -1.377775582686

	Cleaning optimization helper files.


Properties will be evaluated at   0.000000,   0.000000,   0.000000 Bohr

Properties computed using the  density matrix

  Nuclear Dipole Moment: (a.u.)
     X:     7.0658      Y:     1.0334      Z:     1.3743

  Electronic Dipole Moment: (a.u.)
     X:    -7.5020      Y:    -1.3197      Z:    -0.9105

  Dipole Moment: (a.u.)
     X:    -0.4362      Y:    -0.2862      Z:     0.4638     Total:     0.6981

  Dipole Moment: (Debye)
     X:    -1.1087      Y:    -0.7276      Z:     1.1789     Total:     1.7743

  Quadrupole Moment: (Debye Ang)
    XX:   -52.3141     YY:   -59.6026     ZZ:   -62.1020
    XY:     0.9885     XZ:    -4.1353     YZ:     1.7360

  Traceless Quadrupole Moment: (Debye Ang)
    XX:     5.6921     YY:    -1.5964     ZZ:    -4.0958
    XY:     0.9885     XZ:    -4.1353     YZ:     1.7360

  Mulliken Charges: (a.u.)
   Center  Symbol    Alpha    Beta     Spin     Total
       1     H     0.28035  0.28035  0.00000  0.43930
       2     O     4.37086  4.37086  0.00000 -0.74172
       3     C     3.00149  3.00149  0.00000 -0.00298
       4     C     3.15805  3.15805  0.00000 -0.31610
       5     H     0.42851  0.42851  0.00000  0.14298
       6     H     0.41954  0.41954  0.00000  0.16092
       7     C     3.15698  3.15698  0.00000 -0.31396
       8     H     0.42528  0.42528  0.00000  0.14943
       9     H     0.42575  0.42575  0.00000  0.14850
      10     C     3.15285  3.15285  0.00000 -0.30571
      11     H     0.40587  0.40587  0.00000  0.18825
      12     H     0.42587  0.42587  0.00000  0.14825
      13     C     3.15276  3.15276  0.00000 -0.30552
      14     H     0.42474  0.42474  0.00000  0.15053
      15     H     0.42419  0.42419  0.00000  0.15162
      16     C     3.15292  3.15292  0.00000 -0.30583
      17     H     0.42316  0.42316  0.00000  0.15368
      18     H     0.42439  0.42439  0.00000  0.15123
      19     C     3.15100  3.15100  0.00000 -0.30200
      20     H     0.42526  0.42526  0.00000  0.14949
      21     H     0.41974  0.41974  0.00000  0.16052
      22     C     3.23905  3.23905  0.00000 -0.47810
      23     H     0.42405  0.42405  0.00000  0.15190
      24     H     0.42343  0.42343  0.00000  0.15315
      25     H     0.42231  0.42231  0.00000  0.15539
      26     H     0.42024  0.42024  0.00000  0.15952
      27     H     0.42137  0.42137  0.00000  0.15725

   Total alpha = 37.00000, Total beta = 37.00000, Total charge =  0.00000


*** PSI4 exiting successfully. Buy a developer a beer!
