    -----------------------------------------------------------------------
          Psi4: An Open-Source Ab Initio Electronic Structure Package
                              Psi4 (no tag) Driver

                          Git: Rev {detached?}  

    J. M. Turney, A. C. Simmonett, R. M. Parrish, E. G. Hohenstein,
    F. A. Evangelista, J. T. Fermann, B. J. Mintz, L. A. Burns, J. J. Wilke,
    M. L. Abrams, N. J. Russ, M. L. Leininger, C. L. Janssen, E. T. Seidl,
    W. D. Allen, H. F. Schaefer, R. A. King, E. F. Valeev, C. D. Sherrill,
    and T. D. Crawford, WIREs Comput. Mol. Sci. 2, 556-565 (2012)
    (doi: 10.1002/wcms.93)

                         Additional Contributions by
    A. E. DePrince, M. Saitow, U. Bozkaya, A. Yu. Sokolov
    -----------------------------------------------------------------------


    Psi4 started on: Thu Sep  1 22:09:52 2016

    Process ID:  21879
    PSI4DATADIR: /export131/home/mjharvey/miniconda3/share
    Memory level set to 256.000 MB

  ==> Input File <==

--------------------------------------------------------------------------
set {
	reference rhf
	basis 6-31G*
}


set_num_threads( 1 )
memory 2 gb

molecule MOL {
0 1

O	 -0.682937	 1.318834	 -0.186099
C	 -0.860635	 0.152188	 -0.042321
C	 -2.173363	 -0.477127	 0.338347
O	 0.083258	 -0.765189	 -0.202595
H	 -2.477673	 -1.180929	 -0.427595
H	 -2.923125	 0.290956	 0.455536
H	 -2.058825	 -1.029004	 1.264191
C	 0.408394	 -1.179386	 -1.527557
C	 1.400258	 -0.233390	 -2.178667
H	 -0.498558	 -1.257110	 -2.107676
H	 0.835118	 -2.164644	 -1.406420
H	 1.685601	 -0.615031	 -3.154198
H	 0.965796	 0.749394	 -2.311879
H	 2.295445	 -0.143200	 -1.572927

	symmetry c1
}
set optking {
	frozen_dihedral = ("
		10 8 4 2
	")
}

ee = energy('scf')
oeprop('DIPOLE', 'QUADRUPOLE', 'MULLIKEN_CHARGES')
f=open( 'psi4out.xyz', 'w' )
f.write( "14  " )
f.write( str(ee) + "\n" )
f.write( MOL.save_string_xyz() )
f.close()
--------------------------------------------------------------------------

  Memory set to   2.000 GiB by Python script.

*** tstart() called on cx1-3-1-3.cx1.hpc.ic.ac.uk
*** at Thu Sep  1 22:09:53 2016


         ---------------------------------------------------------
                                   SCF
            by Justin Turney, Rob Parrish, and Andy Simmonett
                              RHF Reference
                        1 Threads,   2000 MiB Core
         ---------------------------------------------------------

  ==> Geometry <==

    Molecular point group: c1
    Full point group: C1

    Geometry (in Angstrom), charge = 0, multiplicity = 1:

       Center              X                  Y                   Z               Mass       
    ------------   -----------------  -----------------  -----------------  -----------------
           O         -0.382102411392     1.516312980832     0.455256826729    15.994914619560
           C         -0.559800411392     0.349666980832     0.599034826729    12.000000000000
           C         -1.872528411392    -0.279648019168     0.979702826729    12.000000000000
           O          0.384092588608    -0.567710019168     0.438760826729    15.994914619560
           H         -2.176838411392    -0.983450019168     0.213760826729     1.007825032070
           H         -2.622290411392     0.488434980832     1.096891826729     1.007825032070
           H         -1.757990411392    -0.831525019168     1.905546826729     1.007825032070
           C          0.709228588608    -0.981907019168    -0.886201173271    12.000000000000
           C          1.701092588608    -0.035911019168    -1.537311173271    12.000000000000
           H         -0.197723411392    -1.059631019168    -1.466320173271     1.007825032070
           H          1.135952588608    -1.967165019168    -0.765064173271     1.007825032070
           H          1.986435588608    -0.417552019168    -2.512842173271     1.007825032070
           H          1.266630588608     0.946872980832    -1.670523173271     1.007825032070
           H          2.596279588608     0.054278980832    -0.931571173271     1.007825032070

  Running in c1 symmetry.

  Rotational constants: A =      0.23061  B =      0.08338  C =      0.06804 [cm^-1]
  Rotational constants: A =   6913.40570  B =   2499.69965  C =   2039.83949 [MHz]
  Nuclear repulsion =  248.681034063558968

  Charge       = 0
  Multiplicity = 1
  Electrons    = 48
  Nalpha       = 24
  Nbeta        = 24

  ==> Algorithm <==

  SCF Algorithm Type is DF.
  DIIS enabled.
  MOM disabled.
  Fractional occupation disabled.
  Guess Type is CORE.
  Energy threshold   = 1.00e-06
  Density threshold  = 1.00e-06
  Integral threshold = 0.00e+00

  ==> Primary Basis <==

  Basis Set: 6-31G*
    Number of shells: 52
    Number of basis function: 106
    Number of Cartesian functions: 106
    Spherical Harmonics?: false
    Max angular momentum: 2

  ==> Pre-Iterations <==

   -------------------------------------------------------
    Irrep   Nso     Nmo     Nalpha   Nbeta   Ndocc  Nsocc
   -------------------------------------------------------
     A        106     106       0       0       0       0
   -------------------------------------------------------
    Total     106     106      24      24      24       0
   -------------------------------------------------------

 OEINTS: Overlap, kinetic, potential, dipole, and quadrupole integrals
         stored in file 35.

  ==> Integral Setup <==

  ==> DFJK: Density-Fitted J/K Matrices <==

    J tasked:                  Yes
    K tasked:                  Yes
    wK tasked:                  No
    OpenMP threads:              1
    Integrals threads:           1
    Memory (MB):              1430
    Algorithm:                Core
    Integral Cache:           NONE
    Schwarz Cutoff:          1E-12
    Fitting Condition:       1E-12

   => Auxiliary Basis Set <=

  Basis Set: 
    Number of shells: 216
    Number of basis function: 686
    Number of Cartesian functions: 686
    Spherical Harmonics?: false
    Max angular momentum: 3

  Minimum eigenvalue in the overlap matrix is 3.9648469196E-03.
  Using Symmetric Orthogonalization.
  SCF Guess: Core (One-Electron) Hamiltonian.

  ==> Iterations <==

                           Total Energy        Delta E     RMS |[F,P]|

   @DF-RHF iter   1:  -234.71616575596858   -2.34716e+02   8.41571e-02 
   @DF-RHF iter   2:  -212.85599946974332    2.18602e+01   6.55743e-02 DIIS
   @DF-RHF iter   3:  -277.28472627119208   -6.44287e+01   5.05423e-02 DIIS
   @DF-RHF iter   4:  -301.41133353544626   -2.41266e+01   2.45793e-02 DIIS
   @DF-RHF iter   5:  -302.56276123649411   -1.15143e+00   1.97732e-02 DIIS
   @DF-RHF iter   6:  -305.80505633975270   -3.24230e+00   2.61647e-03 DIIS
   @DF-RHF iter   7:  -305.84818151190825   -4.31252e-02   1.02365e-03 DIIS
   @DF-RHF iter   8:  -305.85415036511108   -5.96885e-03   3.90900e-04 DIIS
   @DF-RHF iter   9:  -305.85512461315682   -9.74248e-04   1.47324e-04 DIIS
   @DF-RHF iter  10:  -305.85532912042606   -2.04507e-04   5.97976e-05 DIIS
   @DF-RHF iter  11:  -305.85536577943424   -3.66590e-05   1.40696e-05 DIIS
   @DF-RHF iter  12:  -305.85536892343134   -3.14400e-06   7.55643e-06 DIIS
   @DF-RHF iter  13:  -305.85536959446779   -6.71036e-07   2.66349e-06 DIIS
   @DF-RHF iter  14:  -305.85536968600343   -9.15356e-08   6.51094e-07 DIIS

  ==> Post-Iterations <==

    Orbital Energies (a.u.)
    -----------------------

    Doubly Occupied:                                                      

       1A    -20.584481     2A    -20.554453     3A    -11.376767  
       4A    -11.299018     5A    -11.234067     6A    -11.218603  
       7A     -1.462563     8A     -1.366495     9A     -1.051593  
      10A     -1.003786    11A     -0.886452    12A     -0.771443  
      13A     -0.692727    14A     -0.683045    15A     -0.667518  
      16A     -0.606926    17A     -0.590879    18A     -0.578967  
      19A     -0.555857    20A     -0.539743    21A     -0.516532  
      22A     -0.484150    23A     -0.451866    24A     -0.436738  

    Virtual:                                                              

      25A      0.177017    26A      0.225252    27A      0.260407  
      28A      0.289932    29A      0.296388    30A      0.310361  
      31A      0.316926    32A      0.334533    33A      0.343196  
      34A      0.363403    35A      0.391838    36A      0.421003  
      37A      0.506192    38A      0.572171    39A      0.703046  
      40A      0.729171    41A      0.739266    42A      0.759831  
      43A      0.789064    44A      0.802000    45A      0.827003  
      46A      0.843727    47A      0.869681    48A      0.924172  
      49A      0.976508    50A      1.020134    51A      1.056729  
      52A      1.083082    53A      1.116888    54A      1.151804  
      55A      1.163786    56A      1.168157    57A      1.184414  
      58A      1.200599    59A      1.226931    60A      1.243938  
      61A      1.269111    62A      1.308733    63A      1.344362  
      64A      1.382297    65A      1.403060    66A      1.450047  
      67A      1.577562    68A      1.624145    69A      1.682962  
      70A      1.739992    71A      1.820145    72A      1.885122  
      73A      1.973105    74A      2.032271    75A      2.043894  
      76A      2.087199    77A      2.140724    78A      2.163322  
      79A      2.177084    80A      2.220856    81A      2.249575  
      82A      2.270740    83A      2.339998    84A      2.396582  
      85A      2.437451    86A      2.531945    87A      2.556876  
      88A      2.593389    89A      2.646423    90A      2.692753  
      91A      2.729505    92A      2.745951    93A      2.799157  
      94A      2.963026    95A      2.999235    96A      3.173257  
      97A      3.228126    98A      3.313280    99A      3.367915  
     100A      3.495836   101A      4.378179   102A      4.535221  
     103A      4.587743   104A      4.681617   105A      4.837878  
     106A      4.886231  

    Final Occupation by Irrep:
              A 
    DOCC [    24 ]

  Energy converged.

  @DF-RHF Final Energy:  -305.85536968600343

   => Energetics <=

    Nuclear Repulsion Energy =            248.6810340635589682
    One-Electron Energy =                -909.8436179025435422
    Two-Electron Energy =                 355.3072141529822829
    DFT Exchange-Correlation Energy =       0.0000000000000000
    Empirical Dispersion Energy =           0.0000000000000000
    PCM Polarization Energy =               0.0000000000000000
    EFP Energy =                            0.0000000000000000
    Total Energy =                       -305.8553696860022910

    Alert: EFP and PCM quantities not currently incorporated into SCF psivars.

Properties will be evaluated at   0.000000,   0.000000,   0.000000 Bohr
  ==> Properties <==


Properties computed using the SCF density matrix

  Nuclear Dipole Moment: (a.u.)
     X:     0.2161      Y:    -3.5295      Z:    -3.8676

  Electronic Dipole Moment: (a.u.)
     X:    -0.5323      Y:     2.4179      Z:     3.3715

  Dipole Moment: (a.u.)
     X:    -0.3163      Y:    -1.1115      Z:    -0.4960     Total:     1.2576

  Dipole Moment: (Debye)
     X:    -0.8039      Y:    -2.8252      Z:    -1.2608     Total:     3.1965


  Saving occupied orbitals to File 180.

*** tstop() called on cx1-3-1-3.cx1.hpc.ic.ac.uk at Thu Sep  1 22:10:00 2016
Module time:
	user time   =       6.80 seconds =       0.11 minutes
	system time =       0.07 seconds =       0.00 minutes
	total time  =          7 seconds =       0.12 minutes
Total time:
	user time   =       6.80 seconds =       0.11 minutes
	system time =       0.07 seconds =       0.00 minutes
	total time  =          7 seconds =       0.12 minutes


Properties will be evaluated at   0.000000,   0.000000,   0.000000 Bohr

Properties computed using the  density matrix

  Nuclear Dipole Moment: (a.u.)
     X:     0.2161      Y:    -3.5295      Z:    -3.8676

  Electronic Dipole Moment: (a.u.)
     X:    -0.5323      Y:     2.4179      Z:     3.3715

  Dipole Moment: (a.u.)
     X:    -0.3163      Y:    -1.1115      Z:    -0.4960     Total:     1.2576

  Dipole Moment: (Debye)
     X:    -0.8039      Y:    -2.8252      Z:    -1.2608     Total:     3.1965

  Quadrupole Moment: (Debye Ang)
    XX:   -33.9991     YY:   -40.8776     ZZ:   -34.5006
    XY:     0.6001     XZ:    -2.2914     YZ:     0.3597

  Traceless Quadrupole Moment: (Debye Ang)
    XX:     2.4600     YY:    -4.4185     ZZ:     1.9585
    XY:     0.6001     XZ:    -2.2914     YZ:     0.3597

  Mulliken Charges: (a.u.)
   Center  Symbol    Alpha    Beta     Spin     Total
       1     O     4.25904  4.25904  0.00000 -0.51808
       2     C     2.63009  2.63009  0.00000  0.73981
       3     C     3.28257  3.28257  0.00000 -0.56515
       4     O     4.31171  4.31171  0.00000 -0.62343
       5     H     0.40733  0.40733  0.00000  0.18535
       6     H     0.39928  0.39928  0.00000  0.20145
       7     H     0.39860  0.39860  0.00000  0.20280
       8     C     3.00612  3.00612  0.00000 -0.01225
       9     C     3.24846  3.24846  0.00000 -0.49693
      10     H     0.42034  0.42034  0.00000  0.15931
      11     H     0.40561  0.40561  0.00000  0.18879
      12     H     0.42162  0.42162  0.00000  0.15675
      13     H     0.40082  0.40082  0.00000  0.19836
      14     H     0.40840  0.40840  0.00000  0.18320

   Total alpha = 24.00000, Total beta = 24.00000, Total charge =  0.00000


*** PSI4 exiting successfully. Buy a developer a beer!
