    -----------------------------------------------------------------------
          Psi4: An Open-Source Ab Initio Electronic Structure Package
                              Psi4 (no tag) Driver

                          Git: Rev {detached?}  

    J. M. Turney, A. C. Simmonett, R. M. Parrish, E. G. Hohenstein,
    F. A. Evangelista, J. T. Fermann, B. J. Mintz, L. A. Burns, J. J. Wilke,
    M. L. Abrams, N. J. Russ, M. L. Leininger, C. L. Janssen, E. T. Seidl,
    W. D. Allen, H. F. Schaefer, R. A. King, E. F. Valeev, C. D. Sherrill,
    and T. D. Crawford, WIREs Comput. Mol. Sci. 2, 556-565 (2012)
    (doi: 10.1002/wcms.93)

                         Additional Contributions by
    A. E. DePrince, M. Saitow, U. Bozkaya, A. Yu. Sokolov
    -----------------------------------------------------------------------


    Psi4 started on: Fri Sep  2 13:48:39 2016

    Process ID:   8059
    PSI4DATADIR: /export131/home/mjharvey/miniconda3/share
    Memory level set to 256.000 MB

  ==> Input File <==

--------------------------------------------------------------------------
set {
	reference rhf
	basis 6-31G*
}


set_num_threads( 4 )
memory 2 gb

molecule MOL {
0 1

H	 -2.153054	 -2.250733	 0.000000
O	 -2.462445	 -1.355403	 0.000000
C	 -1.434260	 -0.483044	 0.000000
C	 -0.160282	 -0.998433	 0.214627
C	 -1.606806	 0.873172	 -0.202032
H	 -0.050522	 -2.055314	 0.369249
C	 0.931284	 -0.154718	 0.225708
H	 -2.586306	 1.284548	 -0.369080
C	 -0.495009	 1.711703	 -0.187945
H	 1.912113	 -0.560710	 0.392185
C	 0.777868	 1.209965	 0.024721
C	 -0.683838	 3.129388	 -0.400099
H	 1.624995	 1.868669	 0.032793
N	 -0.831074	 4.243234	 -0.569134

	symmetry c1
}
set optking {
	frozen_dihedral = ("
		14 12 9 5
	")
}

ee = optimize('scf')
oeprop('DIPOLE', 'QUADRUPOLE', 'MULLIKEN_CHARGES')
f=open( 'psi4out.xyz', 'w' )
f.write( "14  " )
f.write( str(ee) + "\n" )
f.write( MOL.save_string_xyz() )
f.close()
--------------------------------------------------------------------------

  Memory set to   2.000 GiB by Python script.
gradient() will perform analytic gradient computation.

*** tstart() called on cx1-1-2-4.cx1.hpc.ic.ac.uk
*** at Fri Sep  2 13:48:40 2016


         ---------------------------------------------------------
                                   SCF
            by Justin Turney, Rob Parrish, and Andy Simmonett
                              RHF Reference
                        4 Threads,   2000 MiB Core
         ---------------------------------------------------------

  ==> Geometry <==

    Molecular point group: c1
    Full point group: C1

    Geometry (in Angstrom), charge = 0, multiplicity = 1:

       Center              X                  Y                   Z               Mass       
    ------------   -----------------  -----------------  -----------------  -----------------
           H         -1.444541515355    -3.086339717884     0.096116172242     1.007825032070
           O         -1.753932515355    -2.191009717884     0.096116172242    15.994914619560
           C         -0.725747515355    -1.318650717884     0.096116172242    12.000000000000
           C          0.548230484645    -1.834039717884     0.310743172242    12.000000000000
           C         -0.898293515355     0.037565282116    -0.105915827758    12.000000000000
           H          0.657990484645    -2.890920717884     0.465365172242     1.007825032070
           C          1.639796484645    -0.990324717884     0.321824172242    12.000000000000
           H         -1.877793515355     0.448941282116    -0.272963827758     1.007825032070
           C          0.213503484645     0.876096282116    -0.091828827758    12.000000000000
           H          2.620625484645    -1.396316717884     0.488301172242     1.007825032070
           C          1.486380484645     0.374358282116     0.120837172242    12.000000000000
           C          0.024674484645     2.293781282116    -0.303982827758    12.000000000000
           H          2.333507484645     1.033062282116     0.128909172242     1.007825032070
           N         -0.122561515355     3.407627282116    -0.473017827758    14.003074004780

  Running in c1 symmetry.

  Rotational constants: A =      0.11889  B =      0.04007  C =      0.02997 [cm^-1]
  Rotational constants: A =   3564.09860  B =   1201.39853  C =    898.59493 [MHz]
  Nuclear repulsion =  379.327116809256324

  Charge       = 0
  Multiplicity = 1
  Electrons    = 62
  Nalpha       = 31
  Nbeta        = 31

  ==> Algorithm <==

  SCF Algorithm Type is DF.
  DIIS enabled.
  MOM disabled.
  Fractional occupation disabled.
  Guess Type is CORE.
  Energy threshold   = 1.00e-08
  Density threshold  = 1.00e-08
  Integral threshold = 0.00e+00

  ==> Primary Basis <==

  Basis Set: 6-31G*
    Number of shells: 64
    Number of basis function: 145
    Number of Cartesian functions: 145
    Spherical Harmonics?: false
    Max angular momentum: 2

  ==> Pre-Iterations <==

   -------------------------------------------------------
    Irrep   Nso     Nmo     Nalpha   Nbeta   Ndocc  Nsocc
   -------------------------------------------------------
     A        145     145       0       0       0       0
   -------------------------------------------------------
    Total     145     145      31      31      31       0
   -------------------------------------------------------

 OEINTS: Overlap, kinetic, potential, dipole, and quadrupole integrals
         stored in file 35.

  ==> Integral Setup <==

  ==> DFJK: Density-Fitted J/K Matrices <==

    J tasked:                  Yes
    K tasked:                  Yes
    wK tasked:                  No
    OpenMP threads:              4
    Integrals threads:           4
    Memory (MB):              1430
    Algorithm:                Core
    Integral Cache:           NONE
    Schwarz Cutoff:          1E-12
    Fitting Condition:       1E-12

   => Auxiliary Basis Set <=

  Basis Set: 
    Number of shells: 261
    Number of basis function: 854
    Number of Cartesian functions: 854
    Spherical Harmonics?: false
    Max angular momentum: 3

  Minimum eigenvalue in the overlap matrix is 4.1966356874E-04.
  Using Symmetric Orthogonalization.
  SCF Guess: Core (One-Electron) Hamiltonian.

  ==> Iterations <==

                           Total Energy        Delta E     RMS |[F,P]|

   @DF-RHF iter   1:  -309.44136988706879   -3.09441e+02   6.50333e-02 
   @DF-RHF iter   2:  -146.50841305813623    1.62933e+02   7.88043e-02 DIIS
   @DF-RHF iter   3:  -317.80132372783027   -1.71293e+02   5.28287e-02 DIIS
   @DF-RHF iter   4:  -342.10425692391703   -2.43029e+01   5.26430e-02 DIIS
   @DF-RHF iter   5:  -395.87084735088530   -5.37666e+01   1.08370e-02 DIIS
   @DF-RHF iter   6:  -397.09160721078359   -1.22076e+00   4.28059e-03 DIIS
   @DF-RHF iter   7:  -397.27036853300211   -1.78761e-01   1.19046e-03 DIIS
   @DF-RHF iter   8:  -397.28591291137872   -1.55444e-02   4.33926e-04 DIIS
   @DF-RHF iter   9:  -397.28843713888551   -2.52423e-03   1.40427e-04 DIIS
   @DF-RHF iter  10:  -397.28882127502123   -3.84136e-04   6.02836e-05 DIIS
   @DF-RHF iter  11:  -397.28892402613377   -1.02751e-04   3.04292e-05 DIIS
   @DF-RHF iter  12:  -397.28897342126601   -4.93951e-05   1.36411e-05 DIIS
   @DF-RHF iter  13:  -397.28898298434120   -9.56308e-06   7.14642e-06 DIIS
   @DF-RHF iter  14:  -397.28898631198325   -3.32764e-06   2.39704e-06 DIIS
   @DF-RHF iter  15:  -397.28898656231621   -2.50333e-07   5.75636e-07 DIIS
   @DF-RHF iter  16:  -397.28898657353972   -1.12235e-08   2.94864e-07 DIIS
   @DF-RHF iter  17:  -397.28898657830331   -4.76359e-09   1.43407e-07 DIIS
   @DF-RHF iter  18:  -397.28898657948383   -1.18052e-09   6.76295e-08 DIIS
   @DF-RHF iter  19:  -397.28898657976532   -2.81489e-10   2.06380e-08 DIIS
   @DF-RHF iter  20:  -397.28898657978294   -1.76215e-11   7.18433e-09 DIIS

  ==> Post-Iterations <==

    Orbital Energies (a.u.)
    -----------------------

    Doubly Occupied:                                                      

       1A    -20.611030     2A    -15.574799     3A    -11.327051  
       4A    -11.294949     5A    -11.275904     6A    -11.264861  
       7A    -11.261212     8A    -11.259547     9A    -11.258562  
      10A     -1.433009    11A     -1.232405    12A     -1.182511  
      13A     -1.063420    14A     -1.039938    15A     -0.898838  
      16A     -0.859234    17A     -0.793918    18A     -0.718019  
      19A     -0.691181    20A     -0.675856    21A     -0.629004  
      22A     -0.614656    23A     -0.592228    24A     -0.566869  
      25A     -0.547160    26A     -0.538127    27A     -0.522302  
      28A     -0.473584    29A     -0.472031    30A     -0.363662  
      31A     -0.337543  

    Virtual:                                                              

      32A      0.085758    33A      0.132539    34A      0.200297  
      35A      0.220366    36A      0.225875    37A      0.274078  
      38A      0.280436    39A      0.290822    40A      0.330310  
      41A      0.369328    42A      0.378522    43A      0.437626  
      44A      0.455213    45A      0.468647    46A      0.485862  
      47A      0.570710    48A      0.598738    49A      0.633656  
      50A      0.700293    51A      0.713992    52A      0.717192  
      53A      0.757327    54A      0.782770    55A      0.793275  
      56A      0.803104    57A      0.804022    58A      0.827383  
      59A      0.852286    60A      0.856734    61A      0.871013  
      62A      0.884258    63A      0.887595    64A      0.937568  
      65A      0.955034    66A      0.993270    67A      0.996672  
      68A      1.064728    69A      1.090033    70A      1.103506  
      71A      1.104237    72A      1.122942    73A      1.126892  
      74A      1.138789    75A      1.169634    76A      1.188545  
      77A      1.220744    78A      1.232539    79A      1.262314  
      80A      1.331421    81A      1.376246    82A      1.392016  
      83A      1.437516    84A      1.450258    85A      1.465308  
      86A      1.518297    87A      1.558944    88A      1.587421  
      89A      1.610039    90A      1.634463    91A      1.687984  
      92A      1.701500    93A      1.730377    94A      1.733406  
      95A      1.799787    96A      1.807060    97A      1.844877  
      98A      1.983364    99A      2.024208   100A      2.062169  
     101A      2.079562   102A      2.102820   103A      2.110589  
     104A      2.154378   105A      2.227511   106A      2.241655  
     107A      2.261980   108A      2.285169   109A      2.292198  
     110A      2.295487   111A      2.329960   112A      2.388422  
     113A      2.423097   114A      2.440331   115A      2.454378  
     116A      2.537129   117A      2.585596   118A      2.614099  
     119A      2.623416   120A      2.754262   121A      2.824866  
     122A      2.843169   123A      2.868024   124A      2.928855  
     125A      2.994071   126A      3.004546   127A      3.023837  
     128A      3.097841   129A      3.138838   130A      3.168877  
     131A      3.209097   132A      3.280581   133A      3.382131  
     134A      3.562788   135A      3.674712   136A      3.870795  
     137A      4.348294   138A      4.465615   139A      4.506295  
     140A      4.559624   141A      4.613464   142A      4.720955  
     143A      4.828607   144A      4.970603   145A      5.257852  

    Final Occupation by Irrep:
              A 
    DOCC [    31 ]

  Energy converged.

  @DF-RHF Final Energy:  -397.28898657978294

   => Energetics <=

    Nuclear Repulsion Energy =            379.3271168092563244
    One-Electron Energy =               -1290.4853837562181980
    Two-Electron Energy =                 513.8692803671787033
    DFT Exchange-Correlation Energy =       0.0000000000000000
    Empirical Dispersion Energy =           0.0000000000000000
    PCM Polarization Energy =               0.0000000000000000
    EFP Energy =                            0.0000000000000000
    Total Energy =                       -397.2889865797832272

    Alert: EFP and PCM quantities not currently incorporated into SCF psivars.

Properties will be evaluated at   0.000000,   0.000000,   0.000000 Bohr
  ==> Properties <==


Properties computed using the SCF density matrix

  Nuclear Dipole Moment: (a.u.)
     X:     2.1385      Y:    -5.5436      Z:     0.8509

  Electronic Dipole Moment: (a.u.)
     X:    -1.4440      Y:     3.3461      Z:    -0.5863

  Dipole Moment: (a.u.)
     X:     0.6945      Y:    -2.1975      Z:     0.2646     Total:     2.3198

  Dipole Moment: (Debye)
     X:     1.7653      Y:    -5.5854      Z:     0.6726     Total:     5.8962


  Saving occupied orbitals to File 180.

*** tstop() called on cx1-1-2-4.cx1.hpc.ic.ac.uk at Fri Sep  2 13:48:45 2016
Module time:
	user time   =      17.91 seconds =       0.30 minutes
	system time =       0.17 seconds =       0.00 minutes
	total time  =          5 seconds =       0.08 minutes
Total time:
	user time   =      17.91 seconds =       0.30 minutes
	system time =       0.17 seconds =       0.00 minutes
	total time  =          5 seconds =       0.08 minutes

*** tstart() called on cx1-1-2-4.cx1.hpc.ic.ac.uk
*** at Fri Sep  2 13:48:45 2016


         ------------------------------------------------------------
                                   SCF GRAD                          
                          Rob Parrish, Justin Turney,                
                       Andy Simmonett, and Alex Sokolov              
         ------------------------------------------------------------

  ==> Geometry <==

    Molecular point group: c1
    Full point group: C1

    Geometry (in Angstrom), charge = 0, multiplicity = 1:

       Center              X                  Y                   Z               Mass       
    ------------   -----------------  -----------------  -----------------  -----------------
           H         -1.444541515355    -3.086339717884     0.096116172242     1.007825032070
           O         -1.753932515355    -2.191009717884     0.096116172242    15.994914619560
           C         -0.725747515355    -1.318650717884     0.096116172242    12.000000000000
           C          0.548230484645    -1.834039717884     0.310743172242    12.000000000000
           C         -0.898293515355     0.037565282116    -0.105915827758    12.000000000000
           H          0.657990484645    -2.890920717884     0.465365172242     1.007825032070
           C          1.639796484645    -0.990324717884     0.321824172242    12.000000000000
           H         -1.877793515355     0.448941282116    -0.272963827758     1.007825032070
           C          0.213503484645     0.876096282116    -0.091828827758    12.000000000000
           H          2.620625484645    -1.396316717884     0.488301172242     1.007825032070
           C          1.486380484645     0.374358282116     0.120837172242    12.000000000000
           C          0.024674484645     2.293781282116    -0.303982827758    12.000000000000
           H          2.333507484645     1.033062282116     0.128909172242     1.007825032070
           N         -0.122561515355     3.407627282116    -0.473017827758    14.003074004780

  Nuclear repulsion =  379.327116809256324

  ==> Basis Set <==

  Basis Set: 6-31G*
    Number of shells: 64
    Number of basis function: 145
    Number of Cartesian functions: 145
    Spherical Harmonics?: false
    Max angular momentum: 2

  ==> DFJKGrad: Density-Fitted SCF Gradients <==

    Gradient:                    1
    J tasked:                  Yes
    K tasked:                  Yes
    wK tasked:                  No
    OpenMP threads:              4
    Integrals threads:           4
    Memory (MB):              1430
    Schwarz Cutoff:          0E+00
    Fitting Condition:       1E-12

   => Auxiliary Basis Set <=

  Basis Set: 
    Number of shells: 261
    Number of basis function: 854
    Number of Cartesian functions: 854
    Spherical Harmonics?: false
    Max angular momentum: 3


  -Total Gradient:
     Atom            X                  Y                   Z
    ------   -----------------  -----------------  -----------------
       1       -0.000649342649    -0.002298620671    -0.000635593988
       2        0.014375570528    -0.012607782287     0.003664018243
       3       -0.012535909779     0.017731738068    -0.002614404394
       4       -0.002893332281    -0.011424645419     0.001428064590
       5        0.009287383449    -0.000893674480     0.000744576515
       6       -0.003111725694     0.001391773870    -0.000848318100
       7       -0.003591861526    -0.000354601513    -0.000135969735
       8       -0.000611806159     0.002590634170    -0.000283431365
       9        0.002203610357     0.003759444023    -0.000880583041
      10       -0.000400334438    -0.000316266349    -0.000004352505
      11       -0.001781312358     0.002133546084    -0.000517630721
      12        0.000094983374    -0.000304750404     0.000299283607
      13       -0.000241206701     0.000256819905    -0.000052628861
      14       -0.000144716121     0.000336385010    -0.000163030246


*** tstop() called on cx1-1-2-4.cx1.hpc.ic.ac.uk at Fri Sep  2 13:48:51 2016
Module time:
	user time   =      20.04 seconds =       0.33 minutes
	system time =       0.21 seconds =       0.00 minutes
	total time  =          6 seconds =       0.10 minutes
Total time:
	user time   =      37.97 seconds =       0.63 minutes
	system time =       0.38 seconds =       0.01 minutes
	total time  =         11 seconds =       0.18 minutes
CURRENT ENERGY: -397.2889865798

			-----------------------------------------
			 OPTKING 2.0: for geometry optimizations 
			  - R.A. King,  Bethel University        
			-----------------------------------------

	Internal coordinates to be generated automatically.
	Detected frag with atoms:  1 2 3 4 5 6 7 8 9 10 11 12 13 14
	---Fragment 1 Bond Connectivity---
	 1 : 2
	 2 : 1 3
	 3 : 2 4 5
	 4 : 3 6 7
	 5 : 3 8 9
	 6 : 4
	 7 : 4 10 11
	 8 : 5
	 9 : 5 11 12
	 10 : 7
	 11 : 7 9 13
	 12 : 9 14
	 13 : 11
	 14 : 12

	Assuming in current code that numbering for constraints corresponds to unified fragment.
	Frozen dihedral atom list: 
	    14    12     9     5
	---Fragment 1 Geometry and Gradient---
	 H          -2.7297878516       -5.8323368198        0.1816332425
	 O          -3.3144521096       -4.1404083213        0.1816332425
	 C          -1.3714640456       -2.4918887217        0.1816332425
	 C           1.0360054737       -3.4658327836        0.5872194932
	 C          -1.6975287310        0.0709880953       -0.2001519076
	 H           1.2434218140       -5.4630484287        0.8794127273
	 C           3.0987662696       -1.8714424994        0.6081595485
	 H          -3.5485154781        0.8483760729       -0.5158268786
	 C           0.4034631144        1.6555820392       -0.1735313356
	 H           4.9522644628       -2.6386561916        0.9227554859
	 C           2.8088520452        0.7074346288        0.2283491622
	 C           0.0466280184        4.3346184319       -0.5744442936
	 H           4.4096900750        1.9522047914        0.2436030316
	 N          -0.2316076985        6.4394823261       -0.8938741504
	            -0.0006493426       -0.0022986207       -0.0006355940
	             0.0143755705       -0.0126077823        0.0036640182
	            -0.0125359098        0.0177317381       -0.0026144044
	            -0.0028933323       -0.0114246454        0.0014280646
	             0.0092873834       -0.0008936745        0.0007445765
	            -0.0031117257        0.0013917739       -0.0008483181
	            -0.0035918615       -0.0003546015       -0.0001359697
	            -0.0006118062        0.0025906342       -0.0002834314
	             0.0022036104        0.0037594440       -0.0008805830
	            -0.0004003344       -0.0003162663       -0.0000043525
	            -0.0017813124        0.0021335461       -0.0005176307
	             0.0000949834       -0.0003047504        0.0002992836
	            -0.0002412067        0.0002568199       -0.0000526289
	            -0.0001447161        0.0003363850       -0.0001630302

	Previous optimization step data not found.  Starting new optimization.

	---Fragment 1 Intrafragment Coordinates---
	 - Coordinate -           - BOHR/RAD -       - ANG/DEG -
	 R(1,2)           =         1.790099	       0.947280
	 R(2,3)           =         2.548101	       1.348397
	 R(3,4)           =         2.628493	       1.390939
	 R(3,5)           =         2.611593	       1.381995
	 R(4,6)           =         2.029105	       1.073756
	 R(4,7)           =         2.607202	       1.379672
	 R(5,8)           =         2.032273	       1.075433
	 R(5,9)           =         2.631694	       1.392633
	 R(7,10)          =         2.030528	       1.074509
	 R(7,11)          =         2.622768	       1.387909
	 R(9,11)          =         2.616560	       1.384624
	 R(9,12)          =         2.732270	       1.445855
	 R(11,13)         =         2.027897	       1.073117
	 R(12,14)         =         2.147068	       1.136180
	 B(1,2,3)         =         1.941673	     111.249645
	 B(2,3,4)         =         2.047311	     117.302280
	 B(2,3,5)         =         2.140864	     122.662443
	 B(3,4,6)         =         2.072084	     118.721646
	 B(3,4,7)         =         2.093582	     119.953417
	 B(3,5,8)         =         2.108086	     120.784405
	 B(3,5,9)         =         2.082581	     119.323077
	 B(4,3,5)         =         2.095011	     120.035277
	 B(4,7,10)        =         2.085622	     119.497325
	 B(4,7,11)        =         2.109101	     120.842604
	 B(5,9,11)        =         2.114464	     121.149873
	 B(5,9,12)        =         2.076748	     118.988904
	 B(6,4,7)         =         2.117520	     121.324936
	 B(7,11,9)        =         2.071632	     118.695753
	 B(7,11,13)       =         2.112040	     121.010990
	 B(8,5,9)         =         2.092519	     119.892519
	 B(9,11,13)       =         2.099513	     120.293257
	 B(9,12,14)       =         3.139307	     179.869038
	 L(9,12,14)       =         3.141593	     180.000000
	 B(10,7,11)       =         2.088462	     119.660071
	 B(11,9,12)       =         2.091973	     119.861223
	 D(1,2,3,4)       =        -0.174533	     -10.000007
	 D(1,2,3,5)       =         2.967059	     169.999975
	 D(2,3,4,6)       =         0.000000	       0.000000
	 D(2,3,4,7)       =         3.141593	     180.000000
	 D(2,3,5,8)       =         0.000000	       0.000000
	 D(2,3,5,9)       =         3.141593	     180.000000
	 D(3,4,7,10)      =         3.141593	     180.000000
	 D(3,4,7,11)      =         0.000000	       0.000000
	 D(3,5,9,11)      =         0.000000	       0.000000
	 D(3,5,9,12)      =         3.141593	     180.000000
	 D(4,3,5,8)       =         3.141593	     180.000000
	 D(4,3,5,9)       =        -0.000000	      -0.000000
	 D(4,7,11,9)      =        -0.000000	      -0.000000
	 D(4,7,11,13)     =         3.141593	     180.000000
	 D(5,3,4,6)       =         3.141593	     180.000000
	 D(5,3,4,7)       =        -0.000000	      -0.000000
	 D(5,9,11,7)      =         0.000000	       0.000000
	 D(5,9,11,13)     =         3.141593	     180.000000
	 D(6,4,7,10)      =        -0.000000	      -0.000000
	 D(6,4,7,11)      =         3.141593	     180.000000
	 D(7,11,9,12)     =         3.141593	     180.000000
	 D(8,5,9,11)      =         3.141593	     180.000000
	 D(8,5,9,12)      =        -0.000000	      -0.000000
	 D(9,11,7,10)     =         3.141593	     180.000000
	 D(10,7,11,13)    =         0.000000	       0.000000
	 D(12,9,11,13)    =        -0.000000	      -0.000000
	*D(5,9,12,14)     =        -1.919795	    -109.996129

	Current energy   :      -397.2889865798

	Generating empirical Hessian (Schlegel '84) for each fragment.
	Taking RFO optimization step.
	Going to follow RFO solution 1.
	Using RFO vector 1.
	Norm of target step-size    0.18512
	Projected energy change by RFO approximation:        -0.0076134179

	Back-transformation to cartesian coordinates...
	Could not converge backtransformation.
	Using first guess instead.

	--- Internal Coordinate Step in ANG or DEG, aJ/ANG or AJ/DEG ---
	 ---------------------------------------------------------------------------
	   Coordinate                Previous        Force       Change         New 
	   ----------                --------       ------       ------       ------
	    1 R(1,2)          =      0.947280    -0.016160     0.134831     1.082111
	    2 R(2,3)          =      1.348397     0.006782     0.135156     1.483553
	    3 R(3,4)          =      1.390939     0.046092     0.214494     1.605433
	    4 R(3,5)          =      1.381995    -0.030006     0.234754     1.616749
	    5 R(4,6)          =      1.073756     0.014914     0.197841     1.271598
	    6 R(4,7)          =      1.379672     0.007613     0.187698     1.567370
	    7 R(5,8)          =      1.075433    -0.013118     0.162465     1.237898
	    8 R(5,9)          =      1.392633    -0.009819     0.186422     1.579055
	    9 R(7,10)         =      1.074509     0.002032     0.160421     1.234930
	   10 R(7,11)         =      1.387909    -0.025811     0.238639     1.626548
	   11 R(9,11)         =      1.384624     0.019532     0.208708     1.593332
	   12 R(9,12)         =      1.445855    -0.000146     0.249090     1.694945
	   13 R(11,13)        =      1.073117     0.000273     0.149082     1.222199
	   14 R(12,14)        =      1.136180    -0.003072     9.842077    10.978257
	   15 B(1,2,3)        =    111.249645    -0.000186     1.513257   112.762902
	   16 B(2,3,4)        =    117.302280     0.001945     2.328072   119.630352
	   17 B(2,3,5)        =    122.662443    -0.001835    -3.588631   119.073813
	   18 B(3,4,6)        =    118.721646     0.000146     1.935272   120.656919
	   19 B(3,4,7)        =    119.953417     0.000171    -1.399198   118.554219
	   20 B(3,5,8)        =    120.784405    -0.000127     0.848426   121.632831
	   21 B(3,5,9)        =    119.323077    -0.000079     0.159989   119.483065
	   22 B(4,3,5)        =    120.035277    -0.000110     1.229552   121.264828
	   23 B(4,7,10)       =    119.497325     0.000123    -1.443988   118.053337
	   24 B(4,7,11)       =    120.842604    -0.000177    -0.033369   120.809234
	   25 B(5,9,11)       =    121.149873     0.000207    -1.301648   119.848225
	   26 B(5,9,12)       =    118.988904    -0.000093     0.257042   119.245946
	   27 B(6,4,7)        =    121.324936    -0.000317    -0.536130   120.788807
	   28 B(7,11,9)       =    118.695753    -0.000012     1.343893   120.039646
	   29 B(7,11,13)      =    121.010990    -0.000022     0.299327   121.310318
	   30 B(8,5,9)        =    119.892519     0.000205    -1.008433   118.884086
	   31 B(9,11,13)      =    120.293257     0.000033    -1.643266   118.649991
	   32 B(9,12,14)      =    179.869038     0.000009  -114.809225    65.059813
	   33 L(9,12,14)      =    180.000000    -0.002115     0.000000   180.000000
	   34 B(10,7,11)      =    119.660071     0.000054     1.476626   121.136698
	   35 B(11,9,12)      =    119.861223    -0.000114     1.044456   120.905679
	   36 D(1,2,3,4)      =    -10.000007     0.000006     0.916612    -9.083395
	   37 D(1,2,3,5)      =    169.999975     0.000012     2.916032   172.916007
	   38 D(2,3,4,6)      =      0.000000     0.000002     1.860481     1.860481
	   39 D(2,3,4,7)      =    180.000000     0.000003     1.775190   181.775190
	   40 D(2,3,5,8)      =      0.000000    -0.000005    -2.040298    -2.040298
	   41 D(2,3,5,9)      =    180.000000    -0.000006    -1.990959   178.009041
	   42 D(3,4,7,10)     =    180.000000     0.000000     0.011043   180.011043
	   43 D(3,4,7,11)     =      0.000000     0.000003     0.318612     0.318612
	   44 D(3,5,9,11)     =      0.000000     0.000002     0.134715     0.134715
	   45 D(3,5,9,12)     =    180.000000    -0.000000    -0.004988   179.995012
	   46 D(4,3,5,8)      =    180.000000     0.000001    -0.007069   179.992931
	   47 D(4,3,5,9)      =      0.000000     0.000000     0.042270     0.042270
	   48 D(4,7,11,9)     =      0.000000    -0.000001    -0.147695    -0.147695
	   49 D(4,7,11,13)    =    180.000000    -0.000001    -0.226394   179.773606
	   50 D(5,3,4,6)      =    180.000000    -0.000004    -0.183890   179.816110
	   51 D(5,3,4,7)      =      0.000000    -0.000002    -0.269180    -0.269180
	   52 D(5,9,11,7)     =      0.000000    -0.000002    -0.085517    -0.085517
	   53 D(5,9,11,13)    =    180.000000    -0.000001    -0.008899   179.991101
	   54 D(6,4,7,10)     =      0.000000     0.000002    -0.074364    -0.074364
	   55 D(6,4,7,11)     =    180.000000     0.000004     0.233206   180.233206
	   56 D(7,11,9,12)    =    180.000000     0.000001     0.056549   180.056549
	   57 D(8,5,9,11)     =    180.000000     0.000001     0.182692   180.182692
	   58 D(8,5,9,12)     =      0.000000    -0.000001     0.042989     0.042989
	   59 D(9,11,7,10)    =    180.000000     0.000002     0.169423   180.169423
	   60 D(10,7,11,13)   =      0.000000     0.000001     0.090724     0.090724
	   61 D(12,9,11,13)   =      0.000000     0.000001     0.133168     0.133168
	 ---------------------------------------------------------------------------
	The BAD_STEP_EXCEPTion handler:
	Step is far too large.

	Dynamic level is 0.
	Consecutive backsteps is 0.
This exception should not be called when neither dynamic nor backsteps are allowed.
