    -----------------------------------------------------------------------
          Psi4: An Open-Source Ab Initio Electronic Structure Package
                              Psi4 (no tag) Driver

                          Git: Rev {detached?}  

    J. M. Turney, A. C. Simmonett, R. M. Parrish, E. G. Hohenstein,
    F. A. Evangelista, J. T. Fermann, B. J. Mintz, L. A. Burns, J. J. Wilke,
    M. L. Abrams, N. J. Russ, M. L. Leininger, C. L. Janssen, E. T. Seidl,
    W. D. Allen, H. F. Schaefer, R. A. King, E. F. Valeev, C. D. Sherrill,
    and T. D. Crawford, WIREs Comput. Mol. Sci. 2, 556-565 (2012)
    (doi: 10.1002/wcms.93)

                         Additional Contributions by
    A. E. DePrince, M. Saitow, U. Bozkaya, A. Yu. Sokolov
    -----------------------------------------------------------------------


    Psi4 started on: Fri Sep  2 11:54:40 2016

    Process ID:  31220
    PSI4DATADIR: /export131/home/mjharvey/miniconda3/share
    Memory level set to 256.000 MB

  ==> Input File <==

--------------------------------------------------------------------------
set {
	reference rhf
	basis 6-31G*
}


set_num_threads( 4 )
memory 2 gb

molecule MOL {
0 1

H	 -3.418136	 -0.936192	 0.401055
O	 -3.118845	 -0.149100	 -0.033141
C	 -1.777441	 -0.060400	 -0.004252
C	 -0.983069	 -1.030351	 0.600040
C	 -1.197852	 1.049081	 -0.606907
H	 -1.440292	 -1.887189	 1.064891
C	 0.388502	 -0.886781	 0.599214
H	 -1.831758	 1.783470	 -1.066372
C	 0.175327	 1.178548	 -0.599539
H	 1.013519	 -1.627408	 1.061733
C	 0.984182	 0.218375	 0.000000
H	 0.624977	 2.038139	 -1.066422
C	 2.452467	 0.370529	 0.000000
O	 3.228994	 -0.533774	 0.000000
H	 2.809473	 1.405765	 0.000000

	symmetry c1
}
set optking {
	frozen_dihedral = ("
		7 11 13 14
	")
}

ee = optimize('scf')
oeprop('DIPOLE', 'QUADRUPOLE', 'MULLIKEN_CHARGES')
f=open( 'psi4out.xyz', 'w' )
f.write( "15  " )
f.write( str(ee) + "\n" )
f.write( MOL.save_string_xyz() )
f.close()
--------------------------------------------------------------------------

  Memory set to   2.000 GiB by Python script.
gradient() will perform analytic gradient computation.

*** tstart() called on cx1-5-7-2.cx1.hpc.ic.ac.uk
*** at Fri Sep  2 11:54:41 2016


         ---------------------------------------------------------
                                   SCF
            by Justin Turney, Rob Parrish, and Andy Simmonett
                              RHF Reference
                        4 Threads,   2000 MiB Core
         ---------------------------------------------------------

  ==> Geometry <==

    Molecular point group: c1
    Full point group: C1

    Geometry (in Angstrom), charge = 0, multiplicity = 1:

       Center              X                  Y                   Z               Mass       
    ------------   -----------------  -----------------  -----------------  -----------------
           H         -3.418197075280    -0.935603345303     0.403262862899     1.007825032070
           O         -3.118906075280    -0.148511345303    -0.030933137101    15.994914619560
           C         -1.777502075280    -0.059811345303    -0.002044137101    12.000000000000
           C         -0.983130075280    -1.029762345303     0.602247862899    12.000000000000
           C         -1.197913075280     1.049669654697    -0.604699137101    12.000000000000
           H         -1.440353075280    -1.886600345303     1.067098862899     1.007825032070
           C          0.388440924720    -0.886192345303     0.601421862899    12.000000000000
           H         -1.831819075280     1.784058654697    -1.064164137101     1.007825032070
           C          0.175265924720     1.179136654697    -0.597331137101    12.000000000000
           H          1.013457924720    -1.626819345303     1.063940862899     1.007825032070
           C          0.984120924720     0.218963654697     0.002207862899    12.000000000000
           H          0.624915924720     2.038727654697    -1.064214137101     1.007825032070
           C          2.452405924720     0.371117654697     0.002207862899    12.000000000000
           O          3.228932924720    -0.533185345303     0.002207862899    15.994914619560
           H          2.809411924720     1.406353654697     0.002207862899     1.007825032070

  Running in c1 symmetry.

  Rotational constants: A =      0.17239  B =      0.03344  C =      0.02823 [cm^-1]
  Rotational constants: A =   5168.12559  B =   1002.51377  C =    846.22611 [MHz]
  Nuclear repulsion =  401.204754915953117

  Charge       = 0
  Multiplicity = 1
  Electrons    = 64
  Nalpha       = 32
  Nbeta        = 32

  ==> Algorithm <==

  SCF Algorithm Type is DF.
  DIIS enabled.
  MOM disabled.
  Fractional occupation disabled.
  Guess Type is CORE.
  Energy threshold   = 1.00e-08
  Density threshold  = 1.00e-08
  Integral threshold = 0.00e+00

  ==> Primary Basis <==

  Basis Set: 6-31G*
    Number of shells: 66
    Number of basis function: 147
    Number of Cartesian functions: 147
    Spherical Harmonics?: false
    Max angular momentum: 2

  ==> Pre-Iterations <==

   -------------------------------------------------------
    Irrep   Nso     Nmo     Nalpha   Nbeta   Ndocc  Nsocc
   -------------------------------------------------------
     A        147     147       0       0       0       0
   -------------------------------------------------------
    Total     147     147      32      32      32       0
   -------------------------------------------------------

 OEINTS: Overlap, kinetic, potential, dipole, and quadrupole integrals
         stored in file 35.

  ==> Integral Setup <==

  ==> DFJK: Density-Fitted J/K Matrices <==

    J tasked:                  Yes
    K tasked:                  Yes
    wK tasked:                  No
    OpenMP threads:              4
    Integrals threads:           4
    Memory (MB):              1430
    Algorithm:                Core
    Integral Cache:           NONE
    Schwarz Cutoff:          1E-12
    Fitting Condition:       1E-12

   => Auxiliary Basis Set <=

  Basis Set: 
    Number of shells: 270
    Number of basis function: 879
    Number of Cartesian functions: 879
    Spherical Harmonics?: false
    Max angular momentum: 3

  Minimum eigenvalue in the overlap matrix is 4.0742308980E-04.
  Using Symmetric Orthogonalization.
  SCF Guess: Core (One-Electron) Hamiltonian.

  ==> Iterations <==

                           Total Energy        Delta E     RMS |[F,P]|

   @DF-RHF iter   1:  -343.04245673332446   -3.43042e+02   6.06889e-02 
   @DF-RHF iter   2:  -201.51478611569473    1.41528e+02   7.51657e-02 DIIS
   @DF-RHF iter   3:  -323.61645802726196   -1.22102e+02   4.93000e-02 DIIS
   @DF-RHF iter   4:  -318.53214908233861    5.08431e+00   5.49888e-02 DIIS
   @DF-RHF iter   5:  -417.16439349945449   -9.86322e+01   1.03772e-02 DIIS
   @DF-RHF iter   6:  -417.77535797093014   -6.10964e-01   7.62778e-03 DIIS
   @DF-RHF iter   7:  -418.26723329841445   -4.91875e-01   9.52959e-04 DIIS
   @DF-RHF iter   8:  -418.28190167752484   -1.46684e-02   3.56799e-04 DIIS
   @DF-RHF iter   9:  -418.28470088754796   -2.79921e-03   1.62742e-04 DIIS
   @DF-RHF iter  10:  -418.28570231475283   -1.00143e-03   7.76611e-05 DIIS
   @DF-RHF iter  11:  -418.28602070871091   -3.18394e-04   3.55886e-05 DIIS
   @DF-RHF iter  12:  -418.28608166949516   -6.09608e-05   1.67777e-05 DIIS
   @DF-RHF iter  13:  -418.28609805880592   -1.63893e-05   5.06825e-06 DIIS
   @DF-RHF iter  14:  -418.28609858258142   -5.23775e-07   1.92947e-06 DIIS
   @DF-RHF iter  15:  -418.28609866523436   -8.26529e-08   6.89918e-07 DIIS
   @DF-RHF iter  16:  -418.28609867708337   -1.18490e-08   2.44259e-07 DIIS
   @DF-RHF iter  17:  -418.28609867868431   -1.60094e-09   7.64022e-08 DIIS
   @DF-RHF iter  18:  -418.28609867886712   -1.82808e-10   4.12397e-08 DIIS
   @DF-RHF iter  19:  -418.28609867891510   -4.79758e-11   1.30653e-08 DIIS
   @DF-RHF iter  20:  -418.28609867892294   -7.84439e-12   5.68943e-09 DIIS

  ==> Post-Iterations <==

    Orbital Energies (a.u.)
    -----------------------

    Doubly Occupied:                                                      

       1A    -20.609453     2A    -20.559215     3A    -11.328922  
       4A    -11.321770     5A    -11.259425     6A    -11.256857  
       7A    -11.244086     8A    -11.239667     9A    -11.238636  
      10A     -1.430706    11A     -1.399097    12A     -1.170155  
      13A     -1.040829    14A     -1.038681    15A     -0.889077  
      16A     -0.866302    17A     -0.795432    18A     -0.756447  
      19A     -0.712785    20A     -0.668076    21A     -0.643606  
      22A     -0.628533    23A     -0.607965    24A     -0.606890  
      25A     -0.585910    26A     -0.560643    27A     -0.540320  
      28A     -0.505843    29A     -0.485436    30A     -0.419771  
      31A     -0.357342    32A     -0.325348  

    Virtual:                                                              

      33A      0.102175    34A      0.127998    35A      0.209765  
      36A      0.216020    37A      0.242476    38A      0.270141  
      39A      0.300673    40A      0.317458    41A      0.332558  
      42A      0.374692    43A      0.417303    44A      0.430822  
      45A      0.449984    46A      0.498440    47A      0.521182  
      48A      0.550997    49A      0.570988    50A      0.697930  
      51A      0.708063    52A      0.728344    53A      0.738973  
      54A      0.751084    55A      0.771687    56A      0.792739  
      57A      0.809133    58A      0.811551    59A      0.823949  
      60A      0.857372    61A      0.871261    62A      0.891983  
      63A      0.895061    64A      0.933305    65A      0.985019  
      66A      0.998006    67A      1.012608    68A      1.055124  
      69A      1.084255    70A      1.100754    71A      1.104598  
      72A      1.120758    73A      1.130794    74A      1.154252  
      75A      1.180029    76A      1.200115    77A      1.209442  
      78A      1.225589    79A      1.235051    80A      1.279744  
      81A      1.293831    82A      1.328266    83A      1.362987  
      84A      1.396615    85A      1.423959    86A      1.444504  
      87A      1.463174    88A      1.484824    89A      1.565001  
      90A      1.614985    91A      1.633241    92A      1.692596  
      93A      1.708268    94A      1.721322    95A      1.748745  
      96A      1.772861    97A      1.833321    98A      1.853162  
      99A      1.936210   100A      2.009617   101A      2.025881  
     102A      2.043893   103A      2.069097   104A      2.091448  
     105A      2.149250   106A      2.165216   107A      2.228829  
     108A      2.249565   109A      2.254269   110A      2.303905  
     111A      2.342289   112A      2.360620   113A      2.400626  
     114A      2.411099   115A      2.446701   116A      2.456442  
     117A      2.573515   118A      2.599965   119A      2.621386  
     120A      2.633300   121A      2.677432   122A      2.738008  
     123A      2.779572   124A      2.838687   125A      2.865604  
     126A      2.952972   127A      2.963481   128A      2.995743  
     129A      3.023099   130A      3.046014   131A      3.098026  
     132A      3.176150   133A      3.267019   134A      3.299133  
     135A      3.341032   136A      3.390381   137A      3.551400  
     138A      3.833198   139A      4.294231   140A      4.351445  
     141A      4.506053   142A      4.529927   143A      4.569368  
     144A      4.670579   145A      4.741516   146A      4.894414  
     147A      5.178623  

    Final Occupation by Irrep:
              A 
    DOCC [    32 ]

  Energy converged.

  @DF-RHF Final Energy:  -418.28609867892294

   => Energetics <=

    Nuclear Repulsion Energy =            401.2047549159531172
    One-Electron Energy =               -1364.7952570592267421
    Two-Electron Energy =                 545.3044034643504574
    DFT Exchange-Correlation Energy =       0.0000000000000000
    Empirical Dispersion Energy =           0.0000000000000000
    PCM Polarization Energy =               0.0000000000000000
    EFP Energy =                            0.0000000000000000
    Total Energy =                       -418.2860986789231674

    Alert: EFP and PCM quantities not currently incorporated into SCF psivars.

Properties will be evaluated at   0.000000,   0.000000,   0.000000 Bohr
  ==> Properties <==


Properties computed using the SCF density matrix

  Nuclear Dipole Moment: (a.u.)
     X:    -2.1018      Y:     0.7281      Z:     0.3825

  Electronic Dipole Moment: (a.u.)
     X:     0.9672      Y:    -0.5353      Z:    -0.0611

  Dipole Moment: (a.u.)
     X:    -1.1346      Y:     0.1928      Z:     0.3214     Total:     1.1949

  Dipole Moment: (Debye)
     X:    -2.8838      Y:     0.4900      Z:     0.8169     Total:     3.0371


  Saving occupied orbitals to File 180.

*** tstop() called on cx1-5-7-2.cx1.hpc.ic.ac.uk at Fri Sep  2 11:54:47 2016
Module time:
	user time   =      20.33 seconds =       0.34 minutes
	system time =       0.18 seconds =       0.00 minutes
	total time  =          6 seconds =       0.10 minutes
Total time:
	user time   =      20.33 seconds =       0.34 minutes
	system time =       0.18 seconds =       0.00 minutes
	total time  =          6 seconds =       0.10 minutes

*** tstart() called on cx1-5-7-2.cx1.hpc.ic.ac.uk
*** at Fri Sep  2 11:54:47 2016


         ------------------------------------------------------------
                                   SCF GRAD                          
                          Rob Parrish, Justin Turney,                
                       Andy Simmonett, and Alex Sokolov              
         ------------------------------------------------------------

  ==> Geometry <==

    Molecular point group: c1
    Full point group: C1

    Geometry (in Angstrom), charge = 0, multiplicity = 1:

       Center              X                  Y                   Z               Mass       
    ------------   -----------------  -----------------  -----------------  -----------------
           H         -3.418197075280    -0.935603345303     0.403262862899     1.007825032070
           O         -3.118906075280    -0.148511345303    -0.030933137101    15.994914619560
           C         -1.777502075280    -0.059811345303    -0.002044137101    12.000000000000
           C         -0.983130075280    -1.029762345303     0.602247862899    12.000000000000
           C         -1.197913075280     1.049669654697    -0.604699137101    12.000000000000
           H         -1.440353075280    -1.886600345303     1.067098862899     1.007825032070
           C          0.388440924720    -0.886192345303     0.601421862899    12.000000000000
           H         -1.831819075280     1.784058654697    -1.064164137101     1.007825032070
           C          0.175265924720     1.179136654697    -0.597331137101    12.000000000000
           H          1.013457924720    -1.626819345303     1.063940862899     1.007825032070
           C          0.984120924720     0.218963654697     0.002207862899    12.000000000000
           H          0.624915924720     2.038727654697    -1.064214137101     1.007825032070
           C          2.452405924720     0.371117654697     0.002207862899    12.000000000000
           O          3.228932924720    -0.533185345303     0.002207862899    15.994914619560
           H          2.809411924720     1.406353654697     0.002207862899     1.007825032070

  Nuclear repulsion =  401.204754915953117

  ==> Basis Set <==

  Basis Set: 6-31G*
    Number of shells: 66
    Number of basis function: 147
    Number of Cartesian functions: 147
    Spherical Harmonics?: false
    Max angular momentum: 2

  ==> DFJKGrad: Density-Fitted SCF Gradients <==

    Gradient:                    1
    J tasked:                  Yes
    K tasked:                  Yes
    wK tasked:                  No
    OpenMP threads:              4
    Integrals threads:           4
    Memory (MB):              1430
    Schwarz Cutoff:          0E+00
    Fitting Condition:       1E-12

   => Auxiliary Basis Set <=

  Basis Set: 
    Number of shells: 270
    Number of basis function: 879
    Number of Cartesian functions: 879
    Spherical Harmonics?: false
    Max angular momentum: 3


  -Total Gradient:
     Atom            X                  Y                   Z
    ------   -----------------  -----------------  -----------------
       1       -0.000136758277    -0.000107949384     0.000069831169
       2        0.001172527162    -0.000080083879    -0.000165513761
       3       -0.001173496055     0.001057570009    -0.000101238582
       4        0.001595998465    -0.001018387447    -0.000052544311
       5       -0.000050220143     0.001222563028     0.000473636863
       6       -0.000027603692    -0.000170551960    -0.000322397224
       7       -0.002122060441     0.000051815014     0.003612567012
       8       -0.000093177872     0.000074339965     0.000364911362
       9       -0.000329956583    -0.002182615412    -0.003526326479
      10        0.000231594503     0.000715813105     0.000147556132
      11        0.003721303813     0.001832227474    -0.001553995646
      12        0.000089310536    -0.000329360357    -0.000384593563
      13       -0.003751511004    -0.000732105274     0.002857499134
      14        0.001452699837    -0.000641436382    -0.004472982230
      15       -0.000578650253     0.000308161500     0.003053590123


*** tstop() called on cx1-5-7-2.cx1.hpc.ic.ac.uk at Fri Sep  2 11:54:53 2016
Module time:
	user time   =      23.02 seconds =       0.38 minutes
	system time =       0.23 seconds =       0.00 minutes
	total time  =          6 seconds =       0.10 minutes
Total time:
	user time   =      43.36 seconds =       0.72 minutes
	system time =       0.41 seconds =       0.01 minutes
	total time  =         12 seconds =       0.20 minutes
CURRENT ENERGY: -418.2860986789

			-----------------------------------------
			 OPTKING 2.0: for geometry optimizations 
			  - R.A. King,  Bethel University        
			-----------------------------------------

	Internal coordinates to be generated automatically.
	Detected frag with atoms:  1 2 3 4 5 6 7 8 9 10 11 12 13 14 15
	---Fragment 1 Bond Connectivity---
	 1 : 2
	 2 : 1 3
	 3 : 2 4 5
	 4 : 3 6 7
	 5 : 3 8 9
	 6 : 4
	 7 : 4 10 11
	 8 : 5
	 9 : 5 11 12
	 10 : 7
	 11 : 7 9 13
	 12 : 9
	 13 : 11 14 15
	 14 : 13
	 15 : 13

	Assuming in current code that numbering for constraints corresponds to unified fragment.
	Frozen dihedral atom list: 
	     7    11    13    14
	---Fragment 1 Geometry and Gradient---
	 H          -6.4594563405       -1.7680340916        0.7620563704
	 O          -5.8938783165       -0.2806457702       -0.0584551576
	 C          -3.3589921229       -0.1130270623       -0.0038628593
	 C          -1.8578465953       -1.9459688146        1.1380835250
	 C          -2.2637276433        1.9835881774       -1.1427157619
	 H          -2.7218728469       -3.5651579748        2.0165246076
	 C           0.7340469665       -1.6746608337        1.1365226112
	 H          -3.4616363773        3.3713822624       -2.0109787796
	 C           0.3312045981        2.2282453506       -1.1287922598
	 H           1.9151579249       -3.0742430303        2.0105568525
	 C           1.8597190294        0.4137813404        0.0041722562
	 H           1.1809199538        3.8526369269       -2.0110732659
	 C           4.6343755644        0.7013107305        0.0041722562
	 O           6.1017989292       -1.0075742807        0.0041722562
	 H           5.3090191322        2.6576232534        0.0041722562
	            -0.0001367583       -0.0001079494        0.0000698312
	             0.0011725272       -0.0000800839       -0.0001655138
	            -0.0011734961        0.0010575700       -0.0001012386
	             0.0015959985       -0.0010183874       -0.0000525443
	            -0.0000502201        0.0012225630        0.0004736369
	            -0.0000276037       -0.0001705520       -0.0003223972
	            -0.0021220604        0.0000518150        0.0036125670
	            -0.0000931779        0.0000743400        0.0003649114
	            -0.0003299566       -0.0021826154       -0.0035263265
	             0.0002315945        0.0007158131        0.0001475561
	             0.0037213038        0.0018322275       -0.0015539956
	             0.0000893105       -0.0003293604       -0.0003845936
	            -0.0037515110       -0.0007321053        0.0028574991
	             0.0014526998       -0.0006414364       -0.0044729822
	            -0.0005786503        0.0003081615        0.0030535901

	Previous optimization step data not found.  Starting new optimization.

	---Fragment 1 Intrafragment Coordinates---
	 - Coordinate -           - BOHR/RAD -       - ANG/DEG -
	 R(1,2)           =         1.790375	       0.947426
	 R(2,3)           =         2.541009	       1.344644
	 R(3,4)           =         2.630048	       1.391762
	 R(3,5)           =         2.625335	       1.389268
	 R(4,6)           =         2.034693	       1.076713
	 R(4,7)           =         2.606055	       1.379065
	 R(5,8)           =         2.028506	       1.073439
	 R(5,9)           =         2.606477	       1.379289
	 R(7,10)          =         2.029234	       1.073824
	 R(7,11)          =         2.628868	       1.391137
	 R(9,11)          =         2.629115	       1.391268
	 R(9,12)          =         2.034474	       1.076597
	 R(11,13)         =         2.789515	       1.476148
	 R(13,14)         =         2.252470	       1.191956
	 R(13,15)         =         2.069373	       1.095065
	 B(1,2,3)         =         1.939165	     111.105970
	 B(2,3,4)         =         2.132640	     122.191288
	 B(2,3,5)         =         2.048280	     117.357806
	 B(3,4,6)         =         2.094031	     119.979145
	 B(3,4,7)         =         2.088460	     119.659938
	 B(3,5,8)         =         2.077932	     119.056710
	 B(3,5,9)         =         2.080578	     119.208331
	 B(4,3,5)         =         2.102265	     120.450906
	 B(4,7,10)        =         2.102292	     120.452473
	 B(4,7,11)        =         2.104625	     120.586119
	 B(5,9,11)        =         2.113352	     121.086155
	 B(5,9,12)        =         2.081094	     119.237898
	 B(6,4,7)         =         2.100694	     120.360918
	 B(7,11,9)        =         2.077091	     119.008551
	 B(7,11,13)       =         2.103427	     120.517489
	 B(8,5,9)         =         2.124676	     121.734959
	 B(9,11,13)       =         2.102667	     120.473960
	 B(10,7,11)       =         2.076268	     118.961408
	 B(11,9,12)       =         2.088739	     119.675946
	 B(11,13,14)      =         2.177062	     124.736486
	 B(11,13,15)      =         2.006138	     114.943268
	 B(14,13,15)      =         2.099984	     120.320246
	 D(1,2,3,4)       =        -0.000000	      -0.000000
	 D(1,2,3,5)       =         3.141593	     180.000000
	 D(2,3,4,6)       =         0.000000	       0.000000
	 D(2,3,4,7)       =         3.141593	     180.000000
	 D(2,3,5,8)       =        -0.000000	      -0.000000
	 D(2,3,5,9)       =         3.141593	     180.000000
	 D(3,4,7,10)      =         3.141593	     180.000000
	 D(3,4,7,11)      =         0.000000	       0.000000
	 D(3,5,9,11)      =        -0.000000	      -0.000000
	 D(3,5,9,12)      =         3.141593	     180.000000
	 D(4,3,5,8)       =         3.141593	     180.000000
	 D(4,3,5,9)       =         0.000000	       0.000000
	 D(4,7,11,9)      =        -0.000000	      -0.000000
	 D(4,7,11,13)     =         3.141593	     180.000000
	 D(5,3,4,6)       =         3.141593	     180.000000
	 D(5,3,4,7)       =        -0.000000	      -0.000000
	 D(5,9,11,7)      =         0.000000	       0.000000
	 D(5,9,11,13)     =         3.141593	     180.000000
	 D(6,4,7,10)      =        -0.000000	      -0.000000
	 D(6,4,7,11)      =         3.141593	     180.000000
	 D(7,11,9,12)     =         3.141593	     180.000000
	*D(7,11,13,14)    =         0.523599	      29.999985
	 D(7,11,13,15)    =        -2.617994	    -150.000015
	 D(8,5,9,11)      =         3.141593	     180.000000
	 D(8,5,9,12)      =         0.000000	       0.000000
	 D(9,11,7,10)     =         3.141593	     180.000000
	 D(9,11,13,14)    =        -2.617994	    -149.999988
	 D(9,11,13,15)    =         0.523599	      30.000012
	 D(10,7,11,13)    =         0.000000	       0.000000
	 D(12,9,11,13)    =        -0.000000	      -0.000000

	Current energy   :      -418.2860986789

	Generating empirical Hessian (Schlegel '84) for each fragment.
	Taking RFO optimization step.
	Going to follow RFO solution 1.
	Using RFO vector 1.
	Norm of target step-size    0.42319
	Projected energy change by RFO approximation:        -0.0013546737

	Back-transformation to cartesian coordinates...
	Successfully converged to displaced geometry.

	Back-transformation to cartesian coordinates to adjust frozen coordinates...
	Successfully converged to displaced geometry.

	--- Internal Coordinate Step in ANG or DEG, aJ/ANG or AJ/DEG ---
	 ---------------------------------------------------------------------------
	   Coordinate                Previous        Force       Change         New 
	   ----------                --------       ------       ------       ------
	    1 R(1,2)          =      0.947426    -0.001358    -0.000149     0.947276
	    2 R(2,3)          =      1.344644     0.008394     0.000956     1.345600
	    3 R(3,4)          =      1.391762    -0.009644    -0.001321     1.390441
	    4 R(3,5)          =      1.389268    -0.001176    -0.000189     1.389079
	    5 R(4,6)          =      1.076713    -0.000068    -0.000012     1.076701
	    6 R(4,7)          =      1.379065     0.009319     0.001231     1.380296
	    7 R(5,8)          =      1.073439     0.000414     0.000072     1.073511
	    8 R(5,9)          =      1.379289     0.002027     0.000242     1.379530
	    9 R(7,10)         =      1.073824     0.002433     0.000423     1.074247
	   10 R(7,11)         =      1.391137    -0.008865    -0.001173     1.389964
	   11 R(9,11)         =      1.391268    -0.002532    -0.000335     1.390933
	   12 R(9,12)         =      1.076597     0.000485     0.000085     1.076682
	   13 R(11,13)        =      1.476148     0.024485     0.004466     1.480613
	   14 R(13,14)        =      1.191956    -0.011806    -0.000695     1.191261
	   15 R(13,15)        =      1.095065    -0.000846    -0.000158     1.094907
	   16 B(1,2,3)        =    111.105970    -0.000012    -0.056102   111.049868
	   17 B(2,3,4)        =    122.191288     0.000025     0.078141   122.269429
	   18 B(2,3,5)        =    117.357806     0.000005     0.020088   117.377894
	   19 B(3,4,6)        =    119.979145    -0.000000     0.006277   119.985422
	   20 B(3,4,7)        =    119.659938     0.000008     0.020434   119.680371
	   21 B(3,5,8)        =    119.056710    -0.000007    -0.006366   119.050343
	   22 B(3,5,9)        =    119.208331     0.000034     0.098315   119.306647
	   23 B(4,3,5)        =    120.450906    -0.000030    -0.104057   120.346849
	   24 B(4,7,10)       =    120.452473    -0.000045    -0.204220   120.248253
	   25 B(4,7,11)       =    120.586119     0.000009     0.030068   120.616186
	   26 B(5,9,11)       =    121.086155    -0.000017    -0.070230   121.015925
	   27 B(5,9,12)       =    119.237898     0.000001    -0.004294   119.233604
	   28 B(6,4,7)        =    120.360918    -0.000008    -0.027791   120.333127
	   29 B(7,11,9)       =    119.008551    -0.000004    -0.043014   118.965537
	   30 B(7,11,13)      =    120.517489    -0.000005    -0.044311   120.473178
	   31 B(8,5,9)        =    121.734959    -0.000027    -0.099293   121.635666
	   32 B(9,11,13)      =    120.473960     0.000009    -0.002772   120.471188
	   33 B(10,7,11)      =    118.961408     0.000036     0.174053   119.135461
	   34 B(11,9,12)      =    119.675946     0.000016     0.065406   119.741353
	   35 B(11,13,14)     =    124.736486    -0.000112    -0.897757   123.838729
	   36 B(11,13,15)     =    114.943268     0.000107    -0.093261   114.850007
	   37 B(14,13,15)     =    120.320246     0.000005    -0.582316   119.737929
	   38 D(1,2,3,4)      =      0.000000    -0.000003    -0.484324    -0.484324
	   39 D(1,2,3,5)      =    180.000000     0.000002     0.391732   180.391732
	   40 D(2,3,4,6)      =      0.000000     0.000000     0.015426     0.015426
	   41 D(2,3,4,7)      =    180.000000    -0.000003    -0.361388   179.638612
	   42 D(2,3,5,8)      =      0.000000    -0.000002    -0.221019    -0.221019
	   43 D(2,3,5,9)      =    180.000000    -0.000008    -1.190506   178.809494
	   44 D(3,4,7,10)     =    180.000000     0.000006     0.827860   180.827860
	   45 D(3,4,7,11)     =      0.000000     0.000006     0.711771     0.711771
	   46 D(3,5,9,11)     =      0.000000     0.000016     2.507698     2.507698
	   47 D(3,5,9,12)     =    180.000000     0.000009     1.406319   181.406319
	   48 D(4,3,5,8)      =    180.000000     0.000003     0.637335   180.637335
	   49 D(4,3,5,9)      =      0.000000    -0.000003    -0.332152    -0.332152
	   50 D(4,7,11,9)     =      0.000000     0.000007     1.406615     1.406615
	   51 D(4,7,11,13)    =    180.000000    -0.000011    -2.028310   177.971690
	   52 D(5,3,4,6)      =    180.000000    -0.000005    -0.886021   179.113979
	   53 D(5,3,4,7)      =      0.000000    -0.000008    -1.262835    -1.262835
	   54 D(5,9,11,7)     =      0.000000    -0.000018    -3.041405    -3.041405
	   55 D(5,9,11,13)    =    180.000000    -0.000000     0.393449   180.393449
	   56 D(6,4,7,10)     =      0.000000     0.000003     0.449714     0.449714
	   57 D(6,4,7,11)     =    180.000000     0.000003     0.333625   180.333625
	   58 D(7,11,9,12)    =    180.000000    -0.000011    -1.934492   178.065508
	   59 *D(7,11,13,14)  =     29.999985    -0.000000    -0.000000    29.999985
	   60 D(7,11,13,15)   =   -150.000015    -0.000041   -14.392210  -164.392225
	   61 D(8,5,9,11)     =    180.000000     0.000010     1.512254   181.512254
	   62 D(8,5,9,12)     =      0.000000     0.000003     0.410875     0.410875
	   63 D(9,11,7,10)    =    180.000000     0.000006     1.291805   181.291805
	   64 D(9,11,13,14)   =   -149.999988    -0.000018    -3.486933  -153.486920
	   65 D(9,11,13,15)   =     30.000012    -0.000059   -17.879143    12.120869
	   66 D(10,7,11,13)   =      0.000000    -0.000011    -2.143120    -2.143120
	   67 D(12,9,11,13)   =      0.000000     0.000007     1.500362     1.500362
	 ---------------------------------------------------------------------------

  ==> Convergence Check <==

  Measures of convergence in internal coordinates in au.
  Criteria marked as inactive (o), active & met (*), and active & unmet ( ).
  --------------------------------------------------------------------------------------------- ~
   Step     Total Energy     Delta E     MAX Force     RMS Force      MAX Disp      RMS Disp    ~
  --------------------------------------------------------------------------------------------- ~
    Convergence Criteria    1.00e-06 *    3.00e-04 *             o    1.20e-03 *             o  ~
  --------------------------------------------------------------------------------------------- ~
      1    -418.28609868   -4.18e+02      3.38e-03      8.15e-04 o    3.12e-01      5.16e-02 o  ~
  ---------------------------------------------------------------------------------------------

	Writing optimization data to binary file.
	Structure for next step:
	Cartesian Geometry (in Angstrom)
	    H    -3.4206611010  -0.9430444224   0.3816172149
	    O    -3.1194326399  -0.1539798265  -0.0473011480
	    C    -1.7772075126  -0.0661423606  -0.0104766142
	    C    -0.9865214054  -1.0325560502   0.6012308096
	    C    -1.1937482384   1.0496468222  -0.5971020317
	    H    -1.4458172264  -1.8879725026   1.0666286970
	    C     0.3866530120  -0.8925217069   0.6010744103
	    H    -1.8246337982   1.7879862497  -1.0545570038
	    C     0.1778905612   1.1923477550  -0.5603942338
	    H     1.0069229862  -1.6403424534   1.0593716743
	    C     0.9854220810   0.2128297288   0.0080527194
	    H     0.6271924750   2.0688120904  -0.9953460142
	    C     2.4557299313   0.3824026875   0.0487409416
	    O     3.2274745194  -0.5245342670   0.0800267363
	    H     2.8098680669   1.3886101482  -0.1981481849
			--------------------------
			 OPTKING Finished Execution 
			--------------------------

    Structure for next step:
    Molecular point group: c1
    Full point group: C1

    Geometry (in Angstrom), charge = 0, multiplicity = 1:

    H           -3.421005238693    -0.943695085212     0.366223856222
    O           -3.119776800585    -0.154630549571    -0.062694473956
    C           -1.777551775789    -0.066793090334    -0.025869942934
    C           -0.986865728979    -1.033206706136     0.585837434150
    C           -1.194092546114     1.048996007262    -0.612495315589
    H           -1.446161514878    -1.888623093208     1.051235286063
    C            0.386308583598    -0.893172373559     0.585681034873
    H           -1.824978057729     1.787335378330    -1.069950252741
    C            0.177546148688     1.191696929132    -0.575787520544
    H            1.006578510415    -1.640993062935     1.043978263862
    C            0.985077606803     0.212178977734    -0.007340610783
    H            0.626848028238     2.068161197623    -1.010739267685
    C            2.455385344902     0.381751923532     0.033347608350
    O            3.227129874007    -0.525184961712     0.064633400716
    H            2.809523453398     1.387959307328    -0.213541499326

gradient() will perform analytic gradient computation.

*** tstart() called on cx1-5-7-2.cx1.hpc.ic.ac.uk
*** at Fri Sep  2 11:54:54 2016


         ---------------------------------------------------------
                                   SCF
            by Justin Turney, Rob Parrish, and Andy Simmonett
                              RHF Reference
                        4 Threads,   2000 MiB Core
         ---------------------------------------------------------

  ==> Geometry <==

    Molecular point group: c1
    Full point group: C1

    Geometry (in Angstrom), charge = 0, multiplicity = 1:

       Center              X                  Y                   Z               Mass       
    ------------   -----------------  -----------------  -----------------  -----------------
           H         -3.421005238693    -0.943695085212     0.366223856222     1.007825032070
           O         -3.119776800585    -0.154630549571    -0.062694473956    15.994914619560
           C         -1.777551775789    -0.066793090334    -0.025869942934    12.000000000000
           C         -0.986865728979    -1.033206706136     0.585837434150    12.000000000000
           C         -1.194092546114     1.048996007262    -0.612495315589    12.000000000000
           H         -1.446161514878    -1.888623093208     1.051235286063     1.007825032070
           C          0.386308583598    -0.893172373559     0.585681034873    12.000000000000
           H         -1.824978057729     1.787335378330    -1.069950252741     1.007825032070
           C          0.177546148688     1.191696929132    -0.575787520544    12.000000000000
           H          1.006578510415    -1.640993062935     1.043978263862     1.007825032070
           C          0.985077606803     0.212178977734    -0.007340610783    12.000000000000
           H          0.626848028238     2.068161197623    -1.010739267685     1.007825032070
           C          2.455385344902     0.381751923532     0.033347608350    12.000000000000
           O          3.227129874007    -0.525184961712     0.064633400716    15.994914619560
           H          2.809523453398     1.387959307328    -0.213541499326     1.007825032070

  Running in c1 symmetry.

  Rotational constants: A =      0.17264  B =      0.03346  C =      0.02820 [cm^-1]
  Rotational constants: A =   5175.57671  B =   1003.12143  C =    845.33523 [MHz]
  Nuclear repulsion =  401.234582888301816

  Charge       = 0
  Multiplicity = 1
  Electrons    = 64
  Nalpha       = 32
  Nbeta        = 32

  ==> Algorithm <==

  SCF Algorithm Type is DF.
  DIIS enabled.
  MOM disabled.
  Fractional occupation disabled.
  Guess Type is READ.
  Energy threshold   = 1.00e-08
  Density threshold  = 1.00e-08
  Integral threshold = 0.00e+00

  ==> Primary Basis <==

  Basis Set: 6-31G*
    Number of shells: 66
    Number of basis function: 147
    Number of Cartesian functions: 147
    Spherical Harmonics?: false
    Max angular momentum: 2

  ==> Pre-Iterations <==

   -------------------------------------------------------
    Irrep   Nso     Nmo     Nalpha   Nbeta   Ndocc  Nsocc
   -------------------------------------------------------
     A        147     147       0       0       0       0
   -------------------------------------------------------
    Total     147     147      32      32      32       0
   -------------------------------------------------------

 OEINTS: Overlap, kinetic, potential, dipole, and quadrupole integrals
         stored in file 35.

  ==> Integral Setup <==

  ==> DFJK: Density-Fitted J/K Matrices <==

    J tasked:                  Yes
    K tasked:                  Yes
    wK tasked:                  No
    OpenMP threads:              4
    Integrals threads:           4
    Memory (MB):              1430
    Algorithm:                Core
    Integral Cache:           NONE
    Schwarz Cutoff:          1E-12
    Fitting Condition:       1E-12

   => Auxiliary Basis Set <=

  Basis Set: 
    Number of shells: 270
    Number of basis function: 879
    Number of Cartesian functions: 879
    Spherical Harmonics?: false
    Max angular momentum: 3

  Minimum eigenvalue in the overlap matrix is 4.1011935369E-04.
  Using Symmetric Orthogonalization.
  SCF Guess: Reading in previously saved MOs, projecting if necessary.

  Using orbitals from previous SCF, no projection.
  Recomputing DOCC and SOCC from number of alpha and beta electrons from previous calculation.
              A 
    DOCC [    32 ]

  ==> Iterations <==

                           Total Energy        Delta E     RMS |[F,P]|

   @DF-RHF iter   0:  -418.27293399224106   -4.18273e+02   7.43441e-04 
   @DF-RHF iter   1:  -418.28336276971788   -1.04288e-02   1.68871e-04 
   @DF-RHF iter   2:  -418.28423309052425   -8.70321e-04   8.24919e-05 DIIS
   @DF-RHF iter   3:  -418.28456006022839   -3.26970e-04   4.38140e-05 DIIS
   @DF-RHF iter   4:  -418.28464624039782   -8.61802e-05   2.21548e-05 DIIS
   @DF-RHF iter   5:  -418.28467740319832   -3.11628e-05   1.06600e-05 DIIS
   @DF-RHF iter   6:  -418.28468373048247   -6.32728e-06   4.20362e-06 DIIS
   @DF-RHF iter   7:  -418.28468459539488   -8.64912e-07   1.79770e-06 DIIS
   @DF-RHF iter   8:  -418.28468472230577   -1.26911e-07   5.86854e-07 DIIS
   @DF-RHF iter   9:  -418.28468473261898   -1.03132e-08   2.03138e-07 DIIS
   @DF-RHF iter  10:  -418.28468473398186   -1.36288e-09   6.64161e-08 DIIS
   @DF-RHF iter  11:  -418.28468473413989   -1.58025e-10   2.30943e-08 DIIS
   @DF-RHF iter  12:  -418.28468473416081   -2.09184e-11   8.72023e-09 DIIS

  ==> Post-Iterations <==

    Orbital Energies (a.u.)
    -----------------------

    Doubly Occupied:                                                      

       1A    -20.609725     2A    -20.558630     3A    -11.328820  
       4A    -11.322027     5A    -11.259560     6A    -11.256618  
       7A    -11.244050     8A    -11.239648     9A    -11.238575  
      10A     -1.430585    11A     -1.399432    12A     -1.170206  
      13A     -1.040699    14A     -1.038225    15A     -0.887972  
      16A     -0.866778    17A     -0.794815    18A     -0.756502  
      19A     -0.713255    20A     -0.666753    21A     -0.642425  
      22A     -0.628241    23A     -0.607647    24A     -0.607028  
      25A     -0.583942    26A     -0.559638    27A     -0.545159  
      28A     -0.506167    29A     -0.484480    30A     -0.418919  
      31A     -0.357157    32A     -0.325509  

    Virtual:                                                              

      33A      0.099462    34A      0.128335    35A      0.209950  
      36A      0.218742    37A      0.241474    38A      0.267841  
      39A      0.302244    40A      0.320918    41A      0.333635  
      42A      0.372168    43A      0.416932    44A      0.432361  
      45A      0.449537    46A      0.502135    47A      0.525524  
      48A      0.550139    49A      0.568001    50A      0.701456  
      51A      0.715661    52A      0.722087    53A      0.744023  
      54A      0.749577    55A      0.770701    56A      0.786635  
      57A      0.809926    58A      0.810438    59A      0.823904  
      60A      0.857514    61A      0.865761    62A      0.888541  
      63A      0.894308    64A      0.935024    65A      0.990051  
      66A      0.997698    67A      1.016760    68A      1.049550  
      69A      1.081708    70A      1.101251    71A      1.104831  
      72A      1.119621    73A      1.133413    74A      1.168672  
      75A      1.183136    76A      1.198665    77A      1.211380  
      78A      1.225940    79A      1.237639    80A      1.278324  
      81A      1.300052    82A      1.347768    83A      1.363842  
      84A      1.392915    85A      1.423989    86A      1.444842  
      87A      1.478096    88A      1.498015    89A      1.560152  
      90A      1.597792    91A      1.630393    92A      1.683408  
      93A      1.709694    94A      1.724478    95A      1.737740  
      96A      1.772306    97A      1.799024    98A      1.885471  
      99A      1.940898   100A      2.009127   101A      2.024203  
     102A      2.043236   103A      2.064177   104A      2.087612  
     105A      2.144942   106A      2.159552   107A      2.228464  
     108A      2.244730   109A      2.264445   110A      2.304545  
     111A      2.329405   112A      2.380307   113A      2.399221  
     114A      2.412675   115A      2.450647   116A      2.454313  
     117A      2.574753   118A      2.591243   119A      2.631988  
     120A      2.653005   121A      2.662533   122A      2.737609  
     123A      2.772361   124A      2.838924   125A      2.859896  
     126A      2.952524   127A      2.965900   128A      2.990233  
     129A      3.020530   130A      3.053295   131A      3.098986  
     132A      3.176077   133A      3.264204   134A      3.297846  
     135A      3.346798   136A      3.390375   137A      3.550185  
     138A      3.832946   139A      4.288028   140A      4.351809  
     141A      4.500345   142A      4.529995   143A      4.565918  
     144A      4.668765   145A      4.741823   146A      4.894340  
     147A      5.177455  

    Final Occupation by Irrep:
              A 
    DOCC [    32 ]

  Energy converged.

  @DF-RHF Final Energy:  -418.28468473416081

   => Energetics <=

    Nuclear Repulsion Energy =            401.2345828883018157
    One-Electron Energy =               -1364.8601568165572644
    Two-Electron Energy =                 545.3408891940946432
    DFT Exchange-Correlation Energy =       0.0000000000000000
    Empirical Dispersion Energy =           0.0000000000000000
    PCM Polarization Energy =               0.0000000000000000
    EFP Energy =                            0.0000000000000000
    Total Energy =                       -418.2846847341608054

    Alert: EFP and PCM quantities not currently incorporated into SCF psivars.

Properties will be evaluated at   0.000000,   0.000000,   0.000000 Bohr
  ==> Properties <==


Properties computed using the SCF density matrix

  Nuclear Dipole Moment: (a.u.)
     X:    -2.1080      Y:     0.7187      Z:     0.1568

  Electronic Dipole Moment: (a.u.)
     X:     0.9699      Y:    -0.5297      Z:     0.1217

  Dipole Moment: (a.u.)
     X:    -1.1381      Y:     0.1890      Z:     0.2785     Total:     1.1869

  Dipole Moment: (Debye)
     X:    -2.8929      Y:     0.4805      Z:     0.7078     Total:     3.0167


  Saving occupied orbitals to File 180.

*** tstop() called on cx1-5-7-2.cx1.hpc.ic.ac.uk at Fri Sep  2 11:55:00 2016
Module time:
	user time   =      18.56 seconds =       0.31 minutes
	system time =       0.18 seconds =       0.00 minutes
	total time  =          6 seconds =       0.10 minutes
Total time:
	user time   =      63.32 seconds =       1.06 minutes
	system time =       0.64 seconds =       0.01 minutes
	total time  =         19 seconds =       0.32 minutes

*** tstart() called on cx1-5-7-2.cx1.hpc.ic.ac.uk
*** at Fri Sep  2 11:55:00 2016


         ------------------------------------------------------------
                                   SCF GRAD                          
                          Rob Parrish, Justin Turney,                
                       Andy Simmonett, and Alex Sokolov              
         ------------------------------------------------------------

  ==> Geometry <==

    Molecular point group: c1
    Full point group: C1

    Geometry (in Angstrom), charge = 0, multiplicity = 1:

       Center              X                  Y                   Z               Mass       
    ------------   -----------------  -----------------  -----------------  -----------------
           H         -3.421005238693    -0.943695085212     0.366223856222     1.007825032070
           O         -3.119776800585    -0.154630549571    -0.062694473956    15.994914619560
           C         -1.777551775789    -0.066793090334    -0.025869942934    12.000000000000
           C         -0.986865728979    -1.033206706136     0.585837434150    12.000000000000
           C         -1.194092546114     1.048996007262    -0.612495315589    12.000000000000
           H         -1.446161514878    -1.888623093208     1.051235286063     1.007825032070
           C          0.386308583598    -0.893172373559     0.585681034873    12.000000000000
           H         -1.824978057729     1.787335378330    -1.069950252741     1.007825032070
           C          0.177546148688     1.191696929132    -0.575787520544    12.000000000000
           H          1.006578510415    -1.640993062935     1.043978263862     1.007825032070
           C          0.985077606803     0.212178977734    -0.007340610783    12.000000000000
           H          0.626848028238     2.068161197623    -1.010739267685     1.007825032070
           C          2.455385344902     0.381751923532     0.033347608350    12.000000000000
           O          3.227129874007    -0.525184961712     0.064633400716    15.994914619560
           H          2.809523453398     1.387959307328    -0.213541499326     1.007825032070

  Nuclear repulsion =  401.234582888301816

  ==> Basis Set <==

  Basis Set: 6-31G*
    Number of shells: 66
    Number of basis function: 147
    Number of Cartesian functions: 147
    Spherical Harmonics?: false
    Max angular momentum: 2

  ==> DFJKGrad: Density-Fitted SCF Gradients <==

    Gradient:                    1
    J tasked:                  Yes
    K tasked:                  Yes
    wK tasked:                  No
    OpenMP threads:              4
    Integrals threads:           4
    Memory (MB):              1430
    Schwarz Cutoff:          0E+00
    Fitting Condition:       1E-12

   => Auxiliary Basis Set <=

  Basis Set: 
    Number of shells: 270
    Number of basis function: 879
    Number of Cartesian functions: 879
    Spherical Harmonics?: false
    Max angular momentum: 3


  -Total Gradient:
     Atom            X                  Y                   Z
    ------   -----------------  -----------------  -----------------
       1       -0.000025650590     0.000106692399     0.000064416798
       2       -0.000112651848     0.000017406322     0.000298687260
       3        0.000025845538    -0.000636636174    -0.000900955011
       4       -0.000310103371     0.001003813083     0.000939625025
       5        0.000058550888    -0.000296594796    -0.000126461627
       6       -0.000066920645     0.000033192803    -0.000055992682
       7        0.000311616726     0.001943744120     0.002993101620
       8       -0.000017911774    -0.000059853328     0.000001510296
       9       -0.000321736815     0.000061394586     0.000621768042
      10        0.000031620090    -0.000063709208    -0.000030703898
      11        0.000697342824    -0.004826218933    -0.016282041547
      12        0.000068489443    -0.000032062306    -0.000159681679
      13        0.002639751321     0.005186494119     0.038458427149
      14       -0.002627047725     0.000108767093    -0.016003986775
      15       -0.000351194059    -0.002546429779    -0.009817712972


*** tstop() called on cx1-5-7-2.cx1.hpc.ic.ac.uk at Fri Sep  2 11:55:07 2016
Module time:
	user time   =      22.67 seconds =       0.38 minutes
	system time =       0.23 seconds =       0.00 minutes
	total time  =          7 seconds =       0.12 minutes
Total time:
	user time   =      86.01 seconds =       1.43 minutes
	system time =       0.87 seconds =       0.01 minutes
	total time  =         26 seconds =       0.43 minutes
CURRENT ENERGY: -418.2846847342

			-----------------------------------------
			 OPTKING 2.0: for geometry optimizations 
			  - R.A. King,  Bethel University        
			-----------------------------------------

	Previous internal coordinate definitions found.
	---Fragment 1 Geometry and Gradient---
	 H          -6.4647630003       -1.7833252640        0.6920627916
	 O          -5.8955237488       -0.2922093905       -0.1184753858
	 C          -3.3590860433       -0.1262206483       -0.0488871072
	 C          -1.8649059577       -1.9524777133        1.1070723089
	 C          -2.2565078895        1.9823151682       -1.1574484041
	 H          -2.7328492070       -3.5689804144        1.9865467919
	 C           0.7300174258       -1.6878511755        1.1067767571
	 H          -3.4487087276        3.3775743727       -2.0219129535
	 C           0.3355135970        2.2519808295       -1.0880807246
	 H           1.9021577159       -3.1010274749        1.9728330074
	 C           1.8615268965        0.4009601591       -0.0138717440
	 H           1.1845711003        3.9082582622       -1.9100204077
	 C           4.6400058526        0.7214065862        0.0630178470
	 O           6.0983916571       -0.9924557467        0.1221394264
	 H           5.3092298908        2.6228629744       -0.4035349517
	            -0.0000256506        0.0001066924        0.0000644168
	            -0.0001126518        0.0000174063        0.0002986873
	             0.0000258455       -0.0006366362       -0.0009009550
	            -0.0003101034        0.0010038131        0.0009396250
	             0.0000585509       -0.0002965948       -0.0001264616
	            -0.0000669206        0.0000331928       -0.0000559927
	             0.0003116167        0.0019437441        0.0029931016
	            -0.0000179118       -0.0000598533        0.0000015103
	            -0.0003217368        0.0000613946        0.0006217680
	             0.0000316201       -0.0000637092       -0.0000307039
	             0.0006973428       -0.0048262189       -0.0162820415
	             0.0000684894       -0.0000320623       -0.0001596817
	             0.0026397513        0.0051864941        0.0384584271
	            -0.0026270477        0.0001087671       -0.0160039868
	            -0.0003511941       -0.0025464298       -0.0098177130

	---Fragment 1 Intrafragment Coordinates---
	 - Coordinate -           - BOHR/RAD -       - ANG/DEG -
	 R(1,2)           =         1.790093	       0.947276
	 R(2,3)           =         2.542816	       1.345600
	 R(3,4)           =         2.627552	       1.390441
	 R(3,5)           =         2.624978	       1.389079
	 R(4,6)           =         2.034670	       1.076701
	 R(4,7)           =         2.608382	       1.380296
	 R(5,8)           =         2.028642	       1.073511
	 R(5,9)           =         2.606934	       1.379530
	 R(7,10)          =         2.030033	       1.074247
	 R(7,11)          =         2.626652	       1.389964
	 R(9,11)          =         2.628482	       1.390933
	 R(9,12)          =         2.034635	       1.076682
	 R(11,13)         =         2.797953	       1.480613
	 R(13,14)         =         2.251157	       1.191261
	 R(13,15)         =         2.069074	       1.094907
	 B(1,2,3)         =         1.938186	     111.049868
	 B(2,3,4)         =         2.134004	     122.269429
	 B(2,3,5)         =         2.048631	     117.377894
	 B(3,4,6)         =         2.094141	     119.985422
	 B(3,4,7)         =         2.088817	     119.680371
	 B(3,5,8)         =         2.077820	     119.050343
	 B(3,5,9)         =         2.082294	     119.306647
	 B(4,3,5)         =         2.100449	     120.346849
	 B(4,7,10)        =         2.098728	     120.248253
	 B(4,7,11)        =         2.105150	     120.616186
	 B(5,9,11)        =         2.112126	     121.015925
	 B(5,9,12)        =         2.081019	     119.233604
	 B(6,4,7)         =         2.100209	     120.333127
	 B(7,11,9)        =         2.076340	     118.965537
	 B(7,11,13)       =         2.102654	     120.473178
	 B(8,5,9)         =         2.122943	     121.635666
	 B(9,11,13)       =         2.102619	     120.471188
	 B(10,7,11)       =         2.079306	     119.135461
	 B(11,9,12)       =         2.089881	     119.741353
	 B(11,13,14)      =         2.161394	     123.838729
	 B(11,13,15)      =         2.004511	     114.850007
	 B(14,13,15)      =         2.089821	     119.737929
	 D(1,2,3,4)       =        -0.008453	      -0.484324
	 D(1,2,3,5)       =        -3.134756	    -179.608268
	 D(2,3,4,6)       =         0.000269	       0.015426
	 D(2,3,4,7)       =         3.135285	     179.638612
	 D(2,3,5,8)       =        -0.003858	      -0.221019
	 D(2,3,5,9)       =         3.120814	     178.809494
	 D(3,4,7,10)      =        -3.127144	    -179.172140
	 D(3,4,7,11)      =         0.012423	       0.711771
	 D(3,5,9,11)      =         0.043768	       2.507698
	 D(3,5,9,12)      =        -3.117048	    -178.593681
	 D(4,3,5,8)       =        -3.130469	    -179.362665
	 D(4,3,5,9)       =        -0.005797	      -0.332152
	 D(4,7,11,9)      =         0.024550	       1.406615
	 D(4,7,11,13)     =         3.106192	     177.971690
	 D(5,3,4,6)       =         3.126129	     179.113979
	 D(5,3,4,7)       =        -0.022041	      -1.262835
	 D(5,9,11,7)      =        -0.053083	      -3.041405
	 D(5,9,11,13)     =        -3.134726	    -179.606551
	 D(6,4,7,10)      =         0.007849	       0.449714
	 D(6,4,7,11)      =        -3.135770	    -179.666375
	 D(7,11,9,12)     =         3.107829	     178.065508
	*D(7,11,13,14)    =         0.523599	      29.999985
	 D(7,11,13,15)    =        -2.869186	    -164.392225
	 D(8,5,9,11)      =        -3.115199	    -178.487746
	 D(8,5,9,12)      =         0.007171	       0.410875
	 D(9,11,7,10)     =        -3.119046	    -178.708195
	 D(9,11,13,14)    =        -2.678852	    -153.486920
	 D(9,11,13,15)    =         0.211549	      12.120869
	 D(10,7,11,13)    =        -0.037404	      -2.143120
	 D(12,9,11,13)    =         0.026186	       1.500362

	Current energy   :      -418.2846847342

	Energy change for the previous step:
		Projected    :        -0.0013546737
		Actual       :         0.0014139448

	Performing BFGS update.
	Previous computed or guess Hessian on step 1.
	Steps to be used in Hessian update: 1
	Taking RFO optimization step.
	Going to follow RFO solution 1.
	Using RFO vector 1.
	Norm of target step-size    0.27429
	Projected energy change by RFO approximation:        -0.0035449333

	Back-transformation to cartesian coordinates...
	Successfully converged to displaced geometry.

	Back-transformation to cartesian coordinates to adjust frozen coordinates...
	Successfully converged to displaced geometry.

	--- Internal Coordinate Step in ANG or DEG, aJ/ANG or AJ/DEG ---
	 ---------------------------------------------------------------------------
	   Coordinate                Previous        Force       Change         New 
	   ----------                --------       ------       ------       ------
	    1 R(1,2)          =      0.947276     0.000425    -0.000039     0.947237
	    2 R(2,3)          =      1.345600    -0.000988     0.000315     1.345915
	    3 R(3,4)          =      1.390441     0.002335    -0.000430     1.390011
	    4 R(3,5)          =      1.389079     0.000970    -0.000098     1.388980
	    5 R(4,6)          =      1.076701     0.000181     0.000006     1.076707
	    6 R(4,7)          =      1.380296    -0.002685     0.000362     1.380659
	    7 R(5,8)          =      1.073511     0.000258     0.000041     1.073553
	    8 R(5,9)          =      1.379530    -0.000930     0.000025     1.379556
	    9 R(7,10)         =      1.074247    -0.000408     0.000132     1.074380
	   10 R(7,11)         =      1.389964     0.002647    -0.000240     1.389724
	   11 R(9,11)         =      1.390933     0.000173    -0.000068     1.390865
	   12 R(9,12)         =      1.076682    -0.000552    -0.000001     1.076682
	   13 R(11,13)        =      1.480613    -0.002685     0.001484     1.482097
	   14 R(13,14)        =      1.191261     0.018167     0.000101     1.191362
	   15 R(13,15)        =      1.094907     0.001977     0.000065     1.094972
	   16 B(1,2,3)        =    111.049868    -0.000005    -0.028608   111.021261
	   17 B(2,3,4)        =    122.269429    -0.000003     0.030506   122.299936
	   18 B(2,3,5)        =    117.377894    -0.000010     0.001674   117.379568
	   19 B(3,4,6)        =    119.985422     0.000014     0.021932   120.007354
	   20 B(3,4,7)        =    119.680371    -0.000014    -0.009201   119.671170
	   21 B(3,5,8)        =    119.050343     0.000007     0.010126   119.060470
	   22 B(3,5,9)        =    119.306647    -0.000008     0.016943   119.323589
	   23 B(4,3,5)        =    120.346849     0.000013    -0.038252   120.308597
	   24 B(4,7,10)       =    120.248253    -0.000003    -0.085204   120.163049
	   25 B(4,7,11)       =    120.616186     0.000007     0.028605   120.644792
	   26 B(5,9,11)       =    121.015925     0.000000    -0.024338   120.991588
	   27 B(5,9,12)       =    119.233604    -0.000002    -0.008429   119.225175
	   28 B(6,4,7)        =    120.333127     0.000000    -0.011762   120.321365
	   29 B(7,11,9)       =    118.965537    -0.000001    -0.096449   118.869089
	   30 B(7,11,13)      =    120.473178     0.000054    -0.063078   120.410100
	   31 B(8,5,9)        =    121.635666     0.000001    -0.034014   121.601652
	   32 B(9,11,13)      =    120.471188    -0.000063    -0.163521   120.307667
	   33 B(10,7,11)      =    119.135461    -0.000003     0.054007   119.189468
	   34 B(11,9,12)      =    119.741353     0.000002     0.024267   119.765620
	   35 B(11,13,14)     =    123.838729     0.000267     0.592537   124.431267
	   36 B(11,13,15)     =    114.850007     0.000034     0.658052   115.508059
	   37 B(14,13,15)     =    119.737929    -0.000110     0.264486   120.002415
	   38 D(1,2,3,4)      =     -0.484324    -0.000001    -0.313535    -0.797859
	   39 D(1,2,3,5)      =   -179.608268    -0.000002     0.062746  -179.545522
	   40 D(2,3,4,6)      =      0.015426    -0.000006    -0.319720    -0.304294
	   41 D(2,3,4,7)      =    179.638612     0.000001    -0.064348   179.574264
	   42 D(2,3,5,8)      =     -0.221019     0.000005     0.194277    -0.026742
	   43 D(2,3,5,9)      =    178.809494     0.000006    -0.188941   178.620552
	   44 D(3,4,7,10)     =   -179.172140    -0.000009    -0.181128  -179.353268
	   45 D(3,4,7,11)     =      0.711771    -0.000018    -0.666692     0.045079
	   46 D(3,5,9,11)     =      2.507698     0.000004     1.218950     3.726648
	   47 D(3,5,9,12)     =   -178.593681     0.000004     0.789809  -177.803871
	   48 D(4,3,5,8)      =   -179.362665     0.000005     0.562061  -178.800603
	   49 D(4,3,5,9)      =     -0.332152     0.000005     0.178843    -0.153309
	   50 D(4,7,11,9)     =      1.406615     0.000027     2.019784     3.426399
	   51 D(4,7,11,13)    =    177.971690    -0.000019    -1.899036   176.072655
	   52 D(5,3,4,6)      =    179.113979    -0.000006    -0.706388   178.407591
	   53 D(5,3,4,7)      =     -1.262835     0.000002    -0.451015    -1.713850
	   54 D(5,9,11,7)     =     -3.041405    -0.000020    -2.304473    -5.345878
	   55 D(5,9,11,13)    =   -179.606551     0.000025     1.606678  -177.999872
	   56 D(6,4,7,10)     =      0.449714    -0.000001     0.075189     0.524903
	   57 D(6,4,7,11)     =   -179.666375    -0.000010    -0.410376  -180.076751
	   58 D(7,11,9,12)    =    178.065508    -0.000020    -1.872676   176.192831
	   59 *D(7,11,13,14)  =     29.999985     0.000000    -0.000000    29.999985
	   60 D(7,11,13,15)   =   -164.392225     0.000191    11.605497  -152.786728
	   61 D(8,5,9,11)     =   -178.487746     0.000004     0.826112  -177.661634
	   62 D(8,5,9,12)     =      0.410875     0.000005     0.396972     0.807847
	   63 D(9,11,7,10)    =   -178.708195     0.000018     1.538739  -177.169456
	   64 D(9,11,13,14)   =   -153.486920    -0.000046    -3.973033  -157.459954
	   65 D(9,11,13,15)   =     12.120869     0.000145     7.632464    19.753333
	   66 D(10,7,11,13)   =     -2.143120    -0.000027    -2.380081    -4.523201
	   67 D(12,9,11,13)   =      1.500362     0.000025     2.038475     3.538837
	 ---------------------------------------------------------------------------

  ==> Convergence Check <==

  Measures of convergence in internal coordinates in au.
  Criteria marked as inactive (o), active & met (*), and active & unmet ( ).
  ---------------------------------------------------------------------------------------------
   Step     Total Energy     Delta E     MAX Force     RMS Force      MAX Disp      RMS Disp   
  ---------------------------------------------------------------------------------------------
    Convergence Criteria    1.00e-06 *    3.00e-04 *             o    1.20e-03 *             o
  ---------------------------------------------------------------------------------------------
      2    -418.28468473    1.41e-03      1.10e-02      1.87e-03 o    2.03e-01      3.34e-02 o  ~
  ---------------------------------------------------------------------------------------------

	Writing optimization data to binary file.
	Structure for next step:
	Cartesian Geometry (in Angstrom)
	    H    -3.4219960660  -0.9322203498   0.3927678371
	    O    -3.1226047145  -0.1468915827  -0.0441317437
	    C    -1.7792356702  -0.0662828619  -0.0254265802
	    C    -0.9857532001  -1.0300615750   0.5858406995
	    C    -1.1975368525   1.0438980523  -0.6240841470
	    H    -1.4430814432  -1.8756372699   1.0707645484
	    C     0.3883857120  -0.8976799868   0.5649703463
	    H    -1.8303832351   1.7856276671  -1.0733706381
	    C     0.1749768044   1.1814846587  -0.6028617904
	    H     1.0096108598  -1.6432586836   1.0259293227
	    C     0.9858119284   0.1901487551  -0.0603641159
	    H     0.6219815244   2.0600507250  -1.0359340424
	    C     2.4555499435   0.3730441584  -0.0053132527
	    O     3.2428683680  -0.5178885024   0.0702670813
	    H     2.8053717683   1.4074476649  -0.0865355126
			--------------------------
			 OPTKING Finished Execution 
			--------------------------

    Structure for next step:
    Molecular point group: c1
    Full point group: C1

    Geometry (in Angstrom), charge = 0, multiplicity = 1:

    H           -3.423256256202    -0.929842300673     0.403362272077
    O           -3.123864927557    -0.144513593559    -0.033537275385
    C           -1.780495985843    -0.063904878925    -0.014832113328
    C           -0.987013576314    -1.027683518478     0.596435119656
    C           -1.198797212518     1.046275950493    -0.613489634425
    H           -1.444341784484    -1.873259148717     1.081358931541
    C            0.387125230799    -0.895301940311     0.575564768093
    H           -1.831643546799     1.788005508653    -1.062776091211
    C            0.173716339513     1.183862546378    -0.592267279393
    H            1.008350331207    -1.640880580220     1.036523709320
    C            0.984551401558     0.192526718450    -0.049769646370
    H            0.620721025394     2.062428545602    -1.025339498387
    C            2.454289304484     0.375422107795     0.005281212603
    O            3.241607668818    -0.515510484968     0.080861540872
    H            2.804111102545     1.409825535339    -0.075941041025

gradient() will perform analytic gradient computation.

*** tstart() called on cx1-5-7-2.cx1.hpc.ic.ac.uk
*** at Fri Sep  2 11:55:07 2016


         ---------------------------------------------------------
                                   SCF
            by Justin Turney, Rob Parrish, and Andy Simmonett
                              RHF Reference
                        4 Threads,   2000 MiB Core
         ---------------------------------------------------------

  ==> Geometry <==

    Molecular point group: c1
    Full point group: C1

    Geometry (in Angstrom), charge = 0, multiplicity = 1:

       Center              X                  Y                   Z               Mass       
    ------------   -----------------  -----------------  -----------------  -----------------
           H         -3.423256256202    -0.929842300673     0.403362272077     1.007825032070
           O         -3.123864927557    -0.144513593559    -0.033537275385    15.994914619560
           C         -1.780495985843    -0.063904878925    -0.014832113328    12.000000000000
           C         -0.987013576314    -1.027683518478     0.596435119656    12.000000000000
           C         -1.198797212518     1.046275950493    -0.613489634425    12.000000000000
           H         -1.444341784484    -1.873259148717     1.081358931541     1.007825032070
           C          0.387125230799    -0.895301940311     0.575564768093    12.000000000000
           H         -1.831643546799     1.788005508653    -1.062776091211     1.007825032070
           C          0.173716339513     1.183862546378    -0.592267279393    12.000000000000
           H          1.008350331207    -1.640880580220     1.036523709320     1.007825032070
           C          0.984551401558     0.192526718450    -0.049769646370    12.000000000000
           H          0.620721025394     2.062428545602    -1.025339498387     1.007825032070
           C          2.454289304484     0.375422107795     0.005281212603    12.000000000000
           O          3.241607668818    -0.515510484968     0.080861540872    15.994914619560
           H          2.804111102545     1.409825535339    -0.075941041025     1.007825032070

  Running in c1 symmetry.

  Rotational constants: A =      0.17337  B =      0.03334  C =      0.02811 [cm^-1]
  Rotational constants: A =   5197.60241  B =    999.62785  C =    842.71812 [MHz]
  Nuclear repulsion =  401.032489791531361

  Charge       = 0
  Multiplicity = 1
  Electrons    = 64
  Nalpha       = 32
  Nbeta        = 32

  ==> Algorithm <==

  SCF Algorithm Type is DF.
  DIIS enabled.
  MOM disabled.
  Fractional occupation disabled.
  Guess Type is READ.
  Energy threshold   = 1.00e-08
  Density threshold  = 1.00e-08
  Integral threshold = 0.00e+00

  ==> Primary Basis <==

  Basis Set: 6-31G*
    Number of shells: 66
    Number of basis function: 147
    Number of Cartesian functions: 147
    Spherical Harmonics?: false
    Max angular momentum: 2

  ==> Pre-Iterations <==

   -------------------------------------------------------
    Irrep   Nso     Nmo     Nalpha   Nbeta   Ndocc  Nsocc
   -------------------------------------------------------
     A        147     147       0       0       0       0
   -------------------------------------------------------
    Total     147     147      32      32      32       0
   -------------------------------------------------------

 OEINTS: Overlap, kinetic, potential, dipole, and quadrupole integrals
         stored in file 35.

  ==> Integral Setup <==

  ==> DFJK: Density-Fitted J/K Matrices <==

    J tasked:                  Yes
    K tasked:                  Yes
    wK tasked:                  No
    OpenMP threads:              4
    Integrals threads:           4
    Memory (MB):              1430
    Algorithm:                Core
    Integral Cache:           NONE
    Schwarz Cutoff:          1E-12
    Fitting Condition:       1E-12

   => Auxiliary Basis Set <=

  Basis Set: 
    Number of shells: 270
    Number of basis function: 879
    Number of Cartesian functions: 879
    Spherical Harmonics?: false
    Max angular momentum: 3

  Minimum eigenvalue in the overlap matrix is 4.1896036632E-04.
  Using Symmetric Orthogonalization.
  SCF Guess: Reading in previously saved MOs, projecting if necessary.

  Using orbitals from previous SCF, no projection.
  Recomputing DOCC and SOCC from number of alpha and beta electrons from previous calculation.
              A 
    DOCC [    32 ]

  ==> Iterations <==

                           Total Energy        Delta E     RMS |[F,P]|

   @DF-RHF iter   0:  -418.28057677913034   -4.18281e+02   7.95796e-04 
   @DF-RHF iter   1:  -418.28571094647270   -5.13417e-03   1.32328e-04 
   @DF-RHF iter   2:  -418.28623325708270   -5.22311e-04   6.21624e-05 DIIS
   @DF-RHF iter   3:  -418.28643143257136   -1.98175e-04   3.02632e-05 DIIS
   @DF-RHF iter   4:  -418.28647251147322   -4.10789e-05   1.72634e-05 DIIS
   @DF-RHF iter   5:  -418.28649449053182   -2.19791e-05   6.45878e-06 DIIS
   @DF-RHF iter   6:  -418.28649705962471   -2.56909e-06   2.16165e-06 DIIS
   @DF-RHF iter   7:  -418.28649726192066   -2.02296e-07   8.74710e-07 DIIS
   @DF-RHF iter   8:  -418.28649727877666   -1.68560e-08   2.92221e-07 DIIS
   @DF-RHF iter   9:  -418.28649728074163   -1.96496e-09   8.30341e-08 DIIS
   @DF-RHF iter  10:  -418.28649728092250   -1.80876e-10   3.05202e-08 DIIS
   @DF-RHF iter  11:  -418.28649728094729   -2.47837e-11   1.06727e-08 DIIS
   @DF-RHF iter  12:  -418.28649728095172   -4.43379e-12   4.41350e-09 DIIS

  ==> Post-Iterations <==

    Orbital Energies (a.u.)
    -----------------------

    Doubly Occupied:                                                      

       1A    -20.609781     2A    -20.558326     3A    -11.329142  
       4A    -11.322070     5A    -11.259480     6A    -11.257198  
       7A    -11.244140     8A    -11.240069     9A    -11.238699  
      10A     -1.430533    11A     -1.399042    12A     -1.170542  
      13A     -1.040846    14A     -1.038445    15A     -0.887909  
      16A     -0.866623    17A     -0.795088    18A     -0.756533  
      19A     -0.713153    20A     -0.667467    21A     -0.642782  
      22A     -0.628782    23A     -0.607707    24A     -0.607054  
      25A     -0.584650    26A     -0.560262    27A     -0.542721  
      28A     -0.506199    29A     -0.485266    30A     -0.419244  
      31A     -0.357085    32A     -0.326166  

    Virtual:                                                              

      33A      0.100994    34A      0.127954    35A      0.209838  
      36A      0.219123    37A      0.242023    38A      0.268188  
      39A      0.301334    40A      0.318835    41A      0.332170  
      42A      0.373726    43A      0.417635    44A      0.430000  
      45A      0.449306    46A      0.500262    47A      0.523044  
      48A      0.551378    49A      0.568851    50A      0.700029  
      51A      0.712762    52A      0.724475    53A      0.741519  
      54A      0.751160    55A      0.771464    56A      0.790387  
      57A      0.809252    58A      0.810551    59A      0.825529  
      60A      0.857210    61A      0.868718    62A      0.886377  
      63A      0.896891    64A      0.934322    65A      0.986338  
      66A      0.997326    67A      1.014090    68A      1.054914  
      69A      1.081101    70A      1.100274    71A      1.103990  
      72A      1.119310    73A      1.132620    74A      1.163688  
      75A      1.181460    76A      1.201023    77A      1.208440  
      78A      1.223936    79A      1.234273    80A      1.293298  
      81A      1.298272    82A      1.319079    83A      1.362136  
      84A      1.398686    85A      1.418877    86A      1.433694  
      87A      1.458654    88A      1.503994    89A      1.557228  
      90A      1.594786    91A      1.633219    92A      1.690663  
      93A      1.715602    94A      1.731037    95A      1.748502  
      96A      1.773845    97A      1.831865    98A      1.851649  
      99A      1.938280   100A      2.008040   101A      2.020476  
     102A      2.040977   103A      2.067732   104A      2.088544  
     105A      2.146119   106A      2.164049   107A      2.226237  
     108A      2.247954   109A      2.257989   110A      2.304468  
     111A      2.342683   112A      2.364136   113A      2.398260  
     114A      2.413559   115A      2.450412   116A      2.453448  
     117A      2.573770   118A      2.588472   119A      2.630663  
     120A      2.650954   121A      2.661737   122A      2.738329  
     123A      2.770934   124A      2.838717   125A      2.863142  
     126A      2.948736   127A      2.964067   128A      2.987476  
     129A      3.023918   130A      3.054090   131A      3.099266  
     132A      3.175654   133A      3.261421   134A      3.295400  
     135A      3.350753   136A      3.392367   137A      3.551264  
     138A      3.830471   139A      4.299524   140A      4.352136  
     141A      4.504321   142A      4.529579   143A      4.569461  
     144A      4.674265   145A      4.741892   146A      4.893785  
     147A      5.175904  

    Final Occupation by Irrep:
              A 
    DOCC [    32 ]

  Energy converged.

  @DF-RHF Final Energy:  -418.28649728095172

   => Energetics <=

    Nuclear Repulsion Energy =            401.0324897915313613
    One-Electron Energy =               -1364.4519713559018328
    Two-Electron Energy =                 545.1329842834186366
    DFT Exchange-Correlation Energy =       0.0000000000000000
    Empirical Dispersion Energy =           0.0000000000000000
    PCM Polarization Energy =               0.0000000000000000
    EFP Energy =                            0.0000000000000000
    Total Energy =                       -418.2864972809518349

    Alert: EFP and PCM quantities not currently incorporated into SCF psivars.

Properties will be evaluated at   0.000000,   0.000000,   0.000000 Bohr
  ==> Properties <==


Properties computed using the SCF density matrix

  Nuclear Dipole Moment: (a.u.)
     X:    -2.1238      Y:     0.7621      Z:     0.3351

  Electronic Dipole Moment: (a.u.)
     X:     0.9737      Y:    -0.5686      Z:    -0.0590

  Dipole Moment: (a.u.)
     X:    -1.1501      Y:     0.1935      Z:     0.2760     Total:     1.1985

  Dipole Moment: (Debye)
     X:    -2.9233      Y:     0.4918      Z:     0.7016     Total:     3.0463


  Saving occupied orbitals to File 180.

*** tstop() called on cx1-5-7-2.cx1.hpc.ic.ac.uk at Fri Sep  2 11:55:13 2016
Module time:
	user time   =      17.74 seconds =       0.30 minutes
	system time =       0.19 seconds =       0.00 minutes
	total time  =          6 seconds =       0.10 minutes
Total time:
	user time   =     104.50 seconds =       1.74 minutes
	system time =       1.07 seconds =       0.02 minutes
	total time  =         32 seconds =       0.53 minutes

*** tstart() called on cx1-5-7-2.cx1.hpc.ic.ac.uk
*** at Fri Sep  2 11:55:13 2016


         ------------------------------------------------------------
                                   SCF GRAD                          
                          Rob Parrish, Justin Turney,                
                       Andy Simmonett, and Alex Sokolov              
         ------------------------------------------------------------

  ==> Geometry <==

    Molecular point group: c1
    Full point group: C1

    Geometry (in Angstrom), charge = 0, multiplicity = 1:

       Center              X                  Y                   Z               Mass       
    ------------   -----------------  -----------------  -----------------  -----------------
           H         -3.423256256202    -0.929842300673     0.403362272077     1.007825032070
           O         -3.123864927557    -0.144513593559    -0.033537275385    15.994914619560
           C         -1.780495985843    -0.063904878925    -0.014832113328    12.000000000000
           C         -0.987013576314    -1.027683518478     0.596435119656    12.000000000000
           C         -1.198797212518     1.046275950493    -0.613489634425    12.000000000000
           H         -1.444341784484    -1.873259148717     1.081358931541     1.007825032070
           C          0.387125230799    -0.895301940311     0.575564768093    12.000000000000
           H         -1.831643546799     1.788005508653    -1.062776091211     1.007825032070
           C          0.173716339513     1.183862546378    -0.592267279393    12.000000000000
           H          1.008350331207    -1.640880580220     1.036523709320     1.007825032070
           C          0.984551401558     0.192526718450    -0.049769646370    12.000000000000
           H          0.620721025394     2.062428545602    -1.025339498387     1.007825032070
           C          2.454289304484     0.375422107795     0.005281212603    12.000000000000
           O          3.241607668818    -0.515510484968     0.080861540872    15.994914619560
           H          2.804111102545     1.409825535339    -0.075941041025     1.007825032070

  Nuclear repulsion =  401.032489791531361

  ==> Basis Set <==

  Basis Set: 6-31G*
    Number of shells: 66
    Number of basis function: 147
    Number of Cartesian functions: 147
    Spherical Harmonics?: false
    Max angular momentum: 2

  ==> DFJKGrad: Density-Fitted SCF Gradients <==

    Gradient:                    1
    J tasked:                  Yes
    K tasked:                  Yes
    wK tasked:                  No
    OpenMP threads:              4
    Integrals threads:           4
    Memory (MB):              1430
    Schwarz Cutoff:          0E+00
    Fitting Condition:       1E-12

   => Auxiliary Basis Set <=

  Basis Set: 
    Number of shells: 270
    Number of basis function: 879
    Number of Cartesian functions: 879
    Spherical Harmonics?: false
    Max angular momentum: 3


  -Total Gradient:
     Atom            X                  Y                   Z
    ------   -----------------  -----------------  -----------------
       1        0.000030887330     0.000146126371     0.000049239455
       2       -0.000432122716     0.000041461924     0.000401969303
       3        0.000303365128    -0.000431721118    -0.001089490054
       4       -0.000149197023     0.000639673327     0.000585124224
       5       -0.000204067663    -0.001240696284    -0.000499653900
       6       -0.000119614391    -0.000019298646    -0.000120263672
       7       -0.000471903426     0.004096503923     0.005505309882
       8        0.000049347470    -0.000124092318    -0.000217830162
       9        0.000835265826     0.001152282967     0.003044664640
      10       -0.000033616152    -0.000147264784     0.000120842329
      11       -0.001099542202    -0.007021378576    -0.013498983519
      12        0.000007522001     0.000223368659     0.000308170271
      13       -0.000163035999     0.002661836469     0.011717270992
      14        0.000379415107     0.000167696393    -0.006388465833
      15        0.001067296716    -0.000144498305     0.000082096044


*** tstop() called on cx1-5-7-2.cx1.hpc.ic.ac.uk at Fri Sep  2 11:55:19 2016
Module time:
	user time   =      22.74 seconds =       0.38 minutes
	system time =       0.20 seconds =       0.00 minutes
	total time  =          6 seconds =       0.10 minutes
Total time:
	user time   =     127.25 seconds =       2.12 minutes
	system time =       1.27 seconds =       0.02 minutes
	total time  =         38 seconds =       0.63 minutes
CURRENT ENERGY: -418.2864972810
[...]
       6       -0.000010701434    -0.000003496598    -0.000012802500
       7       -0.000546667785     0.002824968074     0.004657285754
       8        0.000006639099    -0.000001806193    -0.000004456793
       9        0.000070448964    -0.000008512427     0.000092261037
      10        0.000004980747     0.000006747897    -0.000001236457
      11        0.000792010339    -0.004236327490    -0.009937600647
      12       -0.000001168005    -0.000004232017    -0.000007626324
      13       -0.000574650815     0.001664928248     0.011929947635
      14        0.000251367455    -0.000216838230    -0.006699513889
      15        0.000011746491    -0.000008162546     0.000004662940


*** tstop() called on cx1-5-7-2.cx1.hpc.ic.ac.uk at Fri Sep  2 11:55:55 2016
Module time:
	user time   =      22.42 seconds =       0.37 minutes
	system time =       0.22 seconds =       0.00 minutes
	total time  =          7 seconds =       0.12 minutes
Total time:
	user time   =     246.49 seconds =       4.11 minutes
	system time =       2.47 seconds =       0.04 minutes
	total time  =         74 seconds =       1.23 minutes
CURRENT ENERGY: -418.2866146192

			-----------------------------------------
			 OPTKING 2.0: for geometry optimizations 
			  - R.A. King,  Bethel University        
			-----------------------------------------

	Previous internal coordinate definitions found.
	---Fragment 1 Geometry and Gradient---
	 H          -6.4665343321       -1.7631526380        0.7523586120
	 O          -5.9007610037       -0.2713920049       -0.0596186017
	 C          -3.3630355457       -0.1158841114       -0.0178683565
	 C          -1.8636118473       -1.9463019891        1.1235223299
	 C          -2.2645896117        1.9811243047       -1.1540713450
	 H          -2.7269975318       -3.5504826379        2.0295980356
	 C           0.7325962496       -1.6908334535        1.0942481718
	 H          -3.4610996414        3.3796565894       -2.0073589184
	 C           0.3293667881        2.2309705719       -1.1313023686
	 H           1.9079754267       -3.1006476273        1.9611896634
	 C           1.8607042692        0.3773136556       -0.0662605406
	 H           1.1760735971        3.8775169148       -1.9746694251
	 C           4.6363332540        0.7082726883        0.0169915565
	 O           6.1194305395       -0.9825004049        0.1202779136
	 H           5.2932892094        2.6652700323       -0.1194925922
	            -0.0000019079        0.0000060096        0.0000060223
	            -0.0000005953       -0.0000314640       -0.0000155637
	            -0.0000139793        0.0001108680        0.0000092487
	             0.0000691438       -0.0000170945        0.0000243351
	            -0.0000566663       -0.0000855878       -0.0000449632
	            -0.0000107014       -0.0000034966       -0.0000128025
	            -0.0005466678        0.0028249681        0.0046572858
	             0.0000066391       -0.0000018062       -0.0000044568
	             0.0000704490       -0.0000085124        0.0000922610
	             0.0000049807        0.0000067479       -0.0000012365
	             0.0007920103       -0.0042363275       -0.0099376006
	            -0.0000011680       -0.0000042320       -0.0000076263
	            -0.0005746508        0.0016649282        0.0119299476
	             0.0002513675       -0.0002168382       -0.0066995139
	             0.0000117465       -0.0000081625        0.0000046629

	---Fragment 1 Intrafragment Coordinates---
	 - Coordinate -           - BOHR/RAD -       - ANG/DEG -
	 R(1,2)           =         1.790183	       0.947324
	 R(2,3)           =         2.542828	       1.345607
	 R(3,4)           =         2.627066	       1.390183
	 R(3,5)           =         2.625830	       1.389530
	 R(4,6)           =         2.034651	       1.076691
	 R(4,7)           =         2.608911	       1.380576
	 R(5,8)           =         2.028701	       1.073543
	 R(5,9)           =         2.606061	       1.379068
	 R(7,10)          =         2.029946	       1.074201
	 R(7,11)          =         2.626146	       1.389696
	 R(9,11)          =         2.629706	       1.391580
	 R(9,12)          =         2.034526	       1.076625
	 R(11,13)         =         2.796530	       1.479860
	 R(13,14)         =         2.251435	       1.191408
	 R(13,15)         =         2.068830	       1.094778
	 B(1,2,3)         =         1.937909	     111.033986
	 B(2,3,4)         =         2.134284	     122.285453
	 B(2,3,5)         =         2.047912	     117.336694
	 B(3,4,6)         =         2.095118	     120.041422
	 B(3,4,7)         =         2.088491	     119.661736
	 B(3,5,8)         =         2.078090	     119.065779
	 B(3,5,9)         =         2.081927	     119.285606
	 B(4,3,5)         =         2.100953	     120.375743
	 B(4,7,10)        =         2.098327	     120.225279
	 B(4,7,11)        =         2.105458	     120.633876
	 B(5,9,11)        =         2.112478	     121.036081
	 B(5,9,12)        =         2.080826	     119.222558
	 B(6,4,7)         =         2.099571	     120.296575
	 B(7,11,9)        =         2.075952	     118.943299
	 B(7,11,13)       =         2.101804	     120.424482
	 B(8,5,9)         =         2.123083	     121.643713
	 B(9,11,13)       =         2.102040	     120.438025
	 B(10,7,11)       =         2.079379	     119.139618
	 B(11,9,12)       =         2.089795	     119.736428
	 B(11,13,14)      =         2.172808	     124.492710
	 B(11,13,15)      =         2.009936	     115.160866
	 B(14,13,15)      =         2.099283	     120.280039
	 D(1,2,3,4)       =        -0.013019	      -0.745949
	 D(1,2,3,5)       =         3.137772	     179.781072
	 D(2,3,4,6)       =        -0.009366	      -0.536658
	 D(2,3,4,7)       =         3.135497	     179.650735
	 D(2,3,5,8)       =         0.001679	       0.096225
	 D(2,3,5,9)       =         3.129449	     179.304237
	 D(3,4,7,10)      =        -3.135141	    -179.630341
	 D(3,4,7,11)      =        -0.000643	      -0.036813
	 D(3,5,9,11)      =         0.038404	       2.200377
	 D(3,5,9,12)      =        -3.117329	    -178.609769
	 D(4,3,5,8)       =        -3.130900	    -179.387341
	 D(4,3,5,9)       =        -0.003130	      -0.179328
	 D(4,7,11,9)      =         0.034900	       1.999604
	 D(4,7,11,13)     =         3.088502	     176.958105
	 D(5,3,4,6)       =         3.122755	     178.920685
	 D(5,3,4,7)       =        -0.015567	      -0.891923
	 D(5,9,11,7)      =        -0.054150	      -3.102548
	 D(5,9,11,13)     =        -3.107739	    -178.060347
	 D(6,4,7,10)      =         0.009731	       0.557537
	 D(6,4,7,11)      =        -3.138956	    -179.848935
	 D(7,11,9,12)     =         3.101655	     177.711717
	*D(7,11,13,14)    =         0.523599	      29.999985
	 D(7,11,13,15)    =        -2.669784	    -152.967368
	 D(8,5,9,11)      =        -3.117381	    -178.612763
	 D(8,5,9,12)      =         0.010072	       0.577091
	 D(9,11,7,10)     =        -3.113711	    -178.402501
	 D(9,11,13,14)    =        -2.707307	    -155.117271
	 D(9,11,13,15)    =         0.382495	      21.915377
	 D(10,7,11,13)    =        -0.060109	      -3.444000
	 D(12,9,11,13)    =         0.048065	       2.753917

	Current energy   :      -418.2866146192

	Energy change for the previous step:
		Projected    :        -0.0000089512
		Actual       :        -0.0000017264
	Energy ratio indicates iffy step: Trust radius decreased to 3.125e-02.


	Performing BFGS update.
	Previous computed or guess Hessian on step 1.
	Steps to be used in Hessian update: 5 4
	Taking RFO optimization step.
	Going to follow RFO solution 1.
	Rejecting RFO root 1 because normalization gives large value.
	Rejecting RFO root 2 because normalization gives large value.
	Using RFO vector 3.
	Norm of target step-size    0.00247
	Projected energy change by RFO approximation:         0.0000000708

	Back-transformation to cartesian coordinates...
	Successfully converged to displaced geometry.

	Back-transformation to cartesian coordinates to adjust frozen coordinates...
	Successfully converged to displaced geometry.

	--- Internal Coordinate Step in ANG or DEG, aJ/ANG or AJ/DEG ---
	 ---------------------------------------------------------------------------
	   Coordinate                Previous        Force       Change         New 
	   ----------                --------       ------       ------       ------
	    1 R(1,2)          =      0.947324     0.000014     0.000000     0.947325
	    2 R(2,3)          =      1.345607    -0.000035     0.000002     1.345609
	    3 R(3,4)          =      1.390183    -0.000279    -0.000047     1.390136
	    4 R(3,5)          =      1.389530     0.000393     0.000056     1.389586
	    5 R(4,6)          =      1.076691    -0.000013    -0.000002     1.076689
	    6 R(4,7)          =      1.380576     0.000294     0.000046     1.380623
	    7 R(5,8)          =      1.073543     0.000027     0.000003     1.073546
	    8 R(5,9)          =      1.379068    -0.000382    -0.000048     1.379020
	    9 R(7,10)         =      1.074201     0.000019     0.000006     1.074207
	   10 R(7,11)         =      1.389696    -0.000356    -0.000058     1.389638
	   11 R(9,11)         =      1.391580     0.000497     0.000051     1.391631
	   12 R(9,12)         =      1.076625     0.000006     0.000003     1.076628
	   13 R(11,13)        =      1.479860    -0.000140     0.000013     1.479873
	   14 R(13,14)        =      1.191408    -0.000174    -0.000016     1.191393
	   15 R(13,15)        =      1.094778     0.000035     0.000012     1.094789
	   16 B(1,2,3)        =    111.033986    -0.000000    -0.001319   111.032667
	   17 B(2,3,4)        =    122.285453     0.000001     0.003450   122.288903
	   18 B(2,3,5)        =    117.336694    -0.000002    -0.005632   117.331062
	   19 B(3,4,6)        =    120.041422     0.000001     0.003927   120.045349
	   20 B(3,4,7)        =    119.661736    -0.000000    -0.000995   119.660741
	   21 B(3,5,8)        =    119.065779    -0.000000    -0.002296   119.063483
	   22 B(3,5,9)        =    119.285606    -0.000000     0.000890   119.286496
	   23 B(4,3,5)        =    120.375743     0.000001     0.001899   120.377642
	   24 B(4,7,10)       =    120.225279    -0.000000    -0.002466   120.222813
	   25 B(4,7,11)       =    120.633876    -0.000000    -0.002317   120.631559
	   26 B(5,9,11)       =    121.036081    -0.000000    -0.003911   121.032171
	   27 B(5,9,12)       =    119.222558     0.000000     0.002928   119.225486
	   28 B(6,4,7)        =    120.296575    -0.000001    -0.003053   120.293522
	   29 B(7,11,9)       =    118.943299     0.000001     0.005497   118.948795
	   30 B(7,11,13)      =    120.424482     0.000000    -0.000033   120.424449
	   31 B(8,5,9)        =    121.643713     0.000001     0.001638   121.645351
	   32 B(9,11,13)      =    120.438025    -0.000001    -0.005331   120.432693
	   33 B(10,7,11)      =    119.139618     0.000001     0.004501   119.144119
	   34 B(11,9,12)      =    119.736428     0.000000     0.001558   119.737987
	   35 B(11,13,14)     =    124.492710    -0.000001    -0.003908   124.488803
	   36 B(11,13,15)     =    115.160866    -0.000001     0.001877   115.162743
	   37 B(14,13,15)     =    120.280039     0.000002     0.001996   120.282035
	   38 D(1,2,3,4)      =     -0.745949    -0.000000    -0.049809    -0.795758
	   39 D(1,2,3,5)      =    179.781072     0.000000    -0.015636   179.765436
	   40 D(2,3,4,6)      =     -0.536658     0.000000     0.012492    -0.524166
	   41 D(2,3,4,7)      =    179.650735     0.000000     0.050724   179.701459
	   42 D(2,3,5,8)      =      0.096225    -0.000000    -0.020677     0.075548
	   43 D(2,3,5,9)      =    179.304237     0.000000    -0.001652   179.302585
	   44 D(3,4,7,10)     =   -179.630341    -0.000000     0.000116  -179.630225
	   45 D(3,4,7,11)     =     -0.036813    -0.000000    -0.044171    -0.080984
	   46 D(3,5,9,11)     =      2.200377    -0.000001    -0.051585     2.148793
	   47 D(3,5,9,12)     =   -178.609769     0.000000    -0.002796  -178.612565
	   48 D(4,3,5,8)      =   -179.387341     0.000000     0.012800  -179.374541
	   49 D(4,3,5,9)      =     -0.179328     0.000000     0.031825    -0.147504
	   50 D(4,7,11,9)     =      1.999604     0.000000     0.025120     2.024724
	   51 D(4,7,11,13)    =    176.958105    -0.000000     0.026570   176.984675
	   52 D(5,3,4,6)      =    178.920685    -0.000000    -0.022736   178.897949
	   53 D(5,3,4,7)      =     -0.891923     0.000000     0.015496    -0.876427
	   54 D(5,9,11,7)     =     -3.102548     0.000000     0.023305    -3.079243
	   55 D(5,9,11,13)    =   -178.060347     0.000001     0.021580  -178.038767
	   56 D(6,4,7,10)     =      0.557537     0.000000     0.038431     0.595968
	   57 D(6,4,7,11)     =   -179.848935     0.000000    -0.005856  -179.854791
	   58 D(7,11,9,12)    =    177.711717    -0.000000    -0.025742   177.685975
	   59 *D(7,11,13,14)  =     29.999985    -0.000000    -0.000000    29.999985
	   60 D(7,11,13,15)   =   -152.967368     0.000000    -0.000687  -152.968055
	   61 D(8,5,9,11)     =   -178.612763    -0.000000    -0.032083  -178.644846
	   62 D(8,5,9,12)     =      0.577091     0.000000     0.016706     0.593796
	   63 D(9,11,7,10)    =   -178.402501     0.000000    -0.018722  -178.421223
	   64 D(9,11,13,14)   =   -155.117271    -0.000000     0.002024  -155.115246
	   65 D(9,11,13,15)   =     21.915377    -0.000000     0.001337    21.916714
	   66 D(10,7,11,13)   =     -3.444000    -0.000000    -0.017272    -3.461272
	   67 D(12,9,11,13)   =      2.753917     0.000000    -0.027467     2.726451
	 ---------------------------------------------------------------------------

  ==> Convergence Check <==

  Measures of convergence in internal coordinates in au.
  Criteria marked as inactive (o), active & met (*), and active & unmet ( ).
  ---------------------------------------------------------------------------------------------
   Step     Total Energy     Delta E     MAX Force     RMS Force      MAX Disp      RMS Disp   
  ---------------------------------------------------------------------------------------------
    Convergence Criteria    1.00e-06 *    3.00e-04 *             o    1.20e-03 *             o
  ---------------------------------------------------------------------------------------------
      6    -418.28661462   -1.73e-06      6.04e-05 *    1.79e-05 o    9.00e-04 *    3.02e-04 o  ~
  ---------------------------------------------------------------------------------------------


  **** Optimization is complete! (in 6 steps) ****

  ==> Optimization Summary <==

  Measures of convergence in internal coordinates in au.
  --------------------------------------------------------------------------------------------------------------- ~
   Step         Total Energy             Delta E       MAX Force       RMS Force        MAX Disp        RMS Disp  ~
  --------------------------------------------------------------------------------------------------------------- ~
      1    -418.286098678923   -418.286098678923      0.00337553      0.00081542      0.31204991      0.05159055  ~
      2    -418.284684734161      0.001413944762      0.01096432      0.00186976      0.20255414      0.03343481  ~
      3    -418.286497280952     -0.001812546791      0.00180530      0.00045421      0.04235406      0.01167186  ~
      4    -418.286610962714     -0.000113681763      0.00019939      0.00008342      0.00788427      0.00299985  ~
      5    -418.286612892841     -0.000001930126      0.00012361      0.00005475      0.00374893      0.00125807  ~
      6    -418.286614619213     -0.000001726372      0.00006037      0.00001791      0.00090032      0.00030223  ~
  --------------------------------------------------------------------------------------------------------------- ~

	Writing optimization data to binary file.
	Final energy is   -418.2866146192126
	Final (previous) structure:
	Cartesian Geometry (in Angstrom)
	    H    -3.4219428484  -0.9330202625   0.3981310606
	    O    -3.1225484749  -0.1436144746  -0.0315488076
	    C    -1.7796418984  -0.0613232353  -0.0094555277
	    C    -0.9861809905  -1.0299387323   0.5945424557
	    C    -1.1983693008   1.0483659095  -0.6107082995
	    H    -1.4430650519  -1.8788346350   1.0740171051
	    C     0.3876732680  -0.8947505954   0.5790512373
	    H    -1.8315351867   1.7884373766  -1.0622486702
	    C     0.1742934108   1.1805788698  -0.5986594752
	    H     1.0096571874  -1.6407921815   1.0378169508
	    C     0.9846423664   0.1996658023  -0.0350635706
	    H     0.6223513907   2.0518937339  -1.0449501340
	    C     2.4534420768   0.3748017927   0.0089915451
	    O     3.2382634183  -0.5199168614   0.0636483355
	    H     2.8010882220   1.4104002636  -0.0632327612
	Saving final (previous) structure.
			--------------------------
			 OPTKING Finished Execution 
			--------------------------

    Final optimized geometry and variables:
    Molecular point group: c1
    Full point group: C1

    Geometry (in Angstrom), charge = 0, multiplicity = 1:

    H           -3.421942587103    -0.933020191271     0.398131030148
    O           -3.122548236496    -0.143614463600    -0.031548805230
    C           -1.779641762459    -0.061323230595    -0.009455527027
    C           -0.986180915236    -1.029938653646     0.594542410325
    C           -1.198369209305     1.048365829446    -0.610708252866
    H           -1.443064941725    -1.878834491487     1.074017023045
    C            0.387673238411    -0.894750527092     0.579051193065
    H           -1.831535046871     1.788437239995    -1.062248589067
    C            0.174293397524     1.180578779659    -0.598659429488
    H            1.009657110341    -1.640792056216     1.037816871579
    C            0.984642291165     0.199665787024    -0.035063567890
    H            0.622351343191     2.051893577245    -1.044950054244
    C            2.453441889437     0.374801764096     0.008991544434
    O            3.238263171030    -0.519916821685     0.063648330599
    H            2.801088008079     1.410400155854    -0.063232756412

	Cleaning optimization helper files.


Properties will be evaluated at   0.000000,   0.000000,   0.000000 Bohr

Properties computed using the  density matrix

  Nuclear Dipole Moment: (a.u.)
     X:    -2.1214      Y:     0.7450      Z:     0.3185

  Electronic Dipole Moment: (a.u.)
     X:     0.9746      Y:    -0.5548      Z:    -0.0373

  Dipole Moment: (a.u.)
     X:    -1.1467      Y:     0.1902      Z:     0.2812     Total:     1.1959

  Dipole Moment: (Debye)
     X:    -2.9147      Y:     0.4835      Z:     0.7147     Total:     3.0398

  Quadrupole Moment: (Debye Ang)
    XX:   -60.4613     YY:   -45.9283     ZZ:   -51.5523
    XY:    10.8034     XZ:    -2.8120     YZ:    -4.6386

  Traceless Quadrupole Moment: (Debye Ang)
    XX:    -7.8140     YY:     6.7189     ZZ:     1.0950
    XY:    10.8034     XZ:    -2.8120     YZ:    -4.6386

  Mulliken Charges: (a.u.)
   Center  Symbol    Alpha    Beta     Spin     Total
       1     H     0.26877  0.26877  0.00000  0.46246
       2     O     4.37350  4.37350  0.00000 -0.74700
       3     C     2.78646  2.78646  0.00000  0.42708
       4     C     3.14674  3.14674  0.00000 -0.29347
       5     C     3.12701  3.12701  0.00000 -0.25403
       6     H     0.39823  0.39823  0.00000  0.20354
       7     C     3.08156  3.08156  0.00000 -0.16313
       8     H     0.38651  0.38651  0.00000  0.22697
       9     C     3.09300  3.09300  0.00000 -0.18599
      10     H     0.37758  0.37758  0.00000  0.24485
      11     C     3.05980  3.05980  0.00000 -0.11961
      12     H     0.39036  0.39036  0.00000  0.21928
      13     C     2.83824  2.83824  0.00000  0.32352
      14     O     4.24747  4.24747  0.00000 -0.49493
      15     H     0.42477  0.42477  0.00000  0.15046

   Total alpha = 32.00000, Total beta = 32.00000, Total charge =  0.00000


*** PSI4 exiting successfully. Buy a developer a beer!
