    -----------------------------------------------------------------------
          Psi4: An Open-Source Ab Initio Electronic Structure Package
                              Psi4 1.0.54 Driver

                          Git: Rev {master} 8d4cec3 dirty

    J. M. Turney, A. C. Simmonett, R. M. Parrish, E. G. Hohenstein,
    F. A. Evangelista, J. T. Fermann, B. J. Mintz, L. A. Burns, J. J. Wilke,
    M. L. Abrams, N. J. Russ, M. L. Leininger, C. L. Janssen, E. T. Seidl,
    W. D. Allen, H. F. Schaefer, R. A. King, E. F. Valeev, C. D. Sherrill,
    and T. D. Crawford, WIREs Comput. Mol. Sci. 2, 556-565 (2012)
    (doi: 10.1002/wcms.93)

                         Additional Contributions by
    A. E. DePrince, U. Bozkaya, A. Yu. Sokolov, D. G. A. Smith, R. Di Remigio,
    R. M. Richard, J. F. Gonthier, H. R. McAlexander, M. Saitow, and
    B. P. Pritchard
    -----------------------------------------------------------------------


    Psi4 started on: Sat Sep 10 17:04:11 2016

    Process ID:  30634
    PSI4DATADIR: /export131/home/mjharvey/miniconda3/share/psi4
    Memory level set to 256.000 MB

  ==> Input File <==

--------------------------------------------------------------------------
set {
	reference rhf
	basis cc-pvtz
}


set_num_threads( 4 )
memory 2 gb

molecule MOL {
0 1

H	 2.127035	 -1.046048	 0.509862
C	 1.947315	 -0.180337	 -0.141213
C	 0.692262	 0.592428	 0.156232
O	 2.713773	 0.080970	 -1.002546
C	 -0.554654	 -0.292621	 0.086567
H	 0.627021	 1.420656	 -0.537035
H	 0.790667	 0.998869	 1.160722
C	 -1.846385	 0.513195	 -0.016346
H	 -0.473986	 -0.956115	 -0.769708
H	 -0.597929	 -0.929215	 0.966651
C	 -3.089953	 -0.365049	 -0.098564
H	 -1.798267	 1.154820	 -0.891143
H	 -1.925398	 1.173265	 0.842889
H	 -3.055079	 -1.012299	 -0.968245
H	 -3.988403	 0.236438	 -0.170014
H	 -3.183055	 -0.995885	 0.779079

	symmetry c1
}
set optking {
	frozen_dihedral = ("
		6 3 5 9
	")
}

ee,wfn = optimize('scf', return_wfn=True)
oeprop( wfn, 'DIPOLE', 'QUADRUPOLE', 'MULLIKEN_CHARGES')
f=open( 'psi4out.xyz', 'w' )
f.write( "16  " )
f.write( str(ee) + "\n" )
f.write( MOL.save_string_xyz() )
f.close()
--------------------------------------------------------------------------

  Memory set to   2.000 GiB by Python script.
gradient() will perform analytic gradient computation.

*** tstart() called on cx1-27-2-1
*** at Sat Sep 10 17:04:12 2016


         ---------------------------------------------------------
                                   SCF
            by Justin Turney, Rob Parrish, and Andy Simmonett
                              RHF Reference
                        4 Threads,   2000 MiB Core
         ---------------------------------------------------------

  ==> Geometry <==

    Molecular point group: c1
    Full point group: C1

    Geometry (in Angstrom), charge = 0, multiplicity = 1:

       Center              X                  Y                   Z               Mass       
    ------------   -----------------  -----------------  -----------------  -----------------
           H          2.154658215039    -1.098925506529     0.687213962419     1.007825032070
           C          1.974938215039    -0.233214506529     0.036138962419    12.000000000000
           C          0.719885215039     0.539550493471     0.333583962419    12.000000000000
           O          2.741396215039     0.028092493471    -0.825194037581    15.994914619560
           C         -0.527030784961    -0.345498506529     0.263918962419    12.000000000000
           H          0.654644215039     1.367778493471    -0.359683037581     1.007825032070
           H          0.818290215039     0.945991493471     1.338073962419     1.007825032070
           C         -1.818761784961     0.460317493471     0.161005962419    12.000000000000
           H         -0.446362784961    -1.008992506529    -0.592356037581     1.007825032070
           H         -0.570305784961    -0.982092506529     1.144002962419     1.007825032070
           C         -3.062329784961    -0.417926506529     0.078787962419    12.000000000000
           H         -1.770643784961     1.101942493471    -0.713791037581     1.007825032070
           H         -1.897774784961     1.120387493471     1.020240962419     1.007825032070
           H         -3.027455784961    -1.065176506529    -0.790893037581     1.007825032070
           H         -3.960779784961     0.183560493471     0.007337962419     1.007825032070
           H         -3.155431784961    -1.048762506529     0.956430962419     1.007825032070

  Running in c1 symmetry.

  Rotational constants: A =      0.45570  B =      0.04244  C =      0.04182 [cm^-1]
  Rotational constants: A =  13661.44496  B =   1272.24434  C =   1253.83462 [MHz]
  Nuclear repulsion =  229.623654696556912

  Charge       = 0
  Multiplicity = 1
  Electrons    = 48
  Nalpha       = 24
  Nbeta        = 24

  ==> Algorithm <==

  SCF Algorithm Type is DF.
  DIIS enabled.
  MOM disabled.
  Fractional occupation disabled.
  Guess Type is SAD.
  Energy threshold   = 1.00e-08
  Density threshold  = 1.00e-08
  Integral threshold = 0.00e+00

  ==> Primary Basis <==

  Basis Set: CC-PVTZ
    Number of shells: 120
    Number of basis function: 320
    Number of Cartesian functions: 360
    Spherical Harmonics?: true
    Max angular momentum: 3

  ==> Pre-Iterations <==

   -------------------------------------------------------
    Irrep   Nso     Nmo     Nalpha   Nbeta   Ndocc  Nsocc
   -------------------------------------------------------
     A        320     320       0       0       0       0
   -------------------------------------------------------
    Total     320     320      24      24      24       0
   -------------------------------------------------------

  ==> Integral Setup <==

  ==> DFJK: Density-Fitted J/K Matrices <==

    J tasked:                  Yes
    K tasked:                  Yes
    wK tasked:                  No
    OpenMP threads:              4
    Integrals threads:           4
    Memory (MB):              1430
    Algorithm:                Core
    Integral Cache:           NONE
    Schwarz Cutoff:          1E-12
    Fitting Condition:       1E-12

   => Auxiliary Basis Set <=

  Basis Set: 
    Number of shells: 250
    Number of basis function: 774
    Number of Cartesian functions: 926
    Spherical Harmonics?: true
    Max angular momentum: 4

  Minimum eigenvalue in the overlap matrix is 3.9854119498E-04.
  Using Symmetric Orthogonalization.
  SCF Guess: Superposition of Atomic Densities via on-the-fly atomic UHF.

  ==> Iterations <==

                           Total Energy        Delta E     RMS |[F,P]|

   @DF-RHF iter   0:  -272.99706207182584   -2.72997e+02   1.53885e-02 
   @DF-RHF iter   1:  -269.90120788373844    3.09585e+00   1.89638e-03 
   @DF-RHF iter   2:  -270.04335565576065   -1.42148e-01   1.37006e-03 DIIS
   @DF-RHF iter   3:  -270.11219420555790   -6.88385e-02   2.56561e-04 DIIS
   @DF-RHF iter   4:  -270.11736312461397   -5.16892e-03   7.80458e-05 DIIS
   @DF-RHF iter   5:  -270.11793082533364   -5.67701e-04   2.60639e-05 DIIS
   @DF-RHF iter   6:  -270.11803160708911   -1.00782e-04   1.13294e-05 DIIS
   @DF-RHF iter   7:  -270.11804926457631   -1.76575e-05   4.44383e-06 DIIS
   @DF-RHF iter   8:  -270.11805304508022   -3.78050e-06   1.57304e-06 DIIS
   @DF-RHF iter   9:  -270.11805366924528   -6.24165e-07   6.57046e-07 DIIS
   @DF-RHF iter  10:  -270.11805380008565   -1.30840e-07   3.02396e-07 DIIS
   @DF-RHF iter  11:  -270.11805383224754   -3.21619e-08   9.33028e-08 DIIS
   @DF-RHF iter  12:  -270.11805383423797   -1.99043e-09   2.65444e-08 DIIS
   @DF-RHF iter  13:  -270.11805383433517   -9.72022e-11   6.79133e-09 DIIS

  ==> Post-Iterations <==

    Orbital Energies (a.u.)
    -----------------------

    Doubly Occupied:                                                      

       1A    -20.551891     2A    -11.321296     3A    -11.234484  
       4A    -11.233579     5A    -11.227414     6A    -11.216438  
       7A     -1.406736     8A     -1.097822     9A     -1.020031  
      10A     -0.906736    11A     -0.812408    12A     -0.793720  
      13A     -0.681428    14A     -0.648674    15A     -0.634113  
      16A     -0.604043    17A     -0.585935    18A     -0.547902  
      19A     -0.529133    20A     -0.514420    21A     -0.487178  
      22A     -0.483933    23A     -0.477768    24A     -0.411331  

    Virtual:                                                              

      25A      0.132122    26A      0.151624    27A      0.153740  
      28A      0.160245    29A      0.176071    30A      0.197982  
      31A      0.210796    32A      0.217338    33A      0.238168  
      34A      0.242111    35A      0.248394    36A      0.301278  
      37A      0.311893    38A      0.326319    39A      0.353037  
      40A      0.369331    41A      0.393972    42A      0.413818  
      43A      0.440856    44A      0.452522    45A      0.472934  
      46A      0.485033    47A      0.495737    48A      0.517008  
      49A      0.535479    50A      0.553121    51A      0.559300  
      52A      0.572799    53A      0.601584    54A      0.617140  
      55A      0.624951    56A      0.635851    57A      0.648463  
      58A      0.651994    59A      0.656971    60A      0.669786  
      61A      0.672890    62A      0.685104    63A      0.691115  
      64A      0.697954    65A      0.711256    66A      0.762306  
      67A      0.779853    68A      0.792372    69A      0.826307  
      70A      0.854451    71A      0.877490    72A      0.894755  
      73A      0.911917    74A      0.926420    75A      0.939270  
      76A      0.949411    77A      0.981265    78A      0.993655  
      79A      1.011100    80A      1.039623    81A      1.075244  
      82A      1.096491    83A      1.119790    84A      1.145000  
      85A      1.168016    86A      1.196785    87A      1.214342  
      88A      1.234567    89A      1.240660    90A      1.252213  
      91A      1.269258    92A      1.293209    93A      1.299304  
      94A      1.301741    95A      1.313277    96A      1.335513  
      97A      1.338055    98A      1.362876    99A      1.378026  
     100A      1.396350   101A      1.402864   102A      1.407539  
     103A      1.429974   104A      1.462513   105A      1.470919  
     106A      1.477251   107A      1.485957   108A      1.508063  
     109A      1.516548   110A      1.528652   111A      1.541327  
     112A      1.588256   113A      1.595827   114A      1.613930  
     115A      1.624226   116A      1.655730   117A      1.663393  
     118A      1.681414   119A      1.698505   120A      1.750027  
     121A      1.759887   122A      1.776336   123A      1.798082  
     124A      1.824829   125A      1.839984   126A      1.893196  
     127A      1.913440   128A      1.941866   129A      1.970544  
     130A      2.046454   131A      2.168030   132A      2.294413  
     133A      2.365170   134A      2.430938   135A      2.453761  
     136A      2.510178   137A      2.568755   138A      2.598517  
     139A      2.615994   140A      2.647452   141A      2.652538  
     142A      2.674327   143A      2.697242   144A      2.738589  
     145A      2.765356   146A      2.787948   147A      2.805616  
     148A      2.842311   149A      2.853393   150A      2.867359  
     151A      2.873120   152A      2.892346   153A      2.906511  
     154A      2.944194   155A      2.969459   156A      3.007107  
     157A      3.011639   158A      3.026680   159A      3.043551  
     160A      3.061574   161A      3.094111   162A      3.114225  
     163A      3.126061   164A      3.149554   165A      3.162620  
     166A      3.195700   167A      3.219311   168A      3.226224  
     169A      3.241938   170A      3.278813   171A      3.297999  
     172A      3.310149   173A      3.326985   174A      3.338203  
     175A      3.347338   176A      3.378040   177A      3.384098  
     178A      3.410710   179A      3.416158   180A      3.416565  
     181A      3.424279   182A      3.431248   183A      3.443691  
     184A      3.456115   185A      3.492597   186A      3.503120  
     187A      3.515973   188A      3.545518   189A      3.561877  
     190A      3.566767   191A      3.579067   192A      3.589120  
     193A      3.617741   194A      3.653377   195A      3.671280  
     196A      3.680246   197A      3.717851   198A      3.752746  
     199A      3.779128   200A      3.787678   201A      3.805758  
     202A      3.823212   203A      3.835524   204A      3.852410  
     205A      3.863484   206A      3.886537   207A      3.896784  
     208A      3.922505   209A      3.957526   210A      3.961848  
     211A      3.980018   212A      4.011457   213A      4.049328  
     214A      4.064916   215A      4.093015   216A      4.104615  
     217A      4.131314   218A      4.136046   219A      4.146610  
     220A      4.154730   221A      4.163849   222A      4.180640  
     223A      4.195640   224A      4.208581   225A      4.224875  
     226A      4.255592   227A      4.270696   228A      4.287775  
     229A      4.305044   230A      4.314528   231A      4.335960  
     232A      4.354392   233A      4.368192   234A      4.390573  
     235A      4.414042   236A      4.433118   237A      4.446267  
     238A      4.463047   239A      4.479714   240A      4.511289  
     241A      4.526229   242A      4.561679   243A      4.582320  
     244A      4.585488   245A      4.591272   246A      4.619650  
     247A      4.635868   248A      4.643856   249A      4.659569  
     250A      4.676035   251A      4.691068   252A      4.713513  
     253A      4.736733   254A      4.768050   255A      4.803073  
     256A      4.875061   257A      4.894903   258A      4.917988  
     259A      4.966743   260A      4.993038   261A      5.026544  
     262A      5.041815   263A      5.066140   264A      5.095864  
     265A      5.116982   266A      5.171863   267A      5.201297  
     268A      5.223046   269A      5.238680   270A      5.254983  
     271A      5.277129   272A      5.295395   273A      5.319769  
     274A      5.349648   275A      5.381195   276A      5.399501  
     277A      5.421383   278A      5.442810   279A      5.484717  
     280A      5.495646   281A      5.575607   282A      5.611494  
     283A      5.628119   284A      5.677126   285A      5.715310  
     286A      5.734159   287A      5.744342   288A      5.751413  
     289A      5.777068   290A      5.811475   291A      5.832815  
     292A      5.842521   293A      5.881106   294A      5.897518  
     295A      5.917935   296A      5.932091   297A      5.959922  
     298A      6.034329   299A      6.046923   300A      6.165186  
     301A      6.279107   302A      6.316329   303A      6.325486  
     304A      6.349102   305A      6.373696   306A      6.452382  
     307A      6.777404   308A      6.795964   309A      6.913358  
     310A      6.968807   311A      7.360281   312A      7.385854  
     313A      7.539008   314A      7.589051   315A     10.900758  
     316A     13.118901   317A     13.364616   318A     13.888185  
     319A     14.186347   320A     14.288671  

    Final Occupation by Irrep:
              A 
    DOCC [    24 ]

  Energy converged.

  @DF-RHF Final Energy:  -270.11805383433517

   => Energetics <=

    Nuclear Repulsion Energy =            229.6236546965569119
    One-Electron Energy =                -820.6265881344570516
    Two-Electron Energy =                 320.8848796035650253
    DFT Exchange-Correlation Energy =       0.0000000000000000
    Empirical Dispersion Energy =           0.0000000000000000
    PCM Polarization Energy =               0.0000000000000000
    EFP Energy =                            0.0000000000000000
    Total Energy =                       -270.1180538343350577


  Saving occupied orbitals to File 180.

*** tstop() called on cx1-27-2-1 at Sat Sep 10 17:04:19 2016
Module time:
	user time   =      25.25 seconds =       0.42 minutes
	system time =       0.72 seconds =       0.01 minutes
	total time  =          7 seconds =       0.12 minutes
Total time:
	user time   =      25.25 seconds =       0.42 minutes
	system time =       0.72 seconds =       0.01 minutes
	total time  =          7 seconds =       0.12 minutes


Properties will be evaluated at   0.000000,   0.000000,   0.000000 Bohr

Properties computed using the SCF density matrix

  Nuclear Dipole Moment: (a.u.)
     X:   -10.4876      Y:    -0.4539      Z:     2.5240

  Electronic Dipole Moment: (a.u.)
     X:     9.4929      Y:     0.3356      Z:    -1.7371

  Dipole Moment: (a.u.)
     X:    -0.9947      Y:    -0.1183      Z:     0.7869     Total:     1.2738

  Dipole Moment: (Debye)
     X:    -2.5283      Y:    -0.3006      Z:     2.0000     Total:     3.2377


*** tstart() called on cx1-27-2-1
*** at Sat Sep 10 17:04:19 2016


         ------------------------------------------------------------
                                   SCF GRAD                          
                          Rob Parrish, Justin Turney,                
                       Andy Simmonett, and Alex Sokolov              
         ------------------------------------------------------------

  ==> Geometry <==

    Molecular point group: c1
    Full point group: C1

    Geometry (in Angstrom), charge = 0, multiplicity = 1:

       Center              X                  Y                   Z               Mass       
    ------------   -----------------  -----------------  -----------------  -----------------
           H          2.154658215039    -1.098925506529     0.687213962419     1.007825032070
           C          1.974938215039    -0.233214506529     0.036138962419    12.000000000000
           C          0.719885215039     0.539550493471     0.333583962419    12.000000000000
           O          2.741396215039     0.028092493471    -0.825194037581    15.994914619560
           C         -0.527030784961    -0.345498506529     0.263918962419    12.000000000000
           H          0.654644215039     1.367778493471    -0.359683037581     1.007825032070
           H          0.818290215039     0.945991493471     1.338073962419     1.007825032070
           C         -1.818761784961     0.460317493471     0.161005962419    12.000000000000
           H         -0.446362784961    -1.008992506529    -0.592356037581     1.007825032070
           H         -0.570305784961    -0.982092506529     1.144002962419     1.007825032070
           C         -3.062329784961    -0.417926506529     0.078787962419    12.000000000000
           H         -1.770643784961     1.101942493471    -0.713791037581     1.007825032070
           H         -1.897774784961     1.120387493471     1.020240962419     1.007825032070
           H         -3.027455784961    -1.065176506529    -0.790893037581     1.007825032070
           H         -3.960779784961     0.183560493471     0.007337962419     1.007825032070
           H         -3.155431784961    -1.048762506529     0.956430962419     1.007825032070

  Nuclear repulsion =  229.623654696556912

  ==> Basis Set <==

  Basis Set: CC-PVTZ
    Number of shells: 120
    Number of basis function: 320
    Number of Cartesian functions: 360
    Spherical Harmonics?: true
    Max angular momentum: 3

  ==> DFJKGrad: Density-Fitted SCF Gradients <==

    Gradient:                    1
    J tasked:                  Yes
    K tasked:                  Yes
    wK tasked:                  No
    OpenMP threads:              4
    Integrals threads:           4
    Memory (MB):              1430
    Schwarz Cutoff:          0E+00
    Fitting Condition:       1E-12

   => Auxiliary Basis Set <=

  Basis Set: 
    Number of shells: 250
    Number of basis function: 774
    Number of Cartesian functions: 926
    Spherical Harmonics?: true
    Max angular momentum: 4


  -Total Gradient:
     Atom            X                  Y                   Z
    ------   -----------------  -----------------  -----------------
       1        0.000030892727     0.000304927101     0.000242367505
       2        0.000117300324    -0.000036136059    -0.001559189667
       3       -0.001447346883    -0.001676827010    -0.001172705383
       4        0.000070727869    -0.000118380928     0.000152757804
       5        0.000503381815     0.001774847973     0.000104461471
       6       -0.000648948983     0.000576905507     0.000623296414
       7        0.000286659549    -0.001170850025     0.000774820398
       8        0.000184816958    -0.000012724116    -0.000563888159
       9        0.001406531194    -0.000271756389     0.000748025191
      10       -0.000317737516     0.000536497473     0.001118579935
      11       -0.000035748483     0.000062359705    -0.000313939864
      12       -0.000131942546     0.000280039046    -0.000126322433
      13       -0.000003804863    -0.000234657279    -0.000054222059
      14       -0.000060816627    -0.000009025409     0.000023492240
      15       -0.000026961274    -0.000021126550    -0.000006334617
      16        0.000072996748     0.000015906961     0.000008801226


*** tstop() called on cx1-27-2-1 at Sat Sep 10 17:04:26 2016
Module time:
	user time   =      24.60 seconds =       0.41 minutes
	system time =       0.53 seconds =       0.01 minutes
	total time  =          7 seconds =       0.12 minutes
Total time:
	user time   =      49.98 seconds =       0.83 minutes
	system time =       1.26 seconds =       0.02 minutes
	total time  =         14 seconds =       0.23 minutes

			-----------------------------------------
			 OPTKING 2.0: for geometry optimizations 
			  - R.A. King,  Bethel University        
			-----------------------------------------

	Internal coordinates to be generated automatically.
	Detected frag 1 with atoms:  1 2 3 4 5 6 7 8 9 10 11 12 13 14 15 16
	---Fragment 1 Bond Connectivity---
	 1 : 2
	 2 : 1 3 4
	 3 : 2 5 6 7
	 4 : 2
	 5 : 3 8 9 10
	 6 : 3
	 7 : 3
	 8 : 5 11 12 13
	 9 : 5
	 10 : 5
	 11 : 8 14 15 16
	 12 : 8
	 13 : 8
	 14 : 11
	 15 : 11
	 16 : 11

	Assuming in current code that numbering for constraints corresponds to unified fragment.
	Frozen dihedral atom list: 
	     6     3     5     9
	---Fragment 1 Geometry and Gradient---
	 H           4.0717139364       -2.0766682478        1.2986461837
	 C           3.7320923558       -0.4407115476        0.0682927417
	 C           1.3603859035        1.0196026675        0.6303823313
	 O           5.1804880682        0.0530871190       -1.5593907375
	 C          -0.9959438472       -0.6528975567        0.4987345602
	 H           1.2370982809        2.5847267631       -0.6797024357
	 H           1.5463444036        1.7876648467        2.5285933345
	 C          -3.4369616745        0.8698739968        0.3042571747
	 H          -0.8435034195       -1.9067195075       -1.1193906842
	 H          -1.0777217456       -1.8558858745        2.1618522942
	 C          -5.7869646222       -0.7897666410        0.1488876715
	 H          -3.3460318325        2.0823695268       -1.3488695771
	 H          -3.5862746055        2.1172255254        1.9279760085
	 H          -5.7210623130       -2.0128918805       -1.4945712414
	 H          -7.4847890662        0.3468790615        0.0138667393
	 H          -5.9629019046       -1.9818739158        1.8073925840
	             0.0000308927        0.0003049271        0.0002423675
	             0.0001173003       -0.0000361361       -0.0015591897
	            -0.0014473469       -0.0016768270       -0.0011727054
	             0.0000707279       -0.0001183809        0.0001527578
	             0.0005033818        0.0017748480        0.0001044615
	            -0.0006489490        0.0005769055        0.0006232964
	             0.0002866595       -0.0011708500        0.0007748204
	             0.0001848170       -0.0000127241       -0.0005638882
	             0.0014065312       -0.0002717564        0.0007480252
	            -0.0003177375        0.0005364975        0.0011185799
	            -0.0000357485        0.0000623597       -0.0003139399
	            -0.0001319425        0.0002800390       -0.0001263224
	            -0.0000038049       -0.0002346573       -0.0000542221
	            -0.0000608166       -0.0000090254        0.0000234922
	            -0.0000269613       -0.0000211265       -0.0000063346
	             0.0000729967        0.0000159070        0.0000088012

	Previous optimization step data not found.  Starting new optimization.

	---Fragment 1 Intrafragment Coordinates---
	 - Coordinate -           - BOHR/RAD -       - ANG/DEG -
	 R(1,2)           =         2.074962	       1.098023
	 R(2,3)           =         2.841382	       1.503595
	 R(2,4)           =         2.234064	       1.182216
	 R(3,5)           =         2.892556	       1.530675
	 R(3,6)           =         2.044782	       1.082052
	 R(3,7)           =         2.056138	       1.088062
	 R(5,8)           =         2.883613	       1.525942
	 R(5,9)           =         2.052715	       1.086250
	 R(5,10)          =         2.054222	       1.087048
	 R(8,11)          =         2.881156	       1.524642
	 R(8,12)          =         2.052131	       1.085941
	 R(8,13)          =         2.052960	       1.086379
	 R(11,14)         =         2.049716	       1.084663
	 R(11,15)         =         2.047633	       1.083561
	 R(11,16)         =         2.050052	       1.084841
	 B(1,2,3)         =         2.009239	     115.120892
	 B(1,2,4)         =         2.094583	     120.010765
	 B(2,3,5)         =         1.953891	     111.949715
	 B(2,3,6)         =         1.893328	     108.479693
	 B(2,3,7)         =         1.874566	     107.404719
	 B(3,2,4)         =         2.179357	     124.867957
	 B(3,5,8)         =         1.968515	     112.787617
	 B(3,5,9)         =         1.905572	     109.181246
	 B(3,5,10)        =         1.911543	     109.523363
	 B(5,3,6)         =         1.943675	     111.364390
	 B(5,3,7)         =         1.908879	     109.370714
	 B(5,8,11)        =         1.971322	     112.948413
	 B(5,8,12)        =         1.905864	     109.197979
	 B(5,8,13)        =         1.906125	     109.212907
	 B(6,3,7)         =         1.887060	     108.120602
	 B(8,5,9)         =         1.909492	     109.405809
	 B(8,5,10)        =         1.907263	     109.278120
	 B(8,11,14)       =         1.939867	     111.146194
	 B(8,11,15)       =         1.939175	     111.106534
	 B(8,11,16)       =         1.940497	     111.182306
	 B(9,5,10)        =         1.858194	     106.466691
	 B(11,8,12)       =         1.910330	     109.453853
	 B(11,8,13)       =         1.910618	     109.470332
	 B(12,8,13)       =         1.856014	     106.341795
	 B(14,11,15)      =         1.880771	     107.760227
	 B(14,11,16)      =         1.880126	     107.723312
	 B(15,11,16)      =         1.880712	     107.756886
	 D(1,2,3,5)       =        -0.999286	     -57.254858
	 D(1,2,3,6)       =         3.132166	     179.459881
	 D(1,2,3,7)       =         1.096368	      62.817248
	 D(2,3,5,8)       =        -2.853484	    -163.492577
	 D(2,3,5,9)       =        -0.726783	     -41.641597
	 D(2,3,5,10)      =         1.301589	      74.575530
	 D(3,5,8,11)      =         3.132597	     179.484592
	 D(3,5,8,12)      =         1.002728	      57.452081
	 D(3,5,8,13)      =        -1.020164	     -58.451103
	 D(4,2,3,5)       =         2.138345	     122.518132
	 D(4,2,3,6)       =        -0.013389	      -0.767129
	 D(4,2,3,7)       =        -2.049187	    -117.409762
	 D(5,8,11,14)     =        -1.047878	     -60.038989
	 D(5,8,11,15)     =         3.141052	     179.969022
	 D(5,8,11,16)     =         1.046449	      59.957087
	 D(6,3,5,8)       =        -0.730437	     -41.850971
	*D(6,3,5,9)       =         1.396264	      80.000009
	 D(6,3,5,10)      =        -2.858550	    -163.782864
	 D(7,3,5,8)       =         1.354214	      77.590769
	 D(7,3,5,9)       =        -2.802270	    -160.558251
	 D(7,3,5,10)      =        -0.773899	     -44.341124
	 D(9,5,8,11)      =         1.008110	      57.760462
	 D(9,5,8,12)      =        -1.121759	     -64.272049
	 D(9,5,8,13)      =         3.138534	     179.824767
	 D(10,5,8,11)     =        -1.020063	     -58.445303
	 D(10,5,8,12)     =         3.133253	     179.522185
	 D(10,5,8,13)     =         1.110361	      63.619001
	 D(12,8,11,14)    =         1.079481	      61.849695
	 D(12,8,11,15)    =        -1.014774	     -58.142294
	 D(12,8,11,16)    =        -3.109378	    -178.154228
	 D(13,8,11,14)    =         3.107408	     178.041356
	 D(13,8,11,15)    =         1.013153	      58.049367
	 D(13,8,11,16)    =        -1.081451	     -61.962568

	Current energy   :      -270.1180538343

	Generating empirical Hessian (Schlegel '84) for each fragment.
	Taking RFO optimization step.
	Going to follow RFO solution 1.
	Using RFO vector 1.
	Norm of target step-size    0.22870
	Projected energy change by RFO approximation:         0.0001878582

	Back-transformation to cartesian coordinates...
	Could not converge backtransformation.
	Using first guess instead.

	Back-transformation to cartesian coordinates to adjust frozen coordinates...
	Successfully converged to displaced geometry.

	--- Internal Coordinate Step in ANG or DEG, aJ/ANG or AJ/DEG ---
	 ---------------------------------------------------------------------------
	   Coordinate                Previous        Force       Change         New 
	   ----------                --------       ------       ------       ------
	    1 R(1,2)          =      1.098023     0.000755     0.001961     1.099984
	    2 R(2,3)          =      1.503595    -0.002766     0.000150     1.503745
	    3 R(2,4)          =      1.182216     0.000755     0.000741     1.182957
	    4 R(3,5)          =      1.530675     0.021129     0.005338     1.536012
	    5 R(3,6)          =      1.082052    -0.000670     0.000309     1.082361
	    6 R(3,7)          =      1.088062    -0.002503     0.000265     1.088327
	    7 R(5,8)          =      1.525942    -0.000935     0.000100     1.526042
	    8 R(5,9)          =      1.086250     0.002630     0.000637     1.086887
	    9 R(5,10)         =      1.087048    -0.004977    -0.000283     1.086765
	   10 R(8,11)         =      1.524642    -0.000239     0.000947     1.525590
	   11 R(8,12)         =      1.085941    -0.002153     0.000098     1.086039
	   12 R(8,13)         =      1.086379     0.001526     0.000758     1.087138
	   13 R(11,14)        =      1.084663     0.000127     0.000520     1.085183
	   14 R(11,15)        =      1.083561    -0.000091     0.000111     1.083672
	   15 R(11,16)        =      1.084841     0.000069     0.000543     1.085383
	   16 B(1,2,3)        =    115.120892     0.000026    -0.034563   115.086330
	   17 B(1,2,4)        =    120.010765     0.000002     0.031181   120.041946
	   18 B(2,3,5)        =    111.949715    -0.000018     0.280578   112.230294
	   19 B(2,3,6)        =    108.479693     0.000032     0.849345   109.329039
	   20 B(2,3,7)        =    107.404719    -0.000003    -0.060303   107.344416
	   21 B(3,2,4)        =    124.867957    -0.000028    -0.075941   124.792016
	   22 B(3,5,8)        =    112.787617    -0.000028     0.131460   112.919078
	   23 B(3,5,9)        =    109.181246     0.000064     0.737602   109.918849
	   24 B(3,5,10)       =    109.523363    -0.000004    -0.463103   109.060260
	   25 B(5,3,6)        =    111.364390     0.000009     0.162091   111.526481
	   26 B(5,3,7)        =    109.370714     0.000021    -0.262771   109.107944
	   27 B(5,8,11)       =    112.948413    -0.000003     0.011054   112.959467
	   28 B(5,8,12)       =    109.197979    -0.000013    -0.119774   109.078205
	   29 B(5,8,13)       =    109.212907     0.000008     0.016848   109.229755
	   30 B(6,3,7)        =    108.120602    -0.000042    -1.036280   107.084322
	   31 B(8,5,9)        =    109.405809    -0.000002     0.763726   110.169534
	   32 B(8,5,10)       =    109.278120     0.000006    -0.246361   109.031759
	   33 B(8,11,14)      =    111.146194    -0.000008    -0.038198   111.107996
	   34 B(8,11,15)      =    111.106534    -0.000004    -0.005840   111.100694
	   35 B(8,11,16)      =    111.182306     0.000010     0.053342   111.235648
	   36 B(9,5,10)       =    106.466691    -0.000037    -1.006828   105.459863
	   37 B(11,8,12)      =    109.453853     0.000014     0.079447   109.533300
	   38 B(11,8,13)      =    109.470332    -0.000005    -0.019667   109.450665
	   39 B(12,8,13)      =    106.341795    -0.000000     0.033181   106.374976
	   40 B(14,11,15)     =    107.760227     0.000004    -0.015013   107.745214
	   41 B(14,11,16)     =    107.723312    -0.000000     0.030682   107.753994
	   42 B(15,11,16)     =    107.756886    -0.000002    -0.025576   107.731310
	   43 D(1,2,3,5)      =    -57.254858     0.000004     2.957114   -54.297744
	   44 D(1,2,3,6)      =    179.459881    -0.000000     1.948782   181.408663
	   45 D(1,2,3,7)      =     62.817248     0.000007     2.761133    65.578382
	   46 D(2,3,5,8)      =   -163.492577    -0.000014    -3.034797  -166.527373
	   47 D(2,3,5,9)      =    -41.641597    -0.000008    -1.423741   -43.065338
	   48 D(2,3,5,10)     =     74.575530    -0.000010    -2.479446    72.096084
	   49 D(3,5,8,11)     =    179.484592     0.000009     4.153938   183.638530
	   50 D(3,5,8,12)     =     57.452081     0.000008     4.130778    61.582859
	   51 D(3,5,8,13)     =    -58.451103     0.000008     4.148352   -54.302751
	   52 D(4,2,3,5)      =    122.518132     0.000000    -0.076149   122.441984
	   53 D(4,2,3,6)      =     -0.767129    -0.000005    -1.084480    -1.851609
	   54 D(4,2,3,7)      =   -117.409762     0.000003    -0.272129  -117.681891
	   55 D(5,8,11,14)    =    -60.038989     0.000001     0.169070   -59.869919
	   56 D(5,8,11,15)    =    179.969022     0.000001     0.217467   180.186489
	   57 D(5,8,11,16)    =     59.957087     0.000001     0.217999    60.175087
	   58 D(6,3,5,8)      =    -41.850971    -0.000006    -1.611055   -43.462026
	   59 *D(6,3,5,9)     =     80.000009    -0.000000    -0.000000    80.000009
	   60 D(6,3,5,10)     =   -163.782864    -0.000002    -1.055705  -164.838569
	   61 D(7,3,5,8)      =     77.590769    -0.000013    -2.961931    74.628838
	   62 D(7,3,5,9)      =   -160.558251    -0.000008    -1.350876  -161.909127
	   63 D(7,3,5,10)     =    -44.341124    -0.000010    -2.406581   -46.747705
	   64 D(9,5,8,11)     =     57.760462    -0.000005     2.554779    60.315242
	   65 D(9,5,8,12)     =    -64.272049    -0.000007     2.531620   -61.740429
	   66 D(9,5,8,13)     =    179.824767    -0.000006     2.549194   182.373960
	   67 D(10,5,8,11)    =    -58.445303     0.000004     3.476505   -54.968798
	   68 D(10,5,8,12)    =    179.522185     0.000003     3.453345   182.975530
	   69 D(10,5,8,13)    =     63.619001     0.000004     3.470919    67.089920
	   70 D(12,8,11,14)   =     61.849695    -0.000001     0.080208    61.929903
	   71 D(12,8,11,15)   =    -58.142294    -0.000001     0.128605   -58.013688
	   72 D(12,8,11,16)   =   -178.154228    -0.000001     0.129137  -178.025091
	   73 D(13,8,11,14)   =    178.041356    -0.000000     0.154105   178.195461
	   74 D(13,8,11,15)   =     58.049367     0.000000     0.202503    58.251870
	   75 D(13,8,11,16)   =    -61.962568     0.000000     0.203035   -61.759533
	 ---------------------------------------------------------------------------
	Successfully symmetrized geometry.

  ==> Convergence Check <==

  Measures of convergence in internal coordinates in au.
  Criteria marked as inactive (o), active & met (*), and active & unmet ( ).
  --------------------------------------------------------------------------------------------- ~
   Step     Total Energy     Delta E     MAX Force     RMS Force      MAX Disp      RMS Disp    ~
  --------------------------------------------------------------------------------------------- ~
    Convergence Criteria    1.00e-06 *    3.00e-04 *             o    1.20e-03 *             o  ~
  --------------------------------------------------------------------------------------------- ~
      1    -270.11805383   -2.70e+02      2.56e-03      4.23e-04 o    7.25e-02      2.64e-02 o  ~
  ---------------------------------------------------------------------------------------------

	Writing optimization data to binary file.
	Structure for next step:
	Cartesian Geometry (in Angstrom)
	    H     2.1247504506  -1.1233565081   0.6951459677
	    C     1.9909215462  -0.2257023434   0.0736391560
	    C     0.7230425019   0.5420630489   0.3271490537
	    O     2.7865918498   0.0414687326  -0.7599764408
	    C    -0.5261451530  -0.3440514719   0.2102513574
	    H     0.6750268669   1.3871708175  -0.3473827303
	    H     0.7826297736   0.9423357591   1.3374393577
	    C    -1.8208121887   0.4605303860   0.1375142514
	    H    -0.4394608728  -0.9937461224  -0.6567582641
	    H    -0.5704398427  -1.0099455910   1.0679698626
	    C    -3.0672043226  -0.4187858252   0.1104367401
	    H    -1.7996203659   1.0877921957  -0.7488116638
	    H    -1.8717703634   1.1346236865   0.9889069987
	    H    -3.0591310260  -1.0818100273  -0.7486072073
	    H    -3.9673988581   0.1820264217   0.0554929981
	    H    -3.1340445552  -1.0335812632   1.0024099615
			--------------------------
			 OPTKING Finished Execution 
			--------------------------

    Structure for next step:
    Molecular point group: c1
    Full point group: C1

    Geometry (in Angstrom), charge = 0, multiplicity = 1:

    H            2.115207837599    -1.127068057280     0.685635021893
    C            1.981378933158    -0.229413892581     0.064128210153
    C            0.713499888895     0.538351499720     0.317638107880
    O            2.777049236799     0.037757183483    -0.769487386683
    C           -0.535687765976    -0.347763021095     0.200740411521
    H            0.665484253897     1.383459268321    -0.356893676156
    H            0.773087160602     0.938624209949     1.327928411883
    C           -1.830354801712     0.456818836838     0.128003305506
    H           -0.449003485776    -0.997457671579    -0.666269209923
    H           -0.579982455663    -1.013657140126     1.058458916747
    C           -3.076746935637    -0.422497374352     0.100925794260
    H           -1.809162978931     1.084080646529    -0.758322609694
    H           -1.881312976431     1.130912137386     0.979396052889
    H           -3.068673638966    -1.085521576421    -0.758118153110
    H           -3.976941471132     0.178314872552     0.045982052210
    H           -3.143587168195    -1.037292812365     0.992899015635

gradient() will perform analytic gradient computation.

*** tstart() called on cx1-27-2-1
*** at Sat Sep 10 17:04:27 2016


         ---------------------------------------------------------
                                   SCF
            by Justin Turney, Rob Parrish, and Andy Simmonett
                              RHF Reference
                        4 Threads,   2000 MiB Core
         ---------------------------------------------------------

  ==> Geometry <==

    Molecular point group: c1
    Full point group: C1

    Geometry (in Angstrom), charge = 0, multiplicity = 1:

       Center              X                  Y                   Z               Mass       
    ------------   -----------------  -----------------  -----------------  -----------------
           H          2.115207837599    -1.127068057280     0.685635021893     1.007825032070
           C          1.981378933158    -0.229413892581     0.064128210153    12.000000000000
           C          0.713499888895     0.538351499720     0.317638107880    12.000000000000
           O          2.777049236799     0.037757183483    -0.769487386683    15.994914619560
           C         -0.535687765976    -0.347763021095     0.200740411521    12.000000000000
           H          0.665484253897     1.383459268321    -0.356893676156     1.007825032070
           H          0.773087160602     0.938624209949     1.327928411883     1.007825032070
           C         -1.830354801712     0.456818836838     0.128003305506    12.000000000000
           H         -0.449003485776    -0.997457671579    -0.666269209923     1.007825032070
           H         -0.579982455663    -1.013657140126     1.058458916747     1.007825032070
           C         -3.076746935637    -0.422497374352     0.100925794260    12.000000000000
           H         -1.809162978931     1.084080646529    -0.758322609694     1.007825032070
           H         -1.881312976431     1.130912137386     0.979396052889     1.007825032070
           H         -3.068673638966    -1.085521576421    -0.758118153110     1.007825032070
           H         -3.976941471132     0.178314872552     0.045982052210     1.007825032070
           H         -3.143587168195    -1.037292812365     0.992899015635     1.007825032070

  Running in c1 symmetry.

  Rotational constants: A =      0.47275  B =      0.04207  C =      0.04137 [cm^-1]
  Rotational constants: A =  14172.78029  B =   1261.12536  C =   1240.34440 [MHz]
  Nuclear repulsion =  229.274912580895574

  Charge       = 0
  Multiplicity = 1
  Electrons    = 48
  Nalpha       = 24
  Nbeta        = 24

  ==> Algorithm <==

  SCF Algorithm Type is DF.
  DIIS enabled.
  MOM disabled.
  Fractional occupation disabled.
  Guess Type is READ.
  Energy threshold   = 1.00e-08
  Density threshold  = 1.00e-08
  Integral threshold = 0.00e+00

  ==> Primary Basis <==

  Basis Set: CC-PVTZ
    Number of shells: 120
    Number of basis function: 320
    Number of Cartesian functions: 360
    Spherical Harmonics?: true
    Max angular momentum: 3

  ==> Pre-Iterations <==

   -------------------------------------------------------
    Irrep   Nso     Nmo     Nalpha   Nbeta   Ndocc  Nsocc
   -------------------------------------------------------
     A        320     320       0       0       0       0
   -------------------------------------------------------
    Total     320     320      24      24      24       0
   -------------------------------------------------------

  ==> Integral Setup <==

  ==> DFJK: Density-Fitted J/K Matrices <==

    J tasked:                  Yes
    K tasked:                  Yes
    wK tasked:                  No
    OpenMP threads:              4
    Integrals threads:           4
    Memory (MB):              1430
    Algorithm:                Core
    Integral Cache:           NONE
    Schwarz Cutoff:          1E-12
    Fitting Condition:       1E-12

   => Auxiliary Basis Set <=

  Basis Set: 
    Number of shells: 250
    Number of basis function: 774
    Number of Cartesian functions: 926
    Spherical Harmonics?: true
    Max angular momentum: 4

  Minimum eigenvalue in the overlap matrix is 3.9981771793E-04.
  Using Symmetric Orthogonalization.
  SCF Guess: Reading in previously saved MOs, projecting if necessary.

  Using orbitals from previous SCF, no projection.
  Recomputing DOCC and SOCC from number of alpha and beta electrons from previous calculation.
              A 
    DOCC [    24 ]

  ==> Iterations <==

                           Total Energy        Delta E     RMS |[F,P]|

   @DF-RHF iter   0:  -270.10917191174781   -2.70109e+02   3.06590e-04 
   @DF-RHF iter   1:  -270.11777339152718   -8.60148e-03   4.87918e-05 
   @DF-RHF iter   2:  -270.11800120572207   -2.27814e-04   1.78459e-05 DIIS
   @DF-RHF iter   3:  -270.11804208213869   -4.08764e-05   7.92697e-06 DIIS
   @DF-RHF iter   4:  -270.11804780502928   -5.72289e-06   3.47170e-06 DIIS
   @DF-RHF iter   5:  -270.11804985258379   -2.04755e-06   1.64893e-06 DIIS
   @DF-RHF iter   6:  -270.11805047227961   -6.19696e-07   5.79603e-07 DIIS
   @DF-RHF iter   7:  -270.11805056107823   -8.87986e-08   2.77369e-07 DIIS
   @DF-RHF iter   8:  -270.11805058345055   -2.23723e-08   1.20062e-07 DIIS
   @DF-RHF iter   9:  -270.11805058790435   -4.45380e-09   3.73673e-08 DIIS
   @DF-RHF iter  10:  -270.11805058820539   -3.01043e-10   8.56696e-09 DIIS

  ==> Post-Iterations <==

    Orbital Energies (a.u.)
    -----------------------

    Doubly Occupied:                                                      

       1A    -20.552008     2A    -11.321987     3A    -11.235102  
       4A    -11.234268     5A    -11.228015     6A    -11.216978  
       7A     -1.406263     8A     -1.096792     9A     -1.019597  
      10A     -0.906914    11A     -0.812709    12A     -0.793978  
      13A     -0.680084    14A     -0.647688    15A     -0.634328  
      16A     -0.604360    17A     -0.584810    18A     -0.548601  
      19A     -0.530023    20A     -0.512169    21A     -0.487964  
      22A     -0.483741    23A     -0.477503    24A     -0.411842  

    Virtual:                                                              

      25A      0.132134    26A      0.150962    27A      0.154219  
      28A      0.159523    29A      0.175081    30A      0.198441  
      31A      0.211312    32A      0.217859    33A      0.237859  
      34A      0.241136    35A      0.247186    36A      0.304641  
      37A      0.310963    38A      0.326240    39A      0.352532  
      40A      0.368124    41A      0.393919    42A      0.415402  
      43A      0.441162    44A      0.450594    45A      0.473486  
      46A      0.484550    47A      0.496957    48A      0.512232  
      49A      0.533401    50A      0.553759    51A      0.559853  
      52A      0.574750    53A      0.601102    54A      0.616629  
      55A      0.625417    56A      0.635505    57A      0.648445  
      58A      0.652481    59A      0.656374    60A      0.668651  
      61A      0.674200    62A      0.685402    63A      0.689492  
      64A      0.697745    65A      0.711053    66A      0.759746  
      67A      0.784920    68A      0.793041    69A      0.823821  
      70A      0.853123    71A      0.871703    72A      0.896713  
      73A      0.912347    74A      0.920325    75A      0.939951  
      76A      0.950575    77A      0.978092    78A      0.988606  
      79A      1.011103    80A      1.044281    81A      1.074261  
      82A      1.098578    83A      1.113893    84A      1.142758  
      85A      1.167963    86A      1.195197    87A      1.214190  
      88A      1.237960    89A      1.240351    90A      1.252754  
      91A      1.269926    92A      1.289515    93A      1.294024  
      94A      1.304769    95A      1.314100    96A      1.333790  
      97A      1.337498    98A      1.364052    99A      1.384231  
     100A      1.395285   101A      1.402677   102A      1.405410  
     103A      1.430901   104A      1.462279   105A      1.473904  
     106A      1.475654   107A      1.486212   108A      1.505775  
     109A      1.516738   110A      1.527212   111A      1.539968  
     112A      1.588799   113A      1.597366   114A      1.612522  
     115A      1.625200   116A      1.656179   117A      1.664598  
     118A      1.681194   119A      1.699904   120A      1.746871  
     121A      1.761216   122A      1.781331   123A      1.797403  
     124A      1.824983   125A      1.833948   126A      1.894148  
     127A      1.917139   128A      1.937303   129A      1.969903  
     130A      2.046057   131A      2.171224   132A      2.292301  
     133A      2.365623   134A      2.429929   135A      2.452024  
     136A      2.514496   137A      2.565810   138A      2.596850  
     139A      2.610340   140A      2.645528   141A      2.655624  
     142A      2.670060   143A      2.697596   144A      2.731493  
     145A      2.768478   146A      2.789644   147A      2.806471  
     148A      2.840421   149A      2.848433   150A      2.868102  
     151A      2.871423   152A      2.891976   153A      2.905685  
     154A      2.946177   155A      2.968995   156A      3.006837  
     157A      3.009893   158A      3.027381   159A      3.046320  
     160A      3.061268   161A      3.086531   162A      3.111613  
     163A      3.126344   164A      3.147845   165A      3.164042  
     166A      3.193708   167A      3.213890   168A      3.224615  
     169A      3.242661   170A      3.281951   171A      3.292476  
     172A      3.308949   173A      3.326009   174A      3.335879  
     175A      3.346892   176A      3.376688   177A      3.386001  
     178A      3.408841   179A      3.414273   180A      3.417019  
     181A      3.424913   182A      3.430819   183A      3.441678  
     184A      3.461233   185A      3.496302   186A      3.504173  
     187A      3.513394   188A      3.543680   189A      3.558503  
     190A      3.567816   191A      3.581494   192A      3.592007  
     193A      3.617141   194A      3.650565   195A      3.671842  
     196A      3.678564   197A      3.716076   198A      3.746754  
     199A      3.776964   200A      3.788422   201A      3.802821  
     202A      3.812864   203A      3.836537   204A      3.849615  
     205A      3.856110   206A      3.882804   207A      3.894375  
     208A      3.924706   209A      3.953602   210A      3.956628  
     211A      3.978412   212A      4.012439   213A      4.044421  
     214A      4.060919   215A      4.090997   216A      4.106571  
     217A      4.128452   218A      4.135252   219A      4.146245  
     220A      4.156395   221A      4.164130   222A      4.180116  
     223A      4.197849   224A      4.207251   225A      4.221208  
     226A      4.249006   227A      4.267069   228A      4.290799  
     229A      4.298471   230A      4.312777   231A      4.334364  
     232A      4.356064   233A      4.367625   234A      4.387897  
     235A      4.412580   236A      4.430084   237A      4.443469  
     238A      4.466276   239A      4.480024   240A      4.508195  
     241A      4.519317   242A      4.565573   243A      4.576864  
     244A      4.588925   245A      4.591893   246A      4.624266  
     247A      4.634871   248A      4.642173   249A      4.661758  
     250A      4.671754   251A      4.690811   252A      4.701240  
     253A      4.734163   254A      4.768550   255A      4.803311  
     256A      4.864998   257A      4.893513   258A      4.919792  
     259A      4.972882   260A      4.983940   261A      5.019510  
     262A      5.037489   263A      5.061039   264A      5.086006  
     265A      5.109281   266A      5.171492   267A      5.201789  
     268A      5.221447   269A      5.237628   270A      5.252792  
     271A      5.277802   272A      5.293013   273A      5.318789  
     274A      5.346528   275A      5.384239   276A      5.396139  
     277A      5.419689   278A      5.442895   279A      5.478466  
     280A      5.487434   281A      5.574135   282A      5.610777  
     283A      5.625118   284A      5.676476   285A      5.710389  
     286A      5.731501   287A      5.743085   288A      5.749948  
     289A      5.776078   290A      5.809425   291A      5.833915  
     292A      5.841961   293A      5.874336   294A      5.894469  
     295A      5.919429   296A      5.929232   297A      5.956169  
     298A      6.023947   299A      6.043989   300A      6.161432  
     301A      6.280512   302A      6.315226   303A      6.325692  
     304A      6.348959   305A      6.375261   306A      6.458726  
     307A      6.771362   308A      6.795629   309A      6.913424  
     310A      6.968658   311A      7.359852   312A      7.381682  
     313A      7.539154   314A      7.587538   315A     10.884803  
     316A     13.116486   317A     13.336196   318A     13.836617  
     319A     14.159950   320A     14.265861  

    Final Occupation by Irrep:
              A 
    DOCC [    24 ]

  Energy converged.

  @DF-RHF Final Energy:  -270.11805058820539

   => Energetics <=

    Nuclear Repulsion Energy =            229.2749125808955739
    One-Electron Energy =                -819.9304729976231556
    Two-Electron Energy =                 320.5375098285223885
    DFT Exchange-Correlation Energy =       0.0000000000000000
    Empirical Dispersion Energy =           0.0000000000000000
    PCM Polarization Energy =               0.0000000000000000
    EFP Energy =                            0.0000000000000000
    Total Energy =                       -270.1180505882051648


  Saving occupied orbitals to File 180.

*** tstop() called on cx1-27-2-1 at Sat Sep 10 17:04:33 2016
Module time:
	user time   =      20.33 seconds =       0.34 minutes
	system time =       0.49 seconds =       0.01 minutes
	total time  =          6 seconds =       0.10 minutes
Total time:
	user time   =      72.20 seconds =       1.20 minutes
	system time =       1.84 seconds =       0.03 minutes
	total time  =         21 seconds =       0.35 minutes


Properties will be evaluated at   0.000000,   0.000000,   0.000000 Bohr

Properties computed using the SCF density matrix

  Nuclear Dipole Moment: (a.u.)
     X:   -10.6315      Y:    -0.5113      Z:     2.3875

  Electronic Dipole Moment: (a.u.)
     X:     9.6038      Y:     0.3838      Z:    -1.6364

  Dipole Moment: (a.u.)
     X:    -1.0277      Y:    -0.1275      Z:     0.7511     Total:     1.2793

  Dipole Moment: (Debye)
     X:    -2.6123      Y:    -0.3240      Z:     1.9090     Total:     3.2516


*** tstart() called on cx1-27-2-1
*** at Sat Sep 10 17:04:33 2016


         ------------------------------------------------------------
                                   SCF GRAD                          
                          Rob Parrish, Justin Turney,                
                       Andy Simmonett, and Alex Sokolov              
         ------------------------------------------------------------

  ==> Geometry <==

    Molecular point group: c1
    Full point group: C1

    Geometry (in Angstrom), charge = 0, multiplicity = 1:

       Center              X                  Y                   Z               Mass       
    ------------   -----------------  -----------------  -----------------  -----------------
           H          2.115207837599    -1.127068057280     0.685635021893     1.007825032070
           C          1.981378933158    -0.229413892581     0.064128210153    12.000000000000
           C          0.713499888895     0.538351499720     0.317638107880    12.000000000000
           O          2.777049236799     0.037757183483    -0.769487386683    15.994914619560
           C         -0.535687765976    -0.347763021095     0.200740411521    12.000000000000
           H          0.665484253897     1.383459268321    -0.356893676156     1.007825032070
           H          0.773087160602     0.938624209949     1.327928411883     1.007825032070
           C         -1.830354801712     0.456818836838     0.128003305506    12.000000000000
           H         -0.449003485776    -0.997457671579    -0.666269209923     1.007825032070
           H         -0.579982455663    -1.013657140126     1.058458916747     1.007825032070
           C         -3.076746935637    -0.422497374352     0.100925794260    12.000000000000
           H         -1.809162978931     1.084080646529    -0.758322609694     1.007825032070
           H         -1.881312976431     1.130912137386     0.979396052889     1.007825032070
           H         -3.068673638966    -1.085521576421    -0.758118153110     1.007825032070
           H         -3.976941471132     0.178314872552     0.045982052210     1.007825032070
           H         -3.143587168195    -1.037292812365     0.992899015635     1.007825032070

  Nuclear repulsion =  229.274912580895574

  ==> Basis Set <==

  Basis Set: CC-PVTZ
    Number of shells: 120
    Number of basis function: 320
    Number of Cartesian functions: 360
    Spherical Harmonics?: true
    Max angular momentum: 3

  ==> DFJKGrad: Density-Fitted SCF Gradients <==

    Gradient:                    1
    J tasked:                  Yes
    K tasked:                  Yes
    wK tasked:                  No
    OpenMP threads:              4
    Integrals threads:           4
    Memory (MB):              1430
    Schwarz Cutoff:          0E+00
    Fitting Condition:       1E-12

   => Auxiliary Basis Set <=

  Basis Set: 
    Number of shells: 250
    Number of basis function: 774
    Number of Cartesian functions: 926
    Spherical Harmonics?: true
    Max angular momentum: 4


  -Total Gradient:
     Atom            X                  Y                   Z
    ------   -----------------  -----------------  -----------------
       1       -0.001099617973    -0.002337231764    -0.000826912791
       2        0.003578200995     0.004056014958     0.005331271681
       3        0.001020942236    -0.002947378406    -0.003262449583
       4       -0.000470793018    -0.000906146945    -0.002791821608
       5       -0.002309461788     0.002827620022    -0.002700989960
       6       -0.001489145227     0.001832027630     0.002107466432
       7        0.000705382610    -0.000087393526     0.000058879113
       8       -0.000288408894    -0.000026727112     0.000190229067
       9        0.001211930133    -0.002489686207     0.001710544432
      10       -0.000294393603     0.000066877217    -0.000113995928
      11       -0.000355619928     0.000095176649     0.000190939697
      12        0.000173065475    -0.000029972300    -0.000306950779
      13       -0.000115944088     0.000361547476     0.000309481609
      14        0.000012051344    -0.000125553508    -0.000294080847
      15       -0.000135684225    -0.000019770519     0.000049129074
      16       -0.000142504048    -0.000269403667     0.000349260392


*** tstop() called on cx1-27-2-1 at Sat Sep 10 17:04:39 2016
Module time:
	user time   =      24.65 seconds =       0.41 minutes
	system time =       0.54 seconds =       0.01 minutes
	total time  =          6 seconds =       0.10 minutes
Total time:
	user time   =      96.98 seconds =       1.62 minutes
	system time =       2.38 seconds =       0.04 minutes
	total time  =         27 seconds =       0.45 minutes

			-----------------------------------------
			 OPTKING 2.0: for geometry optimizations 
			  - R.A. King,  Bethel University        
			-----------------------------------------

	Previous internal coordinate definitions found.
	---Fragment 1 Geometry and Gradient---
	 H           3.9971635272       -2.1298499614        1.2956624185
	 C           3.7442635491       -0.4335294281        0.1211847546
	 C           1.3483193859        1.0173368977        0.6002490333
	 O           5.2478625151        0.0713507363       -1.4541204235
	 C          -1.0123031704       -0.6571768690        0.3793444016
	 H           1.2575829856        2.6143591331       -0.6744313065
	 H           1.4609230104        1.7737426985        2.5094210225
	 C          -3.4588693012        0.8632624940        0.2418911915
	 H          -0.8484936208       -1.8849218284       -1.2590663375
	 H          -1.0960080031       -1.9155343875        2.0001974756
	 C          -5.8142090885       -0.7984043294        0.1907221109
	 H          -3.4188225599        2.0486155279       -1.4330220527
	 H          -3.5551662957        2.1371142200        1.8507903156
	 H          -5.7989527689       -2.0513384908       -1.4326356857
	 H          -7.5153302270        0.3369662745        0.0868934857
	 H          -5.9405188227       -1.9601993350        1.8763072172
	            -0.0010996180       -0.0023372318       -0.0008269128
	             0.0035782010        0.0040560150        0.0053312717
	             0.0010209422       -0.0029473784       -0.0032624496
	            -0.0004707930       -0.0009061469       -0.0027918216
	            -0.0023094618        0.0028276200       -0.0027009900
	            -0.0014891452        0.0018320276        0.0021074664
	             0.0007053826       -0.0000873935        0.0000588791
	            -0.0002884089       -0.0000267271        0.0001902291
	             0.0012119301       -0.0024896862        0.0017105444
	            -0.0002943936        0.0000668772       -0.0001139959
	            -0.0003556199        0.0000951766        0.0001909397
	             0.0001730655       -0.0000299723       -0.0003069508
	            -0.0001159441        0.0003615475        0.0003094816
	             0.0000120513       -0.0001255535       -0.0002940808
	            -0.0001356842       -0.0000197705        0.0000491291
	            -0.0001425040       -0.0002694037        0.0003492604

	---Fragment 1 Intrafragment Coordinates---
	 - Coordinate -           - BOHR/RAD -       - ANG/DEG -
	 R(1,2)           =         2.078668	       1.099984
	 R(2,3)           =         2.841666	       1.503745
	 R(2,4)           =         2.235464	       1.182957
	 R(3,5)           =         2.902643	       1.536012
	 R(3,6)           =         2.045366	       1.082361
	 R(3,7)           =         2.056640	       1.088327
	 R(5,8)           =         2.883802	       1.526042
	 R(5,9)           =         2.053918	       1.086887
	 R(5,10)          =         2.053688	       1.086765
	 R(8,11)          =         2.882946	       1.525590
	 R(8,12)          =         2.052316	       1.086039
	 R(8,13)          =         2.054392	       1.087138
	 R(11,14)         =         2.050699	       1.085183
	 R(11,15)         =         2.047843	       1.083672
	 R(11,16)         =         2.051078	       1.085383
	 B(1,2,3)         =         2.008635	     115.086330
	 B(1,2,4)         =         2.095127	     120.041946
	 B(2,3,5)         =         1.958788	     112.230294
	 B(2,3,6)         =         1.908152	     109.329039
	 B(2,3,7)         =         1.873513	     107.344416
	 B(3,2,4)         =         2.178032	     124.792016
	 B(3,5,8)         =         1.970810	     112.919078
	 B(3,5,9)         =         1.918446	     109.918849
	 B(3,5,10)        =         1.903461	     109.060260
	 B(5,3,6)         =         1.946504	     111.526481
	 B(5,3,7)         =         1.904293	     109.107944
	 B(5,8,11)        =         1.971515	     112.959467
	 B(5,8,12)        =         1.903774	     109.078205
	 B(5,8,13)        =         1.906419	     109.229755
	 B(6,3,7)         =         1.868974	     107.084322
	 B(8,5,9)         =         1.922821	     110.169534
	 B(8,5,10)        =         1.902963	     109.031759
	 B(8,11,14)       =         1.939200	     111.107996
	 B(8,11,15)       =         1.939073	     111.100694
	 B(8,11,16)       =         1.941428	     111.235648
	 B(9,5,10)        =         1.840622	     105.459863
	 B(11,8,12)       =         1.911717	     109.533300
	 B(11,8,13)       =         1.910274	     109.450665
	 B(12,8,13)       =         1.856594	     106.374976
	 B(14,11,15)      =         1.880509	     107.745214
	 B(14,11,16)      =         1.880662	     107.753994
	 B(15,11,16)      =         1.880266	     107.731310
	 D(1,2,3,5)       =        -0.947674	     -54.297744
	 D(1,2,3,6)       =        -3.117007	    -178.591337
	 D(1,2,3,7)       =         1.144559	      65.578382
	 D(2,3,5,8)       =        -2.906451	    -166.527373
	 D(2,3,5,9)       =        -0.751632	     -43.065338
	 D(2,3,5,10)      =         1.258314	      72.096084
	 D(3,5,8,11)      =        -3.078088	    -176.361470
	 D(3,5,8,12)      =         1.074824	      61.582859
	 D(3,5,8,13)      =        -0.947762	     -54.302751
	 D(4,2,3,5)       =         2.137016	     122.441984
	 D(4,2,3,6)       =        -0.032317	      -1.851609
	 D(4,2,3,7)       =        -2.053936	    -117.681891
	 D(5,8,11,14)     =        -1.044927	     -59.869919
	 D(5,8,11,15)     =        -3.138338	    -179.813511
	 D(5,8,11,16)     =         1.050253	      60.175087
	 D(6,3,5,8)       =        -0.758555	     -43.462026
	*D(6,3,5,9)       =         1.396264	      80.000009
	 D(6,3,5,10)      =        -2.876976	    -164.838569
	 D(7,3,5,8)       =         1.302519	      74.628838
	 D(7,3,5,9)       =        -2.825847	    -161.909127
	 D(7,3,5,10)      =        -0.815901	     -46.747705
	 D(9,5,8,11)      =         1.052700	      60.315242
	 D(9,5,8,12)      =        -1.077574	     -61.740429
	 D(9,5,8,13)      =        -3.100159	    -177.626040
	 D(10,5,8,11)     =        -0.959387	     -54.968798
	 D(10,5,8,12)     =        -3.089660	    -177.024470
	 D(10,5,8,13)     =         1.170940	      67.089920
	 D(12,8,11,14)    =         1.080881	      61.929903
	 D(12,8,11,15)    =        -1.012530	     -58.013688
	 D(12,8,11,16)    =        -3.107124	    -178.025091
	 D(13,8,11,14)    =         3.110098	     178.195461
	 D(13,8,11,15)    =         1.016687	      58.251870
	 D(13,8,11,16)    =        -1.077907	     -61.759533

	Current energy   :      -270.1180505882

	Energy change for the previous step:
		Projected    :         0.0001878582
		Actual       :         0.0000032461

	Performing BFGS update.
	Previous computed or guess Hessian on step 1.
	Steps to be used in Hessian update: 1
	Taking RFO optimization step.
	Going to follow RFO solution 1.
	Using RFO vector 1.
	Norm of target step-size    0.34109
	Projected energy change by RFO approximation:        -0.0017841117

	Back-transformation to cartesian coordinates...
	Could not converge backtransformation.
	Using first guess instead.

	Back-transformation to cartesian coordinates to adjust frozen coordinates...
	Successfully converged to displaced geometry.

	--- Internal Coordinate Step in ANG or DEG, aJ/ANG or AJ/DEG ---
	 ---------------------------------------------------------------------------
	   Coordinate                Previous        Force       Change         New 
	   ----------                --------       ------       ------       ------
	    1 R(1,2)          =      1.099984    -0.010762     0.002763     1.102747
	    2 R(2,3)          =      1.503745    -0.008150     0.000005     1.503750
	    3 R(2,4)          =      1.182957    -0.011914     0.011941     1.194897
	    4 R(3,5)          =      1.536012    -0.013574     0.007454     1.543466
	    5 R(3,6)          =      1.082361    -0.001509     0.000677     1.083039
	    6 R(3,7)          =      1.088327    -0.000504     0.000711     1.089038
	    7 R(5,8)          =      1.526042    -0.005707     0.000512     1.526554
	    8 R(5,9)          =      1.086887    -0.001816     0.000962     1.087849
	    9 R(5,10)         =      1.086765     0.000980     0.000206     1.086971
	   10 R(8,11)         =      1.525590    -0.005659     0.001593     1.527182
	   11 R(8,12)         =      1.086039    -0.001949     0.000296     1.086335
	   12 R(8,13)         =      1.087138    -0.003889     0.001450     1.088588
	   13 R(11,14)        =      1.085183    -0.002551     0.001062     1.086245
	   14 R(11,15)        =      1.083672    -0.000818     0.000515     1.084187
	   15 R(11,16)        =      1.085383    -0.003694     0.000836     1.086220
	   16 B(1,2,3)        =    115.086330     0.000001     0.266110   115.352440
	   17 B(1,2,4)        =    120.041946    -0.000025    -0.572409   119.469538
	   18 B(2,3,5)        =    112.230294    -0.000060     0.340887   112.571181
	   19 B(2,3,6)        =    109.329039     0.000007     1.253095   110.582134
	   20 B(2,3,7)        =    107.344416     0.000065     0.086154   107.430570
	   21 B(3,2,4)        =    124.792016     0.000035    -0.058227   124.733789
	   22 B(3,5,8)        =    112.919078    -0.000034     0.055675   112.974753
	   23 B(3,5,9)        =    109.918849    -0.000010     1.039704   110.958553
	   24 B(3,5,10)       =    109.060260     0.000006    -0.656197   108.404063
	   25 B(5,3,6)        =    111.526481     0.000030     0.271635   111.798115
	   26 B(5,3,7)        =    109.107944    -0.000028    -0.502391   108.605553
	   27 B(5,8,11)       =    112.959467    -0.000013     0.041322   113.000789
	   28 B(5,8,12)       =    109.078205     0.000018    -0.164649   108.913556
	   29 B(5,8,13)       =    109.229755    -0.000006    -0.004493   109.225262
	   30 B(6,3,7)        =    107.084322    -0.000010    -1.597519   105.486803
	   31 B(8,5,9)        =    110.169534     0.000011     1.096366   111.265901
	   32 B(8,5,10)       =    109.031759     0.000031    -0.202677   108.829082
	   33 B(8,11,14)      =    111.107996     0.000008    -0.058529   111.049467
	   34 B(8,11,15)      =    111.100694    -0.000008     0.010697   111.111391
	   35 B(8,11,16)      =    111.235648    -0.000012     0.041368   111.277016
	   36 B(9,5,10)       =    105.459863    -0.000002    -1.506366   103.953498
	   37 B(11,8,12)      =    109.533300    -0.000009     0.071450   109.604750
	   38 B(11,8,13)      =    109.450665     0.000015    -0.019853   109.430812
	   39 B(12,8,13)      =    106.374976    -0.000004     0.078160   106.453136
	   40 B(14,11,15)     =    107.745214     0.000002    -0.025530   107.719684
	   41 B(14,11,16)     =    107.753994     0.000000     0.074869   107.828863
	   42 B(15,11,16)     =    107.731310     0.000010    -0.042597   107.688714
	   43 D(1,2,3,5)      =    -54.297744    -0.000024    -3.200085   -57.497829
	   44 D(1,2,3,6)      =   -178.591337    -0.000024    -4.755488  -183.346825
	   45 D(1,2,3,7)      =     65.578382    -0.000030    -3.561126    62.017256
	   46 D(2,3,5,8)      =   -166.527373     0.000007    -4.410845  -170.938219
	   47 D(2,3,5,9)      =    -43.065338     0.000003    -2.123201   -45.188539
	   48 D(2,3,5,10)     =     72.096084     0.000002    -3.732341    68.363743
	   49 D(3,5,8,11)     =   -176.361470    -0.000005     3.944570  -172.416900
	   50 D(3,5,8,12)     =     61.582859    -0.000004     3.943438    65.526297
	   51 D(3,5,8,13)     =    -54.302751    -0.000004     3.943909   -50.358842
	   52 D(4,2,3,5)      =    122.441984     0.000030     7.782560   130.224544
	   53 D(4,2,3,6)      =     -1.851609     0.000030     6.227157     4.375548
	   54 D(4,2,3,7)      =   -117.681891     0.000023     7.421519  -110.260371
	   55 D(5,8,11,14)    =    -59.869919    -0.000000     0.379429   -59.490490
	   56 D(5,8,11,15)    =   -179.813511    -0.000001     0.443566  -179.369945
	   57 D(5,8,11,16)    =     60.175087    -0.000001     0.462539    60.637625
	   58 D(6,3,5,8)      =    -43.462026     0.000004    -2.287644   -45.749671
	   59 *D(6,3,5,9)     =     80.000009    -0.000000    -0.000000    80.000009
	   60 D(6,3,5,10)     =   -164.838569    -0.000001    -1.609141  -166.447709
	   61 D(7,3,5,8)      =     74.628838     0.000001    -4.397523    70.231315
	   62 D(7,3,5,9)      =   -161.909127    -0.000003    -2.109879  -164.019005
	   63 D(7,3,5,10)     =    -46.747705    -0.000004    -3.719019   -50.466724
	   64 D(9,5,8,11)     =     60.315242     0.000001     1.683528    61.998769
	   65 D(9,5,8,12)     =    -61.740429     0.000003     1.682396   -60.058033
	   66 D(9,5,8,13)     =   -177.626040     0.000003     1.682867  -175.943173
	   67 D(10,5,8,11)    =    -54.968798    -0.000004     3.007623   -51.961175
	   68 D(10,5,8,12)    =   -177.024470    -0.000002     3.006492  -174.017977
	   69 D(10,5,8,13)    =     67.089920    -0.000002     3.006963    70.096883
	   70 D(12,8,11,14)   =     61.929903     0.000001     0.247854    62.177757
	   71 D(12,8,11,15)   =    -58.013688     0.000001     0.311991   -57.701697
	   72 D(12,8,11,16)   =   -178.025091     0.000001     0.330964  -177.694127
	   73 D(13,8,11,14)   =    178.195461     0.000001     0.371366   178.566827
	   74 D(13,8,11,15)   =     58.251870     0.000000     0.435503    58.687373
	   75 D(13,8,11,16)   =    -61.759533     0.000000     0.454476   -61.305057
	 ---------------------------------------------------------------------------
	Successfully symmetrized geometry.

  ==> Convergence Check <==

  Measures of convergence in internal coordinates in au.
  Criteria marked as inactive (o), active & met (*), and active & unmet ( ).
  ---------------------------------------------------------------------------------------------
   Step     Total Energy     Delta E     MAX Force     RMS Force      MAX Disp      RMS Disp   
  ---------------------------------------------------------------------------------------------
    Convergence Criteria    1.00e-06 *    3.00e-04 *             o    1.20e-03 *             o
  ---------------------------------------------------------------------------------------------
      2    -270.11805059    3.25e-06      1.73e-03      5.97e-04 o    1.36e-01      3.93e-02 o  ~
  ---------------------------------------------------------------------------------------------

	Writing optimization data to binary file.
	Structure for next step:
	Cartesian Geometry (in Angstrom)
	    H     2.1248512584  -1.1157797330   0.7475541718
	    C     1.9875252952  -0.2500019016   0.0785098293
	    C     0.7146927634   0.5246982597   0.2809943485
	    O     2.8810303151   0.0845501598  -0.6408670308
	    C    -0.5447303046  -0.3538612540   0.1251901910
	    H     0.6862769222   1.3878720553  -0.3725316546
	    H     0.7349221118   0.9266623970   1.2929325715
	    C    -1.8383289754   0.4565215235   0.1093985890
	    H    -0.4680156304  -0.9917582704  -0.7526585234
	    H    -0.5795626563  -1.0541247532   0.9558067714
	    C    -3.0903679672  -0.4173683778   0.1410248104
	    H    -1.8519239607   1.0808130614  -0.7795324730
	    H    -1.8476173701   1.1335397999   0.9617974521
	    H    -3.1203580305  -1.0871463124  -0.7136255218
	    H    -3.9896538756   0.1877792909   0.1177382269
	    H    -3.1244862628  -1.0247488361   1.0409125067
			--------------------------
			 OPTKING Finished Execution 
			--------------------------

    Structure for next step:
    Molecular point group: c1
    Full point group: C1

    Geometry (in Angstrom), charge = 0, multiplicity = 1:

    H            2.109721427015    -1.119392735898     0.734905127067
    C            1.972395463888    -0.253614904465     0.065860784560
    C            0.699562932051     0.521085256864     0.268345303777
    O            2.865900483799     0.080937156897    -0.653516075563
    C           -0.559860135895    -0.357474256853     0.112541146230
    H            0.671147090883     1.384259052470    -0.385180699410
    H            0.719792280414     0.923049394096     1.280283526738
    C           -1.853458806696     0.452908520663     0.096749544258
    H           -0.483145461715    -0.995371273307    -0.765307568168
    H           -0.594692487656    -1.057737756079     0.943157726624
    C           -3.105497798554    -0.420981380695     0.128375765635
    H           -1.867053792013     1.077200058498    -0.792181517765
    H           -1.862747201423     1.129926797007     0.949148407361
    H           -3.135487861890    -1.090759315252    -0.726274566603
    H           -4.004783706974     0.184166288060     0.105089182148
    H           -3.139616094144    -1.028361838970     1.028263461957

gradient() will perform analytic gradient computation.

*** tstart() called on cx1-27-2-1
*** at Sat Sep 10 17:04:40 2016


         ---------------------------------------------------------
                                   SCF
            by Justin Turney, Rob Parrish, and Andy Simmonett
                              RHF Reference
                        4 Threads,   2000 MiB Core
         ---------------------------------------------------------

  ==> Geometry <==

    Molecular point group: c1
    Full point group: C1

    Geometry (in Angstrom), charge = 0, multiplicity = 1:

       Center              X                  Y                   Z               Mass       
    ------------   -----------------  -----------------  -----------------  -----------------
           H          2.109721427015    -1.119392735898     0.734905127067     1.007825032070
           C          1.972395463888    -0.253614904465     0.065860784560    12.000000000000
           C          0.699562932051     0.521085256864     0.268345303777    12.000000000000
           O          2.865900483799     0.080937156897    -0.653516075563    15.994914619560
           C         -0.559860135895    -0.357474256853     0.112541146230    12.000000000000
           H          0.671147090883     1.384259052470    -0.385180699410     1.007825032070
           H          0.719792280414     0.923049394096     1.280283526738     1.007825032070
           C         -1.853458806696     0.452908520663     0.096749544258    12.000000000000
           H         -0.483145461715    -0.995371273307    -0.765307568168     1.007825032070
           H         -0.594692487656    -1.057737756079     0.943157726624     1.007825032070
           C         -3.105497798554    -0.420981380695     0.128375765635    12.000000000000
           H         -1.867053792013     1.077200058498    -0.792181517765     1.007825032070
           H         -1.862747201423     1.129926797007     0.949148407361     1.007825032070
           H         -3.135487861890    -1.090759315252    -0.726274566603     1.007825032070
           H         -4.004783706974     0.184166288060     0.105089182148     1.007825032070
           H         -3.139616094144    -1.028361838970     1.028263461957     1.007825032070

  Running in c1 symmetry.

  Rotational constants: A =      0.51014  B =      0.04119  C =      0.04034 [cm^-1]
  Rotational constants: A =  15293.49252  B =   1234.88282  C =   1209.35303 [MHz]
  Nuclear repulsion =  228.270557049420489

  Charge       = 0
  Multiplicity = 1
  Electrons    = 48
  Nalpha       = 24
  Nbeta        = 24

  ==> Algorithm <==

  SCF Algorithm Type is DF.
  DIIS enabled.
  MOM disabled.
  Fractional occupation disabled.
  Guess Type is READ.
  Energy threshold   = 1.00e-08
  Density threshold  = 1.00e-08
  Integral threshold = 0.00e+00

  ==> Primary Basis <==

  Basis Set: CC-PVTZ
    Number of shells: 120
    Number of basis function: 320
    Number of Cartesian functions: 360
    Spherical Harmonics?: true
    Max angular momentum: 3

  ==> Pre-Iterations <==

   -------------------------------------------------------
    Irrep   Nso     Nmo     Nalpha   Nbeta   Ndocc  Nsocc
   -------------------------------------------------------
     A        320     320       0       0       0       0
   -------------------------------------------------------
    Total     320     320      24      24      24       0
   -------------------------------------------------------

  ==> Integral Setup <==

  ==> DFJK: Density-Fitted J/K Matrices <==

    J tasked:                  Yes
    K tasked:                  Yes
    wK tasked:                  No
    OpenMP threads:              4
    Integrals threads:           4
    Memory (MB):              1430
    Algorithm:                Core
    Integral Cache:           NONE
    Schwarz Cutoff:          1E-12
    Fitting Condition:       1E-12

   => Auxiliary Basis Set <=

  Basis Set: 
    Number of shells: 250
    Number of basis function: 774
    Number of Cartesian functions: 926
    Spherical Harmonics?: true
    Max angular momentum: 4

  Minimum eigenvalue in the overlap matrix is 3.9373014628E-04.
  Using Symmetric Orthogonalization.
  SCF Guess: Reading in previously saved MOs, projecting if necessary.

  Using orbitals from previous SCF, no projection.
  Recomputing DOCC and SOCC from number of alpha and beta electrons from previous calculation.
              A 
    DOCC [    24 ]

  ==> Iterations <==

                           Total Energy        Delta E     RMS |[F,P]|

   @DF-RHF iter   0:  -270.05806451579815   -2.70058e+02   9.30929e-04 
   @DF-RHF iter   1:  -270.11435287332608   -5.62884e-02   1.55895e-04 
   @DF-RHF iter   2:  -270.11612711883561   -1.77425e-03   7.70918e-05 DIIS
   @DF-RHF iter   3:  -270.11644654798738   -3.19429e-04   3.33648e-05 DIIS
   @DF-RHF iter   4:  -270.11656262712427   -1.16079e-04   1.31180e-05 DIIS
   @DF-RHF iter   5:  -270.11658379053767   -2.11634e-05   5.60708e-06 DIIS
   @DF-RHF iter   6:  -270.11659077217962   -6.98164e-06   1.55929e-06 DIIS
   @DF-RHF iter   7:  -270.11659134770957   -5.75530e-07   6.54001e-07 DIIS
   @DF-RHF iter   8:  -270.11659145278668   -1.05077e-07   3.71288e-07 DIIS
   @DF-RHF iter   9:  -270.11659150020341   -4.74167e-08   1.19659e-07 DIIS
   @DF-RHF iter  10:  -270.11659150483399   -4.63058e-09   2.38257e-08 DIIS
[...]
	            -0.0000074728       -0.0000025458        0.0000036733
	             0.0000472090        0.0000011445       -0.0000264153
	             0.0019184894       -0.0025911355       -0.0023608201
	            -0.0000491416       -0.0000074342        0.0000336827
	            -0.0019431772        0.0030423462       -0.0015060399
	            -0.0012705019        0.0016728151        0.0022001974
	             0.0000078140        0.0000004668       -0.0000092238
	            -0.0000248977       -0.0000024592        0.0000214799
	             0.0013083440       -0.0021282072        0.0016504737
	            -0.0000032139        0.0000113501       -0.0000093873
	             0.0000207792        0.0000076254       -0.0000054485
	             0.0000060859       -0.0000076721        0.0000070791
	            -0.0000025651        0.0000055561       -0.0000008434
	            -0.0000033315       -0.0000013306        0.0000065636
	            -0.0000002562       -0.0000017747       -0.0000010823
	            -0.0000041639        0.0000012549       -0.0000038890

	---Fragment 1 Intrafragment Coordinates---
	 - Coordinate -           - BOHR/RAD -       - ANG/DEG -
	 R(1,2)           =         2.075021	       1.098054
	 R(2,3)           =         2.838741	       1.502197
	 R(2,4)           =         2.234121	       1.182246
	 R(3,5)           =         2.897245	       1.533156
	 R(3,6)           =         2.044960	       1.082146
	 R(3,7)           =         2.056749	       1.088385
	 R(5,8)           =         2.881530	       1.524840
	 R(5,9)           =         2.053926	       1.086891
	 R(5,10)          =         2.053823	       1.086836
	 R(8,11)          =         2.880933	       1.524524
	 R(8,12)          =         2.051670	       1.085697
	 R(8,13)          =         2.053292	       1.086555
	 R(11,14)         =         2.049818	       1.084717
	 R(11,15)         =         2.047596	       1.083541
	 R(11,16)         =         2.049936	       1.084780
	 B(1,2,3)         =         2.009161	     115.116470
	 B(1,2,4)         =         2.094514	     120.006834
	 B(2,3,5)         =         1.962900	     112.465861
	 B(2,3,6)         =         1.907248	     109.277253
	 B(2,3,7)         =         1.870827	     107.190464
	 B(3,2,4)         =         2.179509	     124.876667
	 B(3,5,8)         =         1.970328	     112.891495
	 B(3,5,9)         =         1.915543	     109.752546
	 B(3,5,10)        =         1.904603	     109.125688
	 B(5,3,6)         =         1.949128	     111.676804
	 B(5,3,7)         =         1.903335	     109.053047
	 B(5,8,11)        =         1.971792	     112.975336
	 B(5,8,12)        =         1.905112	     109.154862
	 B(5,8,13)        =         1.905599	     109.182796
	 B(6,3,7)         =         1.866234	     106.927328
	 B(8,5,9)         =         1.920554	     110.039662
	 B(8,5,10)        =         1.906787	     109.250849
	 B(8,11,14)       =         1.939578	     111.129619
	 B(8,11,15)       =         1.938926	     111.092293
	 B(8,11,16)       =         1.940883	     111.204400
	 B(9,5,10)        =         1.841490	     105.509620
	 B(11,8,12)       =         1.911048	     109.494998
	 B(11,8,13)       =         1.910927	     109.488038
	 B(12,8,13)       =         1.855745	     106.326380
	 B(14,11,15)      =         1.880727	     107.757743
	 B(14,11,16)      =         1.880265	     107.731276
	 B(15,11,16)      =         1.880778	     107.760635
	 D(1,2,3,5)       =        -0.907637	     -52.003790
	 D(1,2,3,6)       =        -3.082597	    -176.619810
	 D(1,2,3,7)       =         1.184104	      67.844183
	 D(2,3,5,8)       =        -2.904848	    -166.435504
	 D(2,3,5,9)       =        -0.755465	     -43.284934
	 D(2,3,5,10)      =         1.254560	      71.881019
	 D(3,5,8,11)      =        -3.109805	    -178.178725
	 D(3,5,8,12)      =         1.042815	      59.748889
	 D(3,5,8,13)      =        -0.979046	     -56.095181
	 D(4,2,3,5)       =         2.232868	     127.933922
	 D(4,2,3,6)       =         0.057908	       3.317902
	 D(4,2,3,7)       =        -1.958575	    -112.218106
	 D(5,8,11,14)     =        -1.042035	     -59.704199
	 D(5,8,11,15)     =        -3.135876	    -179.672443
	 D(5,8,11,16)     =         1.052532	      60.305639
	 D(6,3,5,8)       =        -0.753119	     -43.150560
	*D(6,3,5,9)       =         1.396264	      80.000009
	 D(6,3,5,10)      =        -2.876897	    -164.834037
	 D(7,3,5,8)       =         1.305552	      74.802607
	 D(7,3,5,9)       =        -2.828251	    -162.046824
	 D(7,3,5,10)      =        -0.818226	     -46.880870
	 D(9,5,8,11)      =         1.026782	      58.830285
	 D(9,5,8,12)      =        -1.103783	     -63.242101
	 D(9,5,8,13)      =        -3.125643	    -179.086171
	 D(10,5,8,11)     =        -0.987261	     -56.565916
	 D(10,5,8,12)     =        -3.117827	    -178.638302
	 D(10,5,8,13)     =         1.143498	      65.517628
	 D(12,8,11,14)    =         1.085196	      62.177127
	 D(12,8,11,15)    =        -1.008645	     -57.791118
	 D(12,8,11,16)    =        -3.103423	    -177.813036
	 D(13,8,11,14)    =         3.113383	     178.383678
	 D(13,8,11,15)    =         1.019542	      58.415433
	 D(13,8,11,16)    =        -1.075236	     -61.606485

	Current energy   :      -270.1182139912

	Energy change for the previous step:
		Projected    :        -0.0000007602
		Actual       :        -0.0000003834

	Performing BFGS update.
	Previous computed or guess Hessian on step 1.
	Steps to be used in Hessian update: 8 7
	Taking RFO optimization step.
	Going to follow RFO solution 1.
	Using RFO vector 1.

	Determining step-restricting scale parameter for RS-RFO.
	Maximum step size allowed    0.25000

	 Iter      |step|        alpha        rfo_root  
	------------------------------------------------
	    0   220.60540       1.00000           1
	    1   110.36512       1.99886           1
	    2    55.24501       3.99319           1
	    3    27.68502       7.96828           1
	    4    13.90517      15.86446           1
	    5     7.01553      31.44314           1
	    6     3.57128      61.76367           1
	    7     1.85029     119.19579           1
	    8     0.99207     222.25935           1
	    9     0.56746     388.42864           1
	   10     0.36383     605.54854           1
	   11     0.27710     794.75779           1
	   12     0.25241     872.35571           1
	   13     0.25002     880.67255           1
	   14     0.25000     880.75260           1
	------------------------------------------------
	Norm of target step-size    0.25000
	Projected energy change by RFO approximation:         0.0000005264

	Back-transformation to cartesian coordinates...
	Successfully converged to displaced geometry.

	Back-transformation to cartesian coordinates to adjust frozen coordinates...
	Successfully converged to displaced geometry.

	--- Internal Coordinate Step in ANG or DEG, aJ/ANG or AJ/DEG ---
	 ---------------------------------------------------------------------------
	   Coordinate                Previous        Force       Change         New 
	   ----------                --------       ------       ------       ------
	    1 R(1,2)          =      1.098054    -0.000028    -0.000017     1.098037
	    2 R(2,3)          =      1.502197     0.000043     0.000901     1.503098
	    3 R(2,4)          =      1.182246     0.000484    -0.000495     1.181751
	    4 R(3,5)          =      1.533156    -0.000095    -0.002040     1.531116
	    5 R(3,6)          =      1.082146     0.000025     0.000624     1.082771
	    6 R(3,7)          =      1.088385     0.000063     0.000964     1.089349
	    7 R(5,8)          =      1.524840    -0.000057     0.000959     1.525799
	    8 R(5,9)          =      1.086891    -0.000069     0.001139     1.088030
	    9 R(5,10)         =      1.086836     0.000117     0.000100     1.086937
	   10 R(8,11)         =      1.524524     0.000115     0.000343     1.524868
	   11 R(8,12)         =      1.085697     0.000083     0.000543     1.086240
	   12 R(8,13)         =      1.086555    -0.000023     0.000700     1.087256
	   13 R(11,14)        =      1.084717     0.000037     0.000452     1.085169
	   14 R(11,15)        =      1.083541     0.000006     0.000175     1.083716
	   15 R(11,16)        =      1.084780     0.000030     0.000584     1.085364
	   16 B(1,2,3)        =    115.116470     0.000000    -0.012128   115.104342
	   17 B(1,2,4)        =    120.006834    -0.000001     0.274981   120.281815
	   18 B(2,3,5)        =    112.465861     0.000002     1.821855   114.287716
	   19 B(2,3,6)        =    109.277253    -0.000001    -1.170966   108.106287
	   20 B(2,3,7)        =    107.190464     0.000000    -0.183693   107.006771
	   21 B(3,2,4)        =    124.876667     0.000001    -0.267070   124.609597
	   22 B(3,5,8)        =    112.891495     0.000000     0.899398   113.790893
	   23 B(3,5,9)        =    109.752546    -0.000000     0.326289   110.078835
	   24 B(3,5,10)       =    109.125688     0.000000    -0.787799   108.337889
	   25 B(5,3,6)        =    111.676804    -0.000000     0.422112   112.098916
	   26 B(5,3,7)        =    109.053047    -0.000001    -0.962533   108.090514
	   27 B(5,8,11)       =    112.975336    -0.000000     0.008190   112.983526
	   28 B(5,8,12)       =    109.154862     0.000001    -0.082163   109.072699
	   29 B(5,8,13)       =    109.182796    -0.000000     0.044829   109.227624
	   30 B(6,3,7)        =    106.927328     0.000000    -0.047011   106.880317
	   31 B(8,5,9)        =    110.039662    -0.000000    -1.934340   108.105322
	   32 B(8,5,10)       =    109.250849     0.000000     0.344313   109.595162
	   33 B(8,11,14)      =    111.129619    -0.000000     0.025574   111.155193
	   34 B(8,11,15)      =    111.092293    -0.000000     0.031878   111.124171
	   35 B(8,11,16)      =    111.204400    -0.000000     0.079178   111.283578
	   36 B(9,5,10)       =    105.509620     0.000000     1.189778   106.699398
	   37 B(11,8,12)      =    109.494998    -0.000000     0.062956   109.557955
	   38 B(11,8,13)      =    109.488038     0.000000    -0.021904   109.466134
	   39 B(12,8,13)      =    106.326380     0.000000    -0.013423   106.312957
	   40 B(14,11,15)     =    107.757743     0.000000    -0.052247   107.705496
	   41 B(14,11,16)     =    107.731276     0.000000    -0.042943   107.688332
	   42 B(15,11,16)     =    107.760635     0.000000    -0.049729   107.710905
	   43 D(1,2,3,5)      =    -52.003790     0.000000     5.369547   -46.634243
	   44 D(1,2,3,6)      =   -176.619810    -0.000000     4.409065  -172.210745
	   45 D(1,2,3,7)      =     67.844183    -0.000000     5.143347    72.987529
	   46 D(2,3,5,8)      =   -166.435504     0.000000     1.467802  -164.967701
	   47 D(2,3,5,9)      =    -43.284934     0.000000    -0.165820   -43.450754
	   48 D(2,3,5,10)     =     71.881019     0.000000     0.993638    72.874657
	   49 D(3,5,8,11)     =   -178.178725    -0.000000     0.782882  -177.395843
	   50 D(3,5,8,12)     =     59.748889    -0.000000     0.755821    60.504710
	   51 D(3,5,8,13)     =    -56.095181    -0.000000     0.792620   -55.302561
	   52 D(4,2,3,5)      =    127.933922     0.000000     6.182619   134.116541
	   53 D(4,2,3,6)      =      3.317902     0.000000     5.222138     8.540039
	   54 D(4,2,3,7)      =   -112.218106     0.000000     5.956419  -106.261687
	   55 D(5,8,11,14)    =    -59.704199    -0.000000    -0.152303   -59.856502
	   56 D(5,8,11,15)    =   -179.672443    -0.000000    -0.124706  -179.797149
	   57 D(5,8,11,16)    =     60.305639    -0.000000    -0.136308    60.169331
	   58 D(6,3,5,8)      =    -43.150560     0.000000     1.633622   -41.516938
	   59 *D(6,3,5,9)     =     80.000009     0.000000     0.000000    80.000009
	   60 D(6,3,5,10)     =   -164.834037    -0.000000     1.159458  -163.674579
	   61 D(7,3,5,8)      =     74.802607     0.000000     1.218227    76.020834
	   62 D(7,3,5,9)      =   -162.046824    -0.000000    -0.415395  -162.462219
	   63 D(7,3,5,10)     =    -46.880870    -0.000000     0.744063   -46.136807
	   64 D(9,5,8,11)     =     58.830285     0.000000     1.166324    59.996610
	   65 D(9,5,8,12)     =    -63.242101     0.000000     1.139263   -62.102837
	   66 D(9,5,8,13)     =   -179.086171     0.000000     1.176062  -177.910109
	   67 D(10,5,8,11)    =    -56.565916     0.000000     0.631054   -55.934862
	   68 D(10,5,8,12)    =   -178.638302     0.000000     0.603993  -178.034309
	   69 D(10,5,8,13)    =     65.517628    -0.000000     0.640792    66.158420
	   70 D(12,8,11,14)   =     62.177127     0.000000    -0.206757    61.970370
	   71 D(12,8,11,15)   =    -57.791118     0.000000    -0.179160   -57.970277
	   72 D(12,8,11,16)   =   -177.813036     0.000000    -0.190762  -178.003798
	   73 D(13,8,11,14)   =    178.383678     0.000000    -0.199580   178.184098
	   74 D(13,8,11,15)   =     58.415433     0.000000    -0.171983    58.243451
	   75 D(13,8,11,16)   =    -61.606485     0.000000    -0.183585   -61.790070
	 ---------------------------------------------------------------------------
	Successfully symmetrized geometry.

  ==> Convergence Check <==

  Measures of convergence in internal coordinates in au.
  Criteria marked as inactive (o), active & met (*), and active & unmet ( ).
  ---------------------------------------------------------------------------------------------
   Step     Total Energy     Delta E     MAX Force     RMS Force      MAX Disp      RMS Disp   
  ---------------------------------------------------------------------------------------------
    Convergence Criteria    1.00e-06 *    3.00e-04 *             o    1.20e-03 *             o
  ---------------------------------------------------------------------------------------------
      9    -270.11821399   -3.83e-07 *    5.88e-05 *    9.28e-06 o    1.08e-01      2.89e-02 o  ~
  ---------------------------------------------------------------------------------------------


  **** Optimization is complete! (in 9 steps) ****

  ==> Optimization Summary <==

  Measures of convergence in internal coordinates in au.
  --------------------------------------------------------------------------------------------------------------- ~
   Step         Total Energy             Delta E       MAX Force       RMS Force        MAX Disp        RMS Disp  ~
  --------------------------------------------------------------------------------------------------------------- ~
      1    -270.118053834335   -270.118053834335      0.00256456      0.00042307      0.07249989      0.02635827  ~
      2    -270.118050588205      0.000003246130      0.00173490      0.00059725      0.13583129      0.03926108  ~
      3    -270.116591504947      0.001459083258      0.02337674      0.00316763      0.08031386      0.02643078  ~
      4    -270.118108203801     -0.001516698853      0.00790006      0.00094984      0.08654477      0.02820161  ~
      5    -270.118181368377     -0.000073164576      0.00382911      0.00050970      0.02678708      0.00942417  ~
      6    -270.118209736711     -0.000028368334      0.00036210      0.00007300      0.00976735      0.00324901  ~
      7    -270.118212099451     -0.000002362740      0.00006592      0.00002348      0.01440781      0.00388048  ~
      8    -270.118213607763     -0.000001508312      0.00018213      0.00003442      0.00882843      0.00227497  ~
      9    -270.118213991200     -0.000000383437      0.00005877      0.00000928      0.10790706      0.02887841  ~
  --------------------------------------------------------------------------------------------------------------- ~

	Writing optimization data to binary file.
	Final energy is   -270.1182139911998
	Final (previous) structure:
	Cartesian Geometry (in Angstrom)
	    H     2.0782242580  -1.2040364562   0.6019303899
	    C     1.9670503539  -0.2851045097   0.0112300235
	    C     0.7233934520   0.5084214109   0.2944786533
	    O     2.7941758653   0.0135137449  -0.7789572376
	    C    -0.5476097472  -0.3449779089   0.2118438545
	    H     0.6799486353   1.3562069668  -0.3766496373
	    H     0.8188024433   0.9069928169   1.3027540483
	    C    -1.8218590775   0.4914117617   0.1685135655
	    H    -0.4983259700  -0.9940011793  -0.6585992950
	    H    -0.5854226304  -1.0114412524   1.0695208145
	    C    -3.0887572144  -0.3557769149   0.1309014304
	    H    -1.7932735439   1.1393258874  -0.7021919798
	    H    -1.8490220749   1.1458393151   1.0354562026
	    H    -3.1024203493  -1.0002539385  -0.7414939899
	    H    -3.9740254880   0.2679728588   0.0948767982
	    H    -3.1645750596  -0.9874620654   1.0095208982
	Saving final (previous) structure.
			--------------------------
			 OPTKING Finished Execution 
			--------------------------

    Final optimized geometry and variables:
    Molecular point group: c1
    Full point group: C1

    Geometry (in Angstrom), charge = 0, multiplicity = 1:

    H            2.078224257956    -1.204036456190     0.601930389897
    C            1.967050353860    -0.285104509701     0.011230023514
    C            0.723393452012     0.508421410934     0.294478653287
    O            2.794175865256     0.013513744900    -0.778957237606
    C           -0.547609747247    -0.344977908873     0.211843854519
    H            0.679948635340     1.356206966790    -0.376649637340
    H            0.818802443346     0.906992816897     1.302754048321
    C           -1.821859077504     0.491411761657     0.168513565463
    H           -0.498325969983    -0.994001179315    -0.658599295045
    H           -0.585422630394    -1.011441252448     1.069520814521
    C           -3.088757214416    -0.355776914882     0.130901430416
    H           -1.793273543892     1.139325887395    -0.702191979801
    H           -1.849022074902     1.145839315137     1.035456202625
    H           -3.102420349313    -1.000253938478    -0.741493989861
    H           -3.974025488021     0.267972858776     0.094876798167
    H           -3.164575059591    -0.987462065445     1.009520898187

	Cleaning optimization helper files.


Properties will be evaluated at   0.000000,   0.000000,   0.000000 Bohr

Properties computed using the  density matrix

  Nuclear Dipole Moment: (a.u.)
     X:   -10.6644      Y:    -0.3570      Z:     2.4666

  Electronic Dipole Moment: (a.u.)
     X:     9.6199      Y:     0.2167      Z:    -1.7368

  Dipole Moment: (a.u.)
     X:    -1.0446      Y:    -0.1403      Z:     0.7298     Total:     1.2820

  Dipole Moment: (Debye)
     X:    -2.6550      Y:    -0.3566      Z:     1.8550     Total:     3.2584

  Quadrupole Moment: (Debye Ang)
    XX:   -48.5241     YY:   -37.9645     ZZ:   -38.9405
    XY:    -1.3709     XZ:     5.3179     YZ:     0.0645

  Traceless Quadrupole Moment: (Debye Ang)
    XX:    -6.7144     YY:     3.8452     ZZ:     2.8692
    XY:    -1.3709     XZ:     5.3179     YZ:     0.0645

  Mulliken Charges: (a.u.)
   Center  Symbol    Alpha    Beta     Spin     Total
       1     H     0.46490  0.46490  0.00000  0.07020
       2     C     2.91033  2.91033  0.00000  0.17935
       3     C     3.07727  3.07727  0.00000 -0.15454
       4     O     4.16403  4.16403  0.00000 -0.32806
       5     C     3.10127  3.10127  0.00000 -0.20255
       6     H     0.44310  0.44310  0.00000  0.11381
       7     H     0.44892  0.44892  0.00000  0.10215
       8     C     3.08408  3.08408  0.00000 -0.16816
       9     H     0.44814  0.44814  0.00000  0.10373
      10     H     0.45175  0.45175  0.00000  0.09649
      11     C     3.14906  3.14906  0.00000 -0.29811
      12     H     0.44989  0.44989  0.00000  0.10021
      13     H     0.45283  0.45283  0.00000  0.09433
      14     H     0.45335  0.45335  0.00000  0.09330
      15     H     0.44654  0.44654  0.00000  0.10691
      16     H     0.45453  0.45453  0.00000  0.09093

   Total alpha = 24.00000, Total beta = 24.00000, Total charge =  0.00000


*** Psi4 exiting successfully. Buy a developer a beer!
