    -----------------------------------------------------------------------
          Psi4: An Open-Source Ab Initio Electronic Structure Package
                              Psi4 1.0.54 Driver

                          Git: Rev {master} 8d4cec3 dirty

    J. M. Turney, A. C. Simmonett, R. M. Parrish, E. G. Hohenstein,
    F. A. Evangelista, J. T. Fermann, B. J. Mintz, L. A. Burns, J. J. Wilke,
    M. L. Abrams, N. J. Russ, M. L. Leininger, C. L. Janssen, E. T. Seidl,
    W. D. Allen, H. F. Schaefer, R. A. King, E. F. Valeev, C. D. Sherrill,
    and T. D. Crawford, WIREs Comput. Mol. Sci. 2, 556-565 (2012)
    (doi: 10.1002/wcms.93)

                         Additional Contributions by
    A. E. DePrince, U. Bozkaya, A. Yu. Sokolov, D. G. A. Smith, R. Di Remigio,
    R. M. Richard, J. F. Gonthier, H. R. McAlexander, M. Saitow, and
    B. P. Pritchard
    -----------------------------------------------------------------------


    Psi4 started on: Sat Sep 10 16:08:22 2016

    Process ID:  36235
    PSI4DATADIR: /export131/home/mjharvey/miniconda3/share/psi4
    Memory level set to 256.000 MB

  ==> Input File <==

--------------------------------------------------------------------------
set {
	reference rhf
	basis cc-pvtz
}


set_num_threads( 4 )
memory 2 gb

molecule MOL {
0 1

H	 -2.266619	 1.169943	 0.000098
O	 -1.438073	 1.611259	 0.000041
C	 -0.408657	 0.734701	 0.000005
C	 0.759336	 1.143074	 -0.616787
C	 -0.505035	 -0.521039	 0.588173
H	 0.793948	 2.119397	 -1.058970
C	 1.849571	 0.299895	 -0.654245
C	 0.605848	 -1.347293	 0.535545
C	 -1.780336	 -0.965190	 1.260885
H	 2.752985	 0.623724	 -1.134826
C	 1.778710	 -0.953112	 -0.076851
H	 0.547385	 -2.320989	 0.985508
H	 -2.616879	 -0.982054	 0.567898
H	 -1.673619	 -1.963610	 1.659896
H	 -2.047742	 -0.313669	 2.088133
H	 2.622788	 -1.614370	 -0.102141

	symmetry c1
}
set optking {
	frozen_dihedral = ("
		4 3 2 1
	")
}

ee,wfn = optimize('scf', return_wfn=True)
oeprop( wfn, 'DIPOLE', 'QUADRUPOLE', 'MULLIKEN_CHARGES')
f=open( 'psi4out.xyz', 'w' )
f.write( "16  " )
f.write( str(ee) + "\n" )
f.write( MOL.save_string_xyz() )
f.close()
--------------------------------------------------------------------------

  Memory set to   2.000 GiB by Python script.
gradient() will perform analytic gradient computation.

*** tstart() called on cx1-27-1-3
*** at Sat Sep 10 16:08:22 2016


         ---------------------------------------------------------
                                   SCF
            by Justin Turney, Rob Parrish, and Andy Simmonett
                              RHF Reference
                        4 Threads,   2000 MiB Core
         ---------------------------------------------------------

  ==> Geometry <==

    Molecular point group: c1
    Full point group: C1

    Geometry (in Angstrom), charge = 0, multiplicity = 1:

       Center              X                  Y                   Z               Mass       
    ------------   -----------------  -----------------  -----------------  -----------------
           H         -2.291502641120     1.140726380552    -0.143070854978     1.007825032070
           O         -1.462956641120     1.582042380552    -0.143127854978    15.994914619560
           C         -0.433540641120     0.705484380552    -0.143163854978    12.000000000000
           C          0.734452358880     1.113857380552    -0.759955854978    12.000000000000
           C         -0.529918641120    -0.550255619448     0.445004145022    12.000000000000
           H          0.769064358880     2.090180380552    -1.202138854978     1.007825032070
           C          1.824687358880     0.270678380552    -0.797413854978    12.000000000000
           C          0.580964358880    -1.376509619448     0.392376145022    12.000000000000
           C         -1.805219641120    -0.994406619448     1.117716145022    12.000000000000
           H          2.728101358880     0.594507380552    -1.277994854978     1.007825032070
           C          1.753826358880    -0.982328619448    -0.220019854978    12.000000000000
           H          0.522501358880    -2.350205619448     0.842339145022     1.007825032070
           H         -2.641762641120    -1.011270619448     0.424729145022     1.007825032070
           H         -1.698502641120    -1.992826619448     1.516727145022     1.007825032070
           H         -2.072625641120    -0.342885619448     1.944964145022     1.007825032070
           H          2.597904358880    -1.643586619448    -0.245309854978     1.007825032070

  Running in c1 symmetry.

  Rotational constants: A =      0.10983  B =      0.07473  C =      0.04488 [cm^-1]
  Rotational constants: A =   3292.58060  B =   2240.36881  C =   1345.54488 [MHz]
  Nuclear repulsion =  350.958653511061470

  Charge       = 0
  Multiplicity = 1
  Electrons    = 58
  Nalpha       = 29
  Nbeta        = 29

  ==> Algorithm <==

  SCF Algorithm Type is DF.
  DIIS enabled.
  MOM disabled.
  Fractional occupation disabled.
  Guess Type is SAD.
  Energy threshold   = 1.00e-08
  Density threshold  = 1.00e-08
  Integral threshold = 0.00e+00

  ==> Primary Basis <==

  Basis Set: CC-PVTZ
    Number of shells: 128
    Number of basis function: 352
    Number of Cartesian functions: 400
    Spherical Harmonics?: true
    Max angular momentum: 3

  ==> Pre-Iterations <==

   -------------------------------------------------------
    Irrep   Nso     Nmo     Nalpha   Nbeta   Ndocc  Nsocc
   -------------------------------------------------------
     A        352     352       0       0       0       0
   -------------------------------------------------------
    Total     352     352      29      29      29       0
   -------------------------------------------------------

  ==> Integral Setup <==

  ==> DFJK: Density-Fitted J/K Matrices <==

    J tasked:                  Yes
    K tasked:                  Yes
    wK tasked:                  No
    OpenMP threads:              4
    Integrals threads:           4
    Memory (MB):              1430
    Algorithm:                Core
    Integral Cache:           NONE
    Schwarz Cutoff:          1E-12
    Fitting Condition:       1E-12

   => Auxiliary Basis Set <=

  Basis Set: 
    Number of shells: 280
    Number of basis function: 872
    Number of Cartesian functions: 1048
    Spherical Harmonics?: true
    Max angular momentum: 4

  Minimum eigenvalue in the overlap matrix is 3.2636016694E-05.
  Using Symmetric Orthogonalization.
  SCF Guess: Superposition of Atomic Densities via on-the-fly atomic UHF.

  ==> Iterations <==

                           Total Energy        Delta E     RMS |[F,P]|

   @DF-RHF iter   0:  -350.01679534052244   -3.50017e+02   1.65417e-02 
   @DF-RHF iter   1:  -344.56107778253875    5.45572e+00   1.21349e-03 
   @DF-RHF iter   2:  -344.69691709501819   -1.35839e-01   4.14374e-04 DIIS
   @DF-RHF iter   3:  -344.71331069030543   -1.63936e-02   2.19321e-04 DIIS
   @DF-RHF iter   4:  -344.71776548495609   -4.45479e-03   6.58230e-05 DIIS
   @DF-RHF iter   5:  -344.71833816362903   -5.72679e-04   1.79348e-05 DIIS
   @DF-RHF iter   6:  -344.71839730052363   -5.91369e-05   6.05697e-06 DIIS
   @DF-RHF iter   7:  -344.71840135638979   -4.05587e-06   1.88109e-06 DIIS
   @DF-RHF iter   8:  -344.71840192407888   -5.67689e-07   6.24944e-07 DIIS
   @DF-RHF iter   9:  -344.71840200459201   -8.05131e-08   3.25822e-07 DIIS
   @DF-RHF iter  10:  -344.71840203030899   -2.57170e-08   1.27132e-07 DIIS
   @DF-RHF iter  11:  -344.71840203656461   -6.25562e-09   5.26275e-08 DIIS
   @DF-RHF iter  12:  -344.71840203746888   -9.04265e-10   2.09566e-08 DIIS
   @DF-RHF iter  13:  -344.71840203757870   -1.09821e-10   5.71358e-09 DIIS

  ==> Post-Iterations <==

    Orbital Energies (a.u.)
    -----------------------

    Doubly Occupied:                                                      

       1A    -20.579113     2A    -11.289068     3A    -11.233602  
       4A    -11.230318     5A    -11.228030     6A    -11.226882  
       7A    -11.218052     8A    -11.217902     9A     -1.410480  
      10A     -1.153269    11A     -1.050978    12A     -1.007659  
      13A     -0.942290    14A     -0.828337    15A     -0.822914  
      16A     -0.734200    17A     -0.679279    18A     -0.648776  
      19A     -0.619112    20A     -0.600173    21A     -0.576804  
      22A     -0.572774    23A     -0.554445    24A     -0.547185  
      25A     -0.505189    26A     -0.486304    27A     -0.475799  
      28A     -0.333473    29A     -0.311776  

    Virtual:                                                              

      30A      0.131964    31A      0.133351    32A      0.146764  
      33A      0.154886    34A      0.172287    35A      0.191728  
      36A      0.204687    37A      0.213526    38A      0.229034  
      39A      0.241995    40A      0.295802    41A      0.346372  
      42A      0.354247    43A      0.374540    44A      0.380481  
      45A      0.388597    46A      0.416472    47A      0.430727  
      48A      0.444047    49A      0.453206    50A      0.487034  
      51A      0.490155    52A      0.493403    53A      0.507462  
      54A      0.516162    55A      0.544173    56A      0.552771  
      57A      0.567575    58A      0.573750    59A      0.587387  
      60A      0.592846    61A      0.600579    62A      0.608713  
      63A      0.615737    64A      0.625845    65A      0.633213  
      66A      0.640374    67A      0.643202    68A      0.655697  
      69A      0.660291    70A      0.686452    71A      0.697242  
      72A      0.714998    73A      0.733031    74A      0.741642  
      75A      0.749618    76A      0.769912    77A      0.779138  
      78A      0.827034    79A      0.839164    80A      0.847150  
      81A      0.867185    82A      0.872588    83A      0.911248  
      84A      0.912450    85A      0.932758    86A      0.951475  
      87A      0.976873    88A      0.998969    89A      1.012219  
      90A      1.022263    91A      1.032706    92A      1.042888  
      93A      1.063991    94A      1.080083    95A      1.085608  
      96A      1.111245    97A      1.121081    98A      1.124702  
      99A      1.166066   100A      1.181111   101A      1.194650  
     102A      1.221692   103A      1.229924   104A      1.254529  
     105A      1.270311   106A      1.276396   107A      1.280219  
     108A      1.282212   109A      1.333420   110A      1.355147  
     111A      1.382705   112A      1.389687   113A      1.399934  
     114A      1.428397   115A      1.443149   116A      1.470746  
     117A      1.475425   118A      1.488144   119A      1.513548  
     120A      1.526793   121A      1.542036   122A      1.544017  
     123A      1.554569   124A      1.581235   125A      1.582801  
     126A      1.595576   127A      1.605946   128A      1.612257  
     129A      1.637387   130A      1.648627   131A      1.666409  
     132A      1.693394   133A      1.706617   134A      1.750396  
     135A      1.759461   136A      1.790599   137A      1.800128  
     138A      1.812388   139A      1.885523   140A      1.914634  
     141A      2.018994   142A      2.052901   143A      2.138876  
     144A      2.155218   145A      2.209530   146A      2.238554  
     147A      2.254915   148A      2.293036   149A      2.310799  
     150A      2.347854   151A      2.400440   152A      2.427122  
     153A      2.439259   154A      2.470581   155A      2.495996  
     156A      2.509703   157A      2.532795   158A      2.548182  
     159A      2.577136   160A      2.624559   161A      2.637936  
     162A      2.687139   163A      2.711369   164A      2.723985  
     165A      2.731941   166A      2.758101   167A      2.771519  
     168A      2.805839   169A      2.813911   170A      2.838599  
     171A      2.876574   172A      2.881904   173A      2.902022  
     174A      2.925543   175A      2.951708   176A      2.955553  
     177A      2.986250   178A      3.003634   179A      3.019980  
     180A      3.032839   181A      3.052520   182A      3.074473  
     183A      3.079895   184A      3.107842   185A      3.124433  
     186A      3.134456   187A      3.139830   188A      3.162456  
     189A      3.168450   190A      3.189433   191A      3.221046  
     192A      3.228070   193A      3.243640   194A      3.257865  
     195A      3.286904   196A      3.295290   197A      3.307409  
     198A      3.310896   199A      3.330972   200A      3.343071  
     201A      3.365148   202A      3.368999   203A      3.382378  
     204A      3.394718   205A      3.415121   206A      3.416434  
     207A      3.428375   208A      3.438607   209A      3.449796  
     210A      3.461602   211A      3.475923   212A      3.490524  
     213A      3.505426   214A      3.512981   215A      3.522280  
     216A      3.566181   217A      3.591421   218A      3.591687  
     219A      3.619305   220A      3.639367   221A      3.655109  
     222A      3.661235   223A      3.682270   224A      3.688749  
     225A      3.708514   226A      3.724498   227A      3.731615  
     228A      3.743567   229A      3.757148   230A      3.778375  
     231A      3.787710   232A      3.797999   233A      3.840397  
     234A      3.863288   235A      3.866641   236A      3.875591  
     237A      3.904207   238A      3.958307   239A      3.978082  
     240A      3.985678   241A      4.013514   242A      4.047617  
     243A      4.070494   244A      4.075078   245A      4.095975  
     246A      4.113959   247A      4.127214   248A      4.139389  
     249A      4.147266   250A      4.156459   251A      4.162257  
     252A      4.175699   253A      4.186081   254A      4.190751  
     255A      4.203238   256A      4.226180   257A      4.233397  
     258A      4.256021   259A      4.288283   260A      4.300386  
     261A      4.329315   262A      4.357508   263A      4.377300  
     264A      4.384610   265A      4.402871   266A      4.412124  
     267A      4.426522   268A      4.449589   269A      4.472913  
     270A      4.485559   271A      4.506215   272A      4.512372  
     273A      4.523171   274A      4.556909   275A      4.574742  
     276A      4.602800   277A      4.615249   278A      4.616103  
     279A      4.657988   280A      4.661707   281A      4.676755  
     282A      4.694735   283A      4.710338   284A      4.725276  
     285A      4.740276   286A      4.782113   287A      4.803576  
     288A      4.859106   289A      4.877367   290A      4.906830  
     291A      4.918880   292A      4.987532   293A      4.996628  
     294A      5.054230   295A      5.068073   296A      5.081873  
     297A      5.128823   298A      5.134730   299A      5.191226  
     300A      5.213061   301A      5.222408   302A      5.236809  
     303A      5.259815   304A      5.305777   305A      5.348634  
     306A      5.368359   307A      5.389987   308A      5.427703  
     309A      5.457859   310A      5.478437   311A      5.487825  
     312A      5.534184   313A      5.588904   314A      5.620230  
     315A      5.648770   316A      5.675704   317A      5.703501  
     318A      5.736205   319A      5.781152   320A      5.809466  
     321A      5.829403   322A      5.882118   323A      5.998047  
     324A      6.023280   325A      6.111538   326A      6.173604  
     327A      6.215902   328A      6.258063   329A      6.327189  
     330A      6.362143   331A      6.483274   332A      6.501426  
     333A      6.618340   334A      6.709846   335A      7.013012  
     336A      7.100586   337A      7.136311   338A      7.228812  
     339A      7.281520   340A      7.340397   341A      7.423250  
     342A      7.597921   343A      7.786338   344A      8.066848  
     345A      9.065323   346A     12.981546   347A     13.405263  
     348A     13.671841   349A     13.782221   350A     14.089708  
     351A     14.874900   352A     16.507487  

    Final Occupation by Irrep:
              A 
    DOCC [    29 ]

  Energy converged.

  @DF-RHF Final Energy:  -344.71840203757870

   => Energetics <=

    Nuclear Repulsion Energy =            350.9586535110614705
    One-Electron Energy =               -1163.1857391732810356
    Two-Electron Energy =                 467.5086836246409803
    DFT Exchange-Correlation Energy =       0.0000000000000000
    Empirical Dispersion Energy =           0.0000000000000000
    PCM Polarization Energy =               0.0000000000000000
    EFP Energy =                            0.0000000000000000
    Total Energy =                       -344.7184020375785849


  Saving occupied orbitals to File 180.

*** tstop() called on cx1-27-1-3 at Sat Sep 10 16:08:32 2016
Module time:
	user time   =      32.43 seconds =       0.54 minutes
	system time =       0.69 seconds =       0.01 minutes
	total time  =         10 seconds =       0.17 minutes
Total time:
	user time   =      32.43 seconds =       0.54 minutes
	system time =       0.69 seconds =       0.01 minutes
	total time  =         10 seconds =       0.17 minutes


Properties will be evaluated at   0.000000,   0.000000,   0.000000 Bohr

Properties computed using the SCF density matrix

  Nuclear Dipole Moment: (a.u.)
     X:    -1.9634      Y:    -3.2879      Z:     1.7432

  Electronic Dipole Moment: (a.u.)
     X:     1.5771      Y:     2.7799      Z:    -1.6728

  Dipole Moment: (a.u.)
     X:    -0.3862      Y:    -0.5081      Z:     0.0704     Total:     0.6421

  Dipole Moment: (Debye)
     X:    -0.9817      Y:    -1.2914      Z:     0.1789     Total:     1.6320


*** tstart() called on cx1-27-1-3
*** at Sat Sep 10 16:08:32 2016


         ------------------------------------------------------------
                                   SCF GRAD                          
                          Rob Parrish, Justin Turney,                
                       Andy Simmonett, and Alex Sokolov              
         ------------------------------------------------------------

  ==> Geometry <==

    Molecular point group: c1
    Full point group: C1

    Geometry (in Angstrom), charge = 0, multiplicity = 1:

       Center              X                  Y                   Z               Mass       
    ------------   -----------------  -----------------  -----------------  -----------------
           H         -2.291502641120     1.140726380552    -0.143070854978     1.007825032070
           O         -1.462956641120     1.582042380552    -0.143127854978    15.994914619560
           C         -0.433540641120     0.705484380552    -0.143163854978    12.000000000000
           C          0.734452358880     1.113857380552    -0.759955854978    12.000000000000
           C         -0.529918641120    -0.550255619448     0.445004145022    12.000000000000
           H          0.769064358880     2.090180380552    -1.202138854978     1.007825032070
           C          1.824687358880     0.270678380552    -0.797413854978    12.000000000000
           C          0.580964358880    -1.376509619448     0.392376145022    12.000000000000
           C         -1.805219641120    -0.994406619448     1.117716145022    12.000000000000
           H          2.728101358880     0.594507380552    -1.277994854978     1.007825032070
           C          1.753826358880    -0.982328619448    -0.220019854978    12.000000000000
           H          0.522501358880    -2.350205619448     0.842339145022     1.007825032070
           H         -2.641762641120    -1.011270619448     0.424729145022     1.007825032070
           H         -1.698502641120    -1.992826619448     1.516727145022     1.007825032070
           H         -2.072625641120    -0.342885619448     1.944964145022     1.007825032070
           H          2.597904358880    -1.643586619448    -0.245309854978     1.007825032070

  Nuclear repulsion =  350.958653511061470

  ==> Basis Set <==

  Basis Set: CC-PVTZ
    Number of shells: 128
    Number of basis function: 352
    Number of Cartesian functions: 400
    Spherical Harmonics?: true
    Max angular momentum: 3

  ==> DFJKGrad: Density-Fitted SCF Gradients <==

    Gradient:                    1
    J tasked:                  Yes
    K tasked:                  Yes
    wK tasked:                  No
    OpenMP threads:              4
    Integrals threads:           4
    Memory (MB):              1430
    Schwarz Cutoff:          0E+00
    Fitting Condition:       1E-12

   => Auxiliary Basis Set <=

  Basis Set: 
    Number of shells: 280
    Number of basis function: 872
    Number of Cartesian functions: 1048
    Spherical Harmonics?: true
    Max angular momentum: 4


  -Total Gradient:
     Atom            X                  Y                   Z
    ------   -----------------  -----------------  -----------------
       1        0.000839167232     0.000673237885    -0.002010666347
       2        0.002336094574    -0.002692208802    -0.000011279263
       3       -0.002870708590     0.002357045965     0.003482975838
       4        0.000073057176     0.000510163332    -0.001379457346
       5        0.000587870302    -0.000444842743    -0.000454363957
       6        0.000191920753     0.000191964908     0.000305731529
       7       -0.001555919689    -0.000129262560    -0.000938025816
       8        0.000346081622     0.000542165061    -0.000019775418
       9       -0.000485866888    -0.000790755311    -0.001732776564
      10       -0.000049725750     0.000101300052     0.000085945779
      11        0.000290744215    -0.000806819420     0.000334717432
      12       -0.000016439117    -0.000012815226     0.000000609571
      13        0.000590079040     0.000314765002    -0.000187434362
      14        0.000013020440     0.000582513068     0.000722701354
      15       -0.000266296000    -0.000419660687     0.001764470973
      16       -0.000023079320     0.000023209476     0.000036626599


*** tstop() called on cx1-27-1-3 at Sat Sep 10 16:08:40 2016
Module time:
	user time   =      31.72 seconds =       0.53 minutes
	system time =       0.60 seconds =       0.01 minutes
	total time  =          8 seconds =       0.13 minutes
Total time:
	user time   =      64.24 seconds =       1.07 minutes
	system time =       1.29 seconds =       0.02 minutes
	total time  =         18 seconds =       0.30 minutes

			-----------------------------------------
			 OPTKING 2.0: for geometry optimizations 
			  - R.A. King,  Bethel University        
			-----------------------------------------

	Internal coordinates to be generated automatically.
	Detected frag 1 with atoms:  1 2 3 4 5 6 7 8 9 10 11 12 13 14 15 16
	---Fragment 1 Bond Connectivity---
	 1 : 2
	 2 : 1 3
	 3 : 2 4 5
	 4 : 3 6 7
	 5 : 3 8 9
	 6 : 4
	 7 : 4 10 11
	 8 : 5 11 12
	 9 : 5 13 14 15
	 10 : 7
	 11 : 7 8 16
	 12 : 8
	 13 : 9
	 14 : 9
	 15 : 9
	 16 : 11

	Assuming in current code that numbering for constraints corresponds to unified fragment.
	Frozen dihedral atom list: 
	     4     3     2     1
	---Fragment 1 Geometry and Gradient---
	 H          -4.3303124245        2.1556604518       -0.2703647335
	 O          -2.7645873960        2.9896268299       -0.2704724479
	 C          -0.8192730792        1.3331722703       -0.2705404780
	 C           1.3879138159        2.1048854003       -1.4361084390
	 C          -1.0014011044       -1.0398324238        0.8409359621
	 H           1.4533210168        3.9498684876       -2.2717132096
	 C           3.4481593864        0.5115080093       -1.5068938005
	 C           1.0978635312       -2.6012262000        0.7414834552
	 C          -3.4113707314       -1.8791561755        2.1121774084
	 H           5.1553644310        1.1234561332       -2.4150602751
	 C           3.3142515029       -1.8563320633       -0.4157772697
	 H           0.9873844723       -4.4412449767        1.5917902951
	 H          -4.9922078998       -1.9110245170        0.8026217647
	 H          -3.2097048277       -3.7658965411        2.8661989224
	 H          -3.9166948377       -0.6479599157        3.6754495724
	 H           4.9093277577       -3.1059285864       -0.4635684436
	             0.0008391672        0.0006732379       -0.0020106663
	             0.0023360946       -0.0026922088       -0.0000112793
	            -0.0028707086        0.0023570460        0.0034829758
	             0.0000730572        0.0005101633       -0.0013794573
	             0.0005878703       -0.0004448427       -0.0004543640
	             0.0001919208        0.0001919649        0.0003057315
	            -0.0015559197       -0.0001292626       -0.0009380258
	             0.0003460816        0.0005421651       -0.0000197754
	            -0.0004858669       -0.0007907553       -0.0017327766
	            -0.0000497257        0.0001013001        0.0000859458
	             0.0002907442       -0.0008068194        0.0003347174
	            -0.0000164391       -0.0000128152        0.0000006096
	             0.0005900790        0.0003147650       -0.0001874344
	             0.0000130204        0.0005825131        0.0007227014
	            -0.0002662960       -0.0004196607        0.0017644710
	            -0.0000230793        0.0000232095        0.0000366266

	Previous optimization step data not found.  Starting new optimization.

	---Fragment 1 Intrafragment Coordinates---
	 - Coordinate -           - BOHR/RAD -       - ANG/DEG -
	 R(1,2)           =         1.773977	       0.938748
	 R(2,3)           =         2.555013	       1.352054
	 R(3,4)           =         2.612616	       1.382537
	 R(3,5)           =         2.626728	       1.390005
	 R(4,6)           =         2.026444	       1.072348
	 R(4,7)           =         2.605470	       1.378755
	 R(5,8)           =         2.618158	       1.385470
	 R(5,9)           =         2.851048	       1.508709
	 R(7,10)          =         2.028249	       1.073303
	 R(7,11)          =         2.610581	       1.381460
	 R(8,11)          =         2.608926	       1.380584
	 R(8,12)          =         2.029999	       1.074229
	 R(9,13)          =         2.053046	       1.086425
	 R(9,14)          =         2.041815	       1.080482
	 R(9,15)          =         2.053051	       1.086428
	 R(11,16)         =         2.026831	       1.072553
	 B(1,2,3)         =         1.946806	     111.543764
	 B(2,3,4)         =         2.039504	     116.854976
	 B(2,3,5)         =         2.132809	     122.200981
	 B(3,4,6)         =         2.071633	     118.695810
	 B(3,4,7)         =         2.093831	     119.967691
	 B(3,5,8)         =         2.056802	     117.846073
	 B(3,5,9)         =         2.109749	     120.879707
	 B(4,3,5)         =         2.110872	     120.944044
	 B(4,7,10)        =         2.086592	     119.552940
	 B(4,7,11)        =         2.097598	     120.183514
	 B(5,8,11)        =         2.126740	     121.853210
	 B(5,8,12)        =         2.072603	     118.751431
	 B(5,9,13)        =         1.950913	     111.779094
	 B(5,9,14)        =         1.931792	     110.683522
	 B(5,9,15)        =         1.950909	     111.778872
	 B(6,4,7)         =         2.117721	     121.336499
	 B(7,11,8)        =         2.080528	     119.205469
	 B(7,11,16)       =         2.104793	     120.595754
	 B(8,5,9)         =         2.116634	     121.274220
	 B(8,11,16)       =         2.097864	     120.198777
	 B(10,7,11)       =         2.098995	     120.263546
	 B(11,8,12)       =         2.083842	     119.395360
	 B(13,9,14)       =         1.872621	     107.293263
	 B(13,9,15)       =         1.881237	     107.786938
	 B(14,9,15)       =         1.872622	     107.293319
	*D(1,2,3,4)       =         2.617994	     150.000013
	 D(1,2,3,5)       =        -0.523630	     -30.001800
	 D(2,3,4,6)       =        -0.000016	      -0.000936
	 D(2,3,4,7)       =         3.141577	     179.999131
	 D(2,3,5,8)       =        -3.141575	    -179.998975
	 D(2,3,5,9)       =         0.000021	       0.001185
	 D(3,4,7,10)      =         3.141593	     180.000000
	 D(3,4,7,11)      =        -0.000000	      -0.000000
	 D(3,5,8,11)      =        -0.000000	      -0.000000
	 D(3,5,8,12)      =         3.141593	     180.000000
	 D(3,5,9,13)      =         1.055255	      60.461672
	 D(3,5,9,14)      =         3.141593	     180.000000
	 D(3,5,9,15)      =        -1.055244	     -60.461010
	 D(4,3,5,8)       =        -0.000015	      -0.000861
	 D(4,3,5,9)       =         3.141593	     180.000000
	 D(4,7,11,8)      =        -0.000000	      -0.000000
	 D(4,7,11,16)     =         3.141593	     180.000000
	 D(5,3,4,6)       =        -3.141578	    -179.999147
	 D(5,3,4,7)       =         0.000016	       0.000920
	 D(5,8,11,7)      =         0.000000	       0.000000
	 D(5,8,11,16)     =         3.141593	     180.000000
	 D(6,4,7,10)      =        -0.000000	      -0.000000
	 D(6,4,7,11)      =         3.141593	     180.000000
	 D(7,11,8,12)     =         3.141593	     180.000000
	 D(8,5,9,13)      =        -2.086335	    -119.538162
	 D(8,5,9,14)      =         0.000000	       0.000000
	 D(8,5,9,15)      =         2.086352	     119.539156
	 D(8,11,7,10)     =         3.141593	     180.000000
	 D(9,5,8,11)      =         3.141593	     180.000000
	 D(9,5,8,12)      =         0.000000	       0.000000
	 D(10,7,11,16)    =        -0.000000	      -0.000000
	 D(12,8,11,16)    =        -0.000000	      -0.000000

	Current energy   :      -344.7184020376

	Generating empirical Hessian (Schlegel '84) for each fragment.
	Taking RFO optimization step.
	Going to follow RFO solution 1.
	Using RFO vector 1.
	Norm of target step-size    0.12237
	Projected energy change by RFO approximation:        -0.0003638904

	Back-transformation to cartesian coordinates...
	Successfully converged to displaced geometry.

	Back-transformation to cartesian coordinates to adjust frozen coordinates...
	Successfully converged to displaced geometry.

	--- Internal Coordinate Step in ANG or DEG, aJ/ANG or AJ/DEG ---
	 ---------------------------------------------------------------------------
	   Coordinate                Previous        Force       Change         New 
	   ----------                --------       ------       ------       ------
	    1 R(1,2)          =      0.938748     0.008711     0.000927     0.939676
	    2 R(2,3)          =      1.352054     0.030702     0.003611     1.355665
	    3 R(3,4)          =      1.382537    -0.001483    -0.000220     1.382317
	    4 R(3,5)          =      1.390005    -0.005784    -0.000829     1.389176
	    5 R(4,6)          =      1.072348    -0.000452    -0.000079     1.072269
	    6 R(4,7)          =      1.378755     0.005188     0.000694     1.379450
	    7 R(5,8)          =      1.385470    -0.000154    -0.000039     1.385430
	    8 R(5,9)          =      1.508709    -0.003880    -0.000791     1.507918
	    9 R(7,10)         =      1.073303     0.000410     0.000071     1.073375
	   10 R(7,11)         =      1.381460    -0.002856    -0.000332     1.381128
	   11 R(8,11)         =      1.380584     0.003473     0.000478     1.381063
	   12 R(8,12)         =      1.074229    -0.000105    -0.000018     1.074211
	   13 R(9,13)         =      1.086425     0.002799     0.000510     1.086935
	   14 R(9,14)         =      1.080482     0.002225     0.000397     1.080879
	   15 R(9,15)         =      1.086428    -0.009536    -0.001737     1.084690
	   16 R(11,16)        =      1.072553     0.000275     0.000048     1.072601
	   17 B(1,2,3)        =    111.543764    -0.000027    -0.135137   111.408626
	   18 B(2,3,4)        =    116.854976     0.000177     0.559030   117.414005
	   19 B(2,3,5)        =    122.200981    -0.000180    -0.584737   121.616244
	   20 B(3,4,6)        =    118.695810    -0.000015    -0.052211   118.643599
	   21 B(3,4,7)        =    119.967691     0.000019     0.056279   120.023970
	   22 B(3,5,8)        =    117.846073     0.000014     0.021734   117.867807
	   23 B(3,5,9)        =    120.879707    -0.000058    -0.168076   120.711631
	   24 B(4,3,5)        =    120.944044     0.000003     0.008175   120.952219
	   25 B(4,7,10)       =    119.552940     0.000028     0.095776   119.648716
	   26 B(4,7,11)       =    120.183514    -0.000043    -0.132039   120.051475
	   27 B(5,8,11)       =    121.853210    -0.000020    -0.065389   121.787821
	   28 B(5,8,12)       =    118.751431     0.000011     0.027842   118.779273
	   29 B(5,9,13)       =    111.779094     0.000062     0.163358   111.942451
	   30 B(5,9,14)       =    110.683522    -0.000010     0.064678   110.748200
	   31 B(5,9,15)       =    111.778872    -0.000082    -0.395341   111.383531
	   32 B(6,4,7)        =    121.336499    -0.000005    -0.007171   121.329328
	   33 B(7,11,8)       =    119.205469     0.000027     0.102854   119.308322
	   34 B(7,11,16)      =    120.595754    -0.000014    -0.060020   120.535734
	   35 B(8,5,9)        =    121.274220     0.000044     0.144565   121.418785
	   36 B(8,11,16)      =    120.198777    -0.000012    -0.042849   120.155928
	   37 B(10,7,11)      =    120.263546     0.000014     0.032107   120.295653
	   38 B(11,8,12)      =    119.395360     0.000009     0.035615   119.430975
	   39 B(13,9,14)      =    107.293263    -0.000037    -0.231108   107.062155
	   40 B(13,9,15)      =    107.786938    -0.000020    -0.218318   107.568620
	   41 B(14,9,15)      =    107.293319     0.000091     0.635359   107.928678
	   42 *D(1,2,3,4)     =    150.000013     0.000000    -0.000000   150.000013
	   43 D(1,2,3,5)      =    -30.001800    -0.000008    -1.507848   -31.509649
	   44 D(2,3,4,6)      =     -0.000936    -0.000010    -1.684344    -1.685280
	   45 D(2,3,4,7)      =    179.999131    -0.000014    -2.316673   177.682458
	   46 D(2,3,5,8)      =   -179.998975     0.000009     1.606998  -178.391977
	   47 D(2,3,5,9)      =      0.001185     0.000007     1.128740     1.129925
	   48 D(3,4,7,10)     =    180.000000     0.000002     0.323624   180.323624
	   49 D(3,4,7,11)     =      0.000000     0.000007     1.062922     1.062922
	   50 D(3,5,8,11)     =      0.000000     0.000003     0.491550     0.491550
	   51 D(3,5,8,12)     =    180.000000     0.000000    -0.017123   179.982877
	   52 D(3,5,9,13)     =     60.461672     0.000002     2.297684    62.759357
	   53 D(3,5,9,14)     =    180.000000    -0.000001     2.157524   182.157524
	   54 D(3,5,9,15)     =    -60.461010     0.000011     2.741252   -57.719758
	   55 D(4,3,5,8)      =     -0.000861     0.000000     0.046212     0.045351
	   56 D(4,3,5,9)      =    180.000000    -0.000002    -0.432747   179.567253
	   57 D(4,7,11,8)     =      0.000000    -0.000003    -0.534777    -0.534777
	   58 D(4,7,11,16)    =    180.000000    -0.000003    -0.490452   179.509548
	   59 D(5,3,4,6)      =   -179.999147    -0.000002    -0.187068  -180.186215
	   60 D(5,3,4,7)      =      0.000920    -0.000006    -0.819397    -0.818477
	   61 D(5,8,11,7)     =      0.000000    -0.000002    -0.251012    -0.251012
	   62 D(5,8,11,16)    =    180.000000    -0.000002    -0.295164   179.704836
	   63 D(6,4,7,10)     =      0.000000    -0.000002    -0.325978    -0.325978
	   64 D(6,4,7,11)     =    180.000000     0.000003     0.413320   180.413320
	   65 D(7,11,8,12)    =    180.000000     0.000001     0.260893   180.260893
	   66 D(8,5,9,13)     =   -119.538162    -0.000000     1.802250  -117.735912
	   67 D(8,5,9,14)     =      0.000000    -0.000004     1.662255     1.662255
	   68 D(8,5,9,15)     =    119.539156     0.000009     2.245817   121.784973
	   69 D(8,11,7,10)    =    180.000000     0.000002     0.209352   180.209352
	   70 D(9,5,8,11)     =    180.000000     0.000005     0.973216   180.973216
	   71 D(9,5,8,12)     =      0.000000     0.000002     0.464543     0.464543
	   72 D(10,7,11,16)   =      0.000000     0.000002     0.253676     0.253676
	   73 D(12,8,11,16)   =      0.000000     0.000001     0.216741     0.216741
	 ---------------------------------------------------------------------------
	Successfully symmetrized geometry.

  ==> Convergence Check <==

  Measures of convergence in internal coordinates in au.
  Criteria marked as inactive (o), active & met (*), and active & unmet ( ).
  --------------------------------------------------------------------------------------------- ~
   Step     Total Energy     Delta E     MAX Force     RMS Force      MAX Disp      RMS Disp    ~
  --------------------------------------------------------------------------------------------- ~
    Convergence Criteria    1.00e-06 *    3.00e-04 *             o    1.20e-03 *             o  ~
  --------------------------------------------------------------------------------------------- ~
      1    -344.71840204   -3.45e+02      3.73e-03      7.16e-04 o    4.78e-02      1.43e-02 o  ~
  ---------------------------------------------------------------------------------------------

	Writing optimization data to binary file.
	Structure for next step:
	Cartesian Geometry (in Angstrom)
	    H    -2.2895549726   1.1540442893  -0.0804121265
	    O    -1.4570830130   1.5894523779  -0.1004220138
	    C    -0.4348045546   0.7005260619  -0.1512659478
	    C     0.7215078862   1.0966195000  -0.7969068540
	    C    -0.5263742481  -0.5496421971   0.4474852912
	    H     0.7506509767   2.0685093323  -1.2489496161
	    C     1.8121088911   0.2529974765  -0.8390153721
	    C     0.5774921508  -1.3838641369   0.3769847004
	    C    -1.7870075404  -0.9724083058   1.1587450451
	    H     2.7087340573   0.5687703543  -1.3374975133
	    C     1.7426972887  -0.9968026340  -0.2553240316
	    H     0.5227867884  -2.3538618660   0.8352867161
	    H    -2.6369397769  -1.0233528293   0.4831360474
	    H    -1.6695157255  -1.9542469359   1.5951947798
	    H    -2.0425781329  -0.2814939125   1.9549071203
	    H     2.5833526670  -1.6620454860  -0.2902859048
			--------------------------
			 OPTKING Finished Execution 
			--------------------------

    Structure for next step:
    Molecular point group: c1
    Full point group: C1

    Geometry (in Angstrom), charge = 0, multiplicity = 1:

    H           -2.288372585473     1.156993391840    -0.076789320117
    O           -1.455900625911     1.592401480418    -0.096799207416
    C           -0.433622167428     0.703475164396    -0.147643141433
    C            0.722690273285     1.099568602470    -0.793284047592
    C           -0.525191861005    -0.546693094611     0.451108097612
    H            0.751833363783     2.071458434811    -1.245326809784
    C            1.813291278264     0.255946579003    -0.835392565775
    C            0.578674537911    -1.380915034418     0.380607506723
    C           -1.785825153244    -0.969459203300     1.162367851444
    H            2.709916444379     0.571719456809    -1.333874706905
    C            1.743879675808    -0.993853531504    -0.251701225187
    H            0.523969175539    -2.350912763496     0.838909522452
    H           -2.635757389817    -1.020403726801     0.486758853750
    H           -1.668333338371    -1.951297833394     1.598817586165
    H           -2.041395745760    -0.278544810013     1.958529926663
    H            2.584535054121    -1.659096383460    -0.286663098397

gradient() will perform analytic gradient computation.

*** tstart() called on cx1-27-1-3
*** at Sat Sep 10 16:08:41 2016


         ---------------------------------------------------------
                                   SCF
            by Justin Turney, Rob Parrish, and Andy Simmonett
                              RHF Reference
                        4 Threads,   2000 MiB Core
         ---------------------------------------------------------

  ==> Geometry <==

    Molecular point group: c1
    Full point group: C1

    Geometry (in Angstrom), charge = 0, multiplicity = 1:

       Center              X                  Y                   Z               Mass       
    ------------   -----------------  -----------------  -----------------  -----------------
           H         -2.288372585473     1.156993391840    -0.076789320117     1.007825032070
           O         -1.455900625911     1.592401480418    -0.096799207416    15.994914619560
           C         -0.433622167428     0.703475164396    -0.147643141433    12.000000000000
           C          0.722690273285     1.099568602470    -0.793284047592    12.000000000000
           C         -0.525191861005    -0.546693094611     0.451108097612    12.000000000000
           H          0.751833363783     2.071458434811    -1.245326809784     1.007825032070
           C          1.813291278264     0.255946579003    -0.835392565775    12.000000000000
           C          0.578674537911    -1.380915034418     0.380607506723    12.000000000000
           C         -1.785825153244    -0.969459203300     1.162367851444    12.000000000000
           H          2.709916444379     0.571719456809    -1.333874706905     1.007825032070
           C          1.743879675808    -0.993853531504    -0.251701225187    12.000000000000
           H          0.523969175539    -2.350912763496     0.838909522452     1.007825032070
           H         -2.635757389817    -1.020403726801     0.486758853750     1.007825032070
           H         -1.668333338371    -1.951297833394     1.598817586165     1.007825032070
           H         -2.041395745760    -0.278544810013     1.958529926663     1.007825032070
           H          2.584535054121    -1.659096383460    -0.286663098397     1.007825032070

  Running in c1 symmetry.

  Rotational constants: A =      0.11036  B =      0.07451  C =      0.04489 [cm^-1]
  Rotational constants: A =   3308.61634  B =   2233.67145  C =   1345.73910 [MHz]
  Nuclear repulsion =  350.959676813364524

  Charge       = 0
  Multiplicity = 1
  Electrons    = 58
  Nalpha       = 29
  Nbeta        = 29

  ==> Algorithm <==

  SCF Algorithm Type is DF.
  DIIS enabled.
  MOM disabled.
  Fractional occupation disabled.
  Guess Type is READ.
  Energy threshold   = 1.00e-08
  Density threshold  = 1.00e-08
  Integral threshold = 0.00e+00

  ==> Primary Basis <==

  Basis Set: CC-PVTZ
    Number of shells: 128
    Number of basis function: 352
    Number of Cartesian functions: 400
    Spherical Harmonics?: true
    Max angular momentum: 3

  ==> Pre-Iterations <==

   -------------------------------------------------------
    Irrep   Nso     Nmo     Nalpha   Nbeta   Ndocc  Nsocc
   -------------------------------------------------------
     A        352     352       0       0       0       0
   -------------------------------------------------------
    Total     352     352      29      29      29       0
   -------------------------------------------------------

  ==> Integral Setup <==

  ==> DFJK: Density-Fitted J/K Matrices <==

    J tasked:                  Yes
    K tasked:                  Yes
    wK tasked:                  No
    OpenMP threads:              4
    Integrals threads:           4
    Memory (MB):              1430
    Algorithm:                Core
    Integral Cache:           NONE
    Schwarz Cutoff:          1E-12
    Fitting Condition:       1E-12

   => Auxiliary Basis Set <=

  Basis Set: 
    Number of shells: 280
    Number of basis function: 872
    Number of Cartesian functions: 1048
    Spherical Harmonics?: true
    Max angular momentum: 4

  Minimum eigenvalue in the overlap matrix is 3.2719309288E-05.
  Using Symmetric Orthogonalization.
  SCF Guess: Reading in previously saved MOs, projecting if necessary.

  Using orbitals from previous SCF, no projection.
  Recomputing DOCC and SOCC from number of alpha and beta electrons from previous calculation.
              A 
    DOCC [    29 ]

  ==> Iterations <==

                           Total Energy        Delta E     RMS |[F,P]|

   @DF-RHF iter   0:  -344.71310691119669   -3.44713e+02   2.84059e-04 
   @DF-RHF iter   1:  -344.71827072396599   -5.16381e-03   4.10505e-05 
   @DF-RHF iter   2:  -344.71847145600594   -2.00732e-04   1.60649e-05 DIIS
   @DF-RHF iter   3:  -344.71850268983047   -3.12338e-05   8.54995e-06 DIIS
   @DF-RHF iter   4:  -344.71850881895278   -6.12912e-06   1.47027e-06 DIIS
   @DF-RHF iter   5:  -344.71850914712246   -3.28170e-07   5.72828e-07 DIIS
   @DF-RHF iter   6:  -344.71850919524917   -4.81267e-08   2.35536e-07 DIIS
   @DF-RHF iter   7:  -344.71850920224398   -6.99481e-09   6.92566e-08 DIIS
   @DF-RHF iter   8:  -344.71850920324306   -9.99080e-10   2.50290e-08 DIIS
   @DF-RHF iter   9:  -344.71850920338335   -1.40290e-10   1.22137e-08 DIIS
   @DF-RHF iter  10:  -344.71850920343337   -5.00222e-11   5.27746e-09 DIIS

  ==> Post-Iterations <==

    Orbital Energies (a.u.)
    -----------------------

    Doubly Occupied:                                                      

       1A    -20.578939     2A    -11.288942     3A    -11.233545  
       4A    -11.230077     5A    -11.228112     6A    -11.227179  
       7A    -11.218665     8A    -11.218305     9A     -1.408660  
      10A     -1.153479    11A     -1.051235    12A     -1.007697  
      13A     -0.942536    14A     -0.828482    15A     -0.821836  
      16A     -0.733879    17A     -0.679354    18A     -0.648925  
      19A     -0.619132    20A     -0.599920    21A     -0.576959  
      22A     -0.572600    23A     -0.554711    24A     -0.546271  
      25A     -0.505084    26A     -0.486790    27A     -0.475803  
      28A     -0.333523    29A     -0.312429  

    Virtual:                                                              

      30A      0.131963    31A      0.133294    32A      0.146487  
      33A      0.154771    34A      0.172275    35A      0.191946  
      36A      0.204911    37A      0.213828    38A      0.227523  
      39A      0.241640    40A      0.295374    41A      0.345189  
      42A      0.354461    43A      0.374142    44A      0.379828  
      45A      0.388693    46A      0.418894    47A      0.431328  
      48A      0.443859    49A      0.452960    50A      0.486832  
      51A      0.491684    52A      0.493414    53A      0.507641  
      54A      0.515483    55A      0.544434    56A      0.551943  
      57A      0.567856    58A      0.574098    59A      0.587604  
      60A      0.591880    61A      0.599833    62A      0.607593  
      63A      0.615683    64A      0.626296    65A      0.632698  
      66A      0.638882    67A      0.643783    68A      0.653990  
      69A      0.659893    70A      0.687066    71A      0.697417  
      72A      0.715973    73A      0.732930    74A      0.742841  
      75A      0.749717    76A      0.768632    77A      0.779673  
      78A      0.827814    79A      0.838077    80A      0.848995  
      81A      0.866818    82A      0.871634    83A      0.908737  
      84A      0.911879    85A      0.933271    86A      0.951900  
      87A      0.977206    88A      0.997872    89A      1.013948  
      90A      1.023457    91A      1.031796    92A      1.041551  
      93A      1.067920    94A      1.078788    95A      1.089939  
      96A      1.110463    97A      1.121325    98A      1.122086  
      99A      1.165462   100A      1.180947   101A      1.198962  
     102A      1.222512   103A      1.229919   104A      1.255058  
     105A      1.269931   106A      1.276828   107A      1.279362  
     108A      1.282442   109A      1.334968   110A      1.356388  
     111A      1.381638   112A      1.389852   113A      1.400037  
     114A      1.431124   115A      1.441084   116A      1.471012  
     117A      1.476696   118A      1.488715   119A      1.516608  
     120A      1.527347   121A      1.540891   122A      1.542392  
     123A      1.554269   124A      1.580727   125A      1.584419  
     126A      1.593329   127A      1.605502   128A      1.612151  
     129A      1.635761   130A      1.651717   131A      1.665219  
     132A      1.694404   133A      1.706381   134A      1.747272  
     135A      1.758744   136A      1.792781   137A      1.799043  
     138A      1.814915   139A      1.883842   140A      1.913944  
     141A      2.023152   142A      2.049328   143A      2.138008  
     144A      2.151317   145A      2.209854   146A      2.242471  
     147A      2.252062   148A      2.290663   149A      2.313572  
     150A      2.347865   151A      2.400755   152A      2.422137  
     153A      2.437722   154A      2.467153   155A      2.497173  
     156A      2.508349   157A      2.534232   158A      2.551612  
     159A      2.577538   160A      2.625907   161A      2.638077  
     162A      2.687094   163A      2.711315   164A      2.725543  
     165A      2.734501   166A      2.757452   167A      2.771623  
     168A      2.807702   169A      2.813124   170A      2.840553  
     171A      2.878145   172A      2.882626   173A      2.904499  
     174A      2.925791   175A      2.953277   176A      2.957320  
     177A      2.985100   178A      3.002867   179A      3.020497  
     180A      3.033513   181A      3.052548   182A      3.073078  
     183A      3.081004   184A      3.104329   185A      3.123752  
     186A      3.134738   187A      3.139719   188A      3.161182  
     189A      3.167780   190A      3.188311   191A      3.226446  
     192A      3.228833   193A      3.243442   194A      3.259432  
     195A      3.286778   196A      3.294370   197A      3.308024  
     198A      3.313498   199A      3.330378   200A      3.342747  
     201A      3.365422   202A      3.368732   203A      3.382041  
     204A      3.397091   205A      3.414345   206A      3.416294  
     207A      3.426571   208A      3.440557   209A      3.449831  
     210A      3.460937   211A      3.474104   212A      3.491970  
     213A      3.505432   214A      3.513318   215A      3.523007  
     216A      3.565430   217A      3.590938   218A      3.592737  
     219A      3.618838   220A      3.639264   221A      3.653370  
     222A      3.661087   223A      3.681267   224A      3.686898  
     225A      3.707896   226A      3.722533   227A      3.732853  
     228A      3.742685   229A      3.757297   230A      3.778501  
     231A      3.787441   232A      3.802596   233A      3.840131  
     234A      3.865241   235A      3.870967   236A      3.876979  
     237A      3.906238   238A      3.956525   239A      3.976217  
     240A      3.983571   241A      4.014247   242A      4.046064  
     243A      4.071734   244A      4.075330   245A      4.098369  
     246A      4.112853   247A      4.127564   248A      4.139615  
     249A      4.148778   250A      4.160245   251A      4.160777  
     252A      4.176939   253A      4.184814   254A      4.193929  
     255A      4.202800   256A      4.223965   257A      4.236567  
     258A      4.251546   259A      4.288957   260A      4.303130  
     261A      4.324704   262A      4.359118   263A      4.376479  
     264A      4.388613   265A      4.406222   266A      4.415591  
     267A      4.423939   268A      4.452113   269A      4.474950  
     270A      4.486898   271A      4.502749   272A      4.512690  
     273A      4.524680   274A      4.557354   275A      4.577044  
     276A      4.601382   277A      4.613177   278A      4.619336  
     279A      4.660530   280A      4.663171   281A      4.675576  
     282A      4.693585   283A      4.710044   284A      4.725341  
     285A      4.741412   286A      4.780501   287A      4.801070  
     288A      4.856854   289A      4.881579   290A      4.903223  
     291A      4.918285   292A      4.984245   293A      4.997228  
     294A      5.050215   295A      5.068508   296A      5.083636  
     297A      5.129293   298A      5.135381   299A      5.190135  
     300A      5.214731   301A      5.222647   302A      5.236034  
     303A      5.262396   304A      5.302366   305A      5.350059  
     306A      5.368270   307A      5.391315   308A      5.426108  
     309A      5.459371   310A      5.478358   311A      5.487838  
     312A      5.534017   313A      5.589474   314A      5.621169  
     315A      5.647928   316A      5.674022   317A      5.698490  
     318A      5.737206   319A      5.787547   320A      5.808039  
     321A      5.831321   322A      5.880117   323A      5.994918  
     324A      6.022274   325A      6.114864   326A      6.172938  
     327A      6.214790   328A      6.259100   329A      6.320178  
     330A      6.360040   331A      6.481868   332A      6.501293  
     333A      6.619028   334A      6.707164   335A      7.008526  
     336A      7.100617   337A      7.136504   338A      7.221933  
     339A      7.277482   340A      7.338924   341A      7.425386  
     342A      7.593834   343A      7.782765   344A      8.057359  
     345A      9.064358   346A     12.986727   347A     13.371638  
     348A     13.680940   349A     13.785434   350A     14.090034  
     351A     14.891959   352A     16.501407  

    Final Occupation by Irrep:
              A 
    DOCC [    29 ]

  Energy converged.

  @DF-RHF Final Energy:  -344.71850920343337

   => Energetics <=

    Nuclear Repulsion Energy =            350.9596768133645242
    One-Electron Energy =               -1163.1902324977354510
    Two-Electron Energy =                 467.5120464809377836
    DFT Exchange-Correlation Energy =       0.0000000000000000
    Empirical Dispersion Energy =           0.0000000000000000
    PCM Polarization Energy =               0.0000000000000000
    EFP Energy =                            0.0000000000000000
    Total Energy =                       -344.7185092034332001


  Saving occupied orbitals to File 180.

*** tstop() called on cx1-27-1-3 at Sat Sep 10 16:08:50 2016
Module time:
	user time   =      28.69 seconds =       0.48 minutes
	system time =       0.63 seconds =       0.01 minutes
	total time  =          9 seconds =       0.15 minutes
Total time:
	user time   =      94.85 seconds =       1.58 minutes
	system time =       2.00 seconds =       0.03 minutes
	total time  =         28 seconds =       0.47 minutes


Properties will be evaluated at   0.000000,   0.000000,   0.000000 Bohr

Properties computed using the SCF density matrix

  Nuclear Dipole Moment: (a.u.)
     X:    -1.9416      Y:    -3.2361      Z:     1.8186

  Electronic Dipole Moment: (a.u.)
     X:     1.5612      Y:     2.7279      Z:    -1.7399

  Dipole Moment: (a.u.)
     X:    -0.3804      Y:    -0.5082      Z:     0.0787     Total:     0.6396

  Dipole Moment: (Debye)
     X:    -0.9669      Y:    -1.2916      Z:     0.1999     Total:     1.6257


*** tstart() called on cx1-27-1-3
*** at Sat Sep 10 16:08:50 2016


         ------------------------------------------------------------
                                   SCF GRAD                          
                          Rob Parrish, Justin Turney,                
                       Andy Simmonett, and Alex Sokolov              
         ------------------------------------------------------------

  ==> Geometry <==

    Molecular point group: c1
    Full point group: C1

    Geometry (in Angstrom), charge = 0, multiplicity = 1:

       Center              X                  Y                   Z               Mass       
    ------------   -----------------  -----------------  -----------------  -----------------
           H         -2.288372585473     1.156993391840    -0.076789320117     1.007825032070
           O         -1.455900625911     1.592401480418    -0.096799207416    15.994914619560
           C         -0.433622167428     0.703475164396    -0.147643141433    12.000000000000
           C          0.722690273285     1.099568602470    -0.793284047592    12.000000000000
           C         -0.525191861005    -0.546693094611     0.451108097612    12.000000000000
           H          0.751833363783     2.071458434811    -1.245326809784     1.007825032070
           C          1.813291278264     0.255946579003    -0.835392565775    12.000000000000
           C          0.578674537911    -1.380915034418     0.380607506723    12.000000000000
           C         -1.785825153244    -0.969459203300     1.162367851444    12.000000000000
           H          2.709916444379     0.571719456809    -1.333874706905     1.007825032070
           C          1.743879675808    -0.993853531504    -0.251701225187    12.000000000000
           H          0.523969175539    -2.350912763496     0.838909522452     1.007825032070
           H         -2.635757389817    -1.020403726801     0.486758853750     1.007825032070
           H         -1.668333338371    -1.951297833394     1.598817586165     1.007825032070
           H         -2.041395745760    -0.278544810013     1.958529926663     1.007825032070
           H          2.584535054121    -1.659096383460    -0.286663098397     1.007825032070

  Nuclear repulsion =  350.959676813364524

  ==> Basis Set <==

  Basis Set: CC-PVTZ
    Number of shells: 128
    Number of basis function: 352
    Number of Cartesian functions: 400
    Spherical Harmonics?: true
    Max angular momentum: 3

  ==> DFJKGrad: Density-Fitted SCF Gradients <==

    Gradient:                    1
    J tasked:                  Yes
    K tasked:                  Yes
    wK tasked:                  No
    OpenMP threads:              4
    Integrals threads:           4
    Memory (MB):              1430
    Schwarz Cutoff:          0E+00
    Fitting Condition:       1E-12

   => Auxiliary Basis Set <=

  Basis Set: 
    Number of shells: 280
    Number of basis function: 872
    Number of Cartesian functions: 1048
    Spherical Harmonics?: true
    Max angular momentum: 4


  -Total Gradient:
     Atom            X                  Y                   Z
    ------   -----------------  -----------------  -----------------
       1       -0.000190372381     0.000126956276    -0.001660506964
       2        0.000510899516    -0.000924768964     0.002433284288
       3       -0.001130176225     0.000553471274     0.000533232920
       4        0.000653945684    -0.000997092127    -0.001783819980
       5       -0.000203618822     0.000741613300    -0.000074300392
       6       -0.000050773034    -0.000075802615     0.000061627801
       7        0.000081890751     0.000839851133     0.000693607185
       8        0.000456320308     0.000174539441    -0.000170158675
       9       -0.000095663062     0.000056910373    -0.000354475085
      10        0.000051882330    -0.000046836419    -0.000138165690
      11       -0.000042609259    -0.000475508188     0.000124055071
      12       -0.000057665750     0.000038291229     0.000092362366
      13        0.000136853674     0.000060989302     0.000179881839
      14       -0.000041938450    -0.000107521575     0.000034779733
      15       -0.000023803739     0.000019208277     0.000130959957
      16       -0.000055171540     0.000015699284    -0.000102364373


*** tstop() called on cx1-27-1-3 at Sat Sep 10 16:08:58 2016
Module time:
	user time   =      31.25 seconds =       0.52 minutes
	system time =       0.58 seconds =       0.01 minutes
	total time  =          8 seconds =       0.13 minutes
Total time:
	user time   =     126.19 seconds =       2.10 minutes
	system time =       2.59 seconds =       0.04 minutes
	total time  =         36 seconds =       0.60 minutes

			-----------------------------------------
			 OPTKING 2.0: for geometry optimizations 
			  - R.A. King,  Bethel University        
			-----------------------------------------

	Previous internal coordinate definitions found.
	---Fragment 1 Geometry and Gradient---
	 H          -4.3243974765        2.1864006481       -0.1451107850
	 O          -2.7512534597        3.0092026916       -0.1829239919
	 C          -0.8194271416        1.3293754020       -0.2790051027
	 C           1.3656866954        2.0778835230       -1.4990895955
	 C          -0.9924687845       -1.0331002276        0.8524707608
	 H           1.4207591551        3.9144891374       -2.3533266164
	 C           3.4266239151        0.4836689390       -1.5786631628
	 C           1.0935363967       -2.6095512278        0.7192439518
	 C          -3.3747204608       -1.8320123912        2.1965569049
	 H           5.1209999229        1.0803931982       -2.5206578916
	 C           3.2954549960       -1.8781109907       -0.4756463829
	 H           0.9901582438       -4.4425812853        1.5853092477
	 H          -4.9808596195       -1.9282835886        0.9198409263
	 H          -3.1526931079       -3.6874185088        3.0213273743
	 H          -3.8576788883       -0.5263734067        3.7010851845
	 H           4.8840634331       -3.1352377928       -0.5417147484
	            -0.0001903724        0.0001269563       -0.0016605070
	             0.0005108995       -0.0009247690        0.0024332843
	            -0.0011301762        0.0005534713        0.0005332329
	             0.0006539457       -0.0009970921       -0.0017838200
	            -0.0002036188        0.0007416133       -0.0000743004
	            -0.0000507730       -0.0000758026        0.0000616278
	             0.0000818908        0.0008398511        0.0006936072
	             0.0004563203        0.0001745394       -0.0001701587
	            -0.0000956631        0.0000569104       -0.0003544751
	             0.0000518823       -0.0000468364       -0.0001381657
	            -0.0000426093       -0.0004755082        0.0001240551
	            -0.0000576657        0.0000382912        0.0000923624
	             0.0001368537        0.0000609893        0.0001798818
	            -0.0000419385       -0.0001075216        0.0000347797
	            -0.0000238037        0.0000192083        0.0001309600
	            -0.0000551715        0.0000156993       -0.0001023644

	---Fragment 1 Intrafragment Coordinates---
	 - Coordinate -           - BOHR/RAD -       - ANG/DEG -
	 R(1,2)           =         1.775729	       0.939676
	 R(2,3)           =         2.561836	       1.355665
	 R(3,4)           =         2.612201	       1.382317
	 R(3,5)           =         2.625161	       1.389176
	 R(4,6)           =         2.026296	       1.072269
	 R(4,7)           =         2.606782	       1.379450
	 R(5,8)           =         2.618084	       1.385430
	 R(5,9)           =         2.849553	       1.507918
	 R(7,10)          =         2.028385	       1.073375
	 R(7,11)          =         2.609953	       1.381128
	 R(8,11)          =         2.609830	       1.381063
	 R(8,12)          =         2.029964	       1.074211
	 R(9,13)          =         2.054009	       1.086935
	 R(9,14)          =         2.042566	       1.080879
	 R(9,15)          =         2.049768	       1.084690
	 R(11,16)         =         2.026921	       1.072601
	 B(1,2,3)         =         1.944447	     111.408626
	 B(2,3,4)         =         2.049261	     117.414005
	 B(2,3,5)         =         2.122604	     121.616244
	 B(3,4,6)         =         2.070721	     118.643599
	 B(3,4,7)         =         2.094813	     120.023970
	 B(3,5,8)         =         2.057181	     117.867807
	 B(3,5,9)         =         2.106815	     120.711631
	 B(4,3,5)         =         2.111014	     120.952219
	 B(4,7,10)        =         2.088264	     119.648716
	 B(4,7,11)        =         2.095294	     120.051475
	 B(5,8,11)        =         2.125598	     121.787821
	 B(5,8,12)        =         2.073089	     118.779273
	 B(5,9,13)        =         1.953764	     111.942451
	 B(5,9,14)        =         1.932921	     110.748200
	 B(5,9,15)        =         1.944009	     111.383531
	 B(6,4,7)         =         2.117596	     121.329328
	 B(7,11,8)        =         2.082323	     119.308322
	 B(7,11,16)       =         2.103745	     120.535734
	 B(8,5,9)         =         2.119158	     121.418785
	 B(8,11,16)       =         2.097117	     120.155928
	 B(10,7,11)       =         2.099555	     120.295653
	 B(11,8,12)       =         2.084464	     119.430975
	 B(13,9,14)       =         1.868587	     107.062155
	 B(13,9,15)       =         1.877427	     107.568620
	 B(14,9,15)       =         1.883711	     107.928678
	*D(1,2,3,4)       =         2.617994	     150.000013
	 D(1,2,3,5)       =        -0.549947	     -31.509649
	 D(2,3,4,6)       =        -0.029414	      -1.685280
	 D(2,3,4,7)       =         3.101144	     177.682458
	 D(2,3,5,8)       =        -3.113527	    -178.391977
	 D(2,3,5,9)       =         0.019721	       1.129925
	 D(3,4,7,10)      =        -3.135944	    -179.676376
	 D(3,4,7,11)      =         0.018551	       1.062922
	 D(3,5,8,11)      =         0.008579	       0.491550
	 D(3,5,8,12)      =         3.141294	     179.982877
	 D(3,5,9,13)      =         1.095357	      62.759357
	 D(3,5,9,14)      =        -3.103937	    -177.842476
	 D(3,5,9,15)      =        -1.007400	     -57.719758
	 D(4,3,5,8)       =         0.000792	       0.045351
	 D(4,3,5,9)       =         3.134040	     179.567253
	 D(4,7,11,8)      =        -0.009334	      -0.534777
	 D(4,7,11,16)     =         3.133033	     179.509548
	 D(5,3,4,6)       =         3.138343	     179.813785
	 D(5,3,4,7)       =        -0.014285	      -0.818477
	 D(5,8,11,7)      =        -0.004381	      -0.251012
	 D(5,8,11,16)     =         3.136441	     179.704836
	 D(6,4,7,10)      =        -0.005689	      -0.325978
	 D(6,4,7,11)      =        -3.134379	    -179.586680
	 D(7,11,8,12)     =        -3.137039	    -179.739107
	 D(8,5,9,13)      =        -2.054879	    -117.735912
	 D(8,5,9,14)      =         0.029012	       1.662255
	 D(8,5,9,15)      =         2.125549	     121.784973
	 D(8,11,7,10)     =        -3.137939	    -179.790648
	 D(9,5,8,11)      =        -3.124607	    -179.026784
	 D(9,5,8,12)      =         0.008108	       0.464543
	 D(10,7,11,16)    =         0.004427	       0.253676
	 D(12,8,11,16)    =         0.003783	       0.216741

	Current energy   :      -344.7185092034

	Energy change for the previous step:
		Projected    :        -0.0003638904
		Actual       :        -0.0001071659

	Performing BFGS update.
	Previous computed or guess Hessian on step 1.
	Steps to be used in Hessian update: 1
	Taking RFO optimization step.
	Going to follow RFO solution 1.
	Using RFO vector 1.
	Norm of target step-size    0.04793
	Projected energy change by RFO approximation:        -0.0000365343

	Back-transformation to cartesian coordinates...
	Could not converge backtransformation.
	Using first guess instead.

	Back-transformation to cartesian coordinates to adjust frozen coordinates...
	Successfully converged to displaced geometry.

	--- Internal Coordinate Step in ANG or DEG, aJ/ANG or AJ/DEG ---
	 ---------------------------------------------------------------------------
	   Coordinate                Previous        Force       Change         New 
	   ----------                --------       ------       ------       ------
	    1 R(1,2)          =      0.939676    -0.000614     0.000053     0.939728
	    2 R(2,3)          =      1.355665     0.006063     0.000993     1.356659
	    3 R(3,4)          =      1.382317    -0.008213    -0.000928     1.381389
	    4 R(3,5)          =      1.389176     0.006029     0.000596     1.389771
	    5 R(4,6)          =      1.072269     0.000791     0.000105     1.072375
	    6 R(4,7)          =      1.379450     0.002373     0.000339     1.379788
	    7 R(5,8)          =      1.385430    -0.002337    -0.000242     1.385189
	    8 R(5,9)          =      1.507918    -0.000066    -0.000089     1.507829
	    9 R(7,10)         =      1.073375    -0.000772    -0.000103     1.073272
	   10 R(7,11)         =      1.381128    -0.001618    -0.000210     1.380918
	   11 R(8,11)         =      1.381063     0.001128     0.000186     1.381249
	   12 R(8,12)         =      1.074211    -0.000064    -0.000006     1.074205
	   13 R(9,13)         =      1.086935     0.001826     0.000392     1.087327
	   14 R(9,14)         =      1.080879    -0.000883    -0.000038     1.080841
	   15 R(9,15)         =      1.084690    -0.000939    -0.000242     1.084449
	   16 R(11,16)        =      1.072601     0.000409     0.000066     1.072666
	   17 B(1,2,3)        =    111.408626    -0.000020    -0.090983   111.317643
	   18 B(2,3,4)        =    117.414005    -0.000053    -0.074378   117.339628
	   19 B(2,3,5)        =    121.616244     0.000035     0.038423   121.654666
	   20 B(3,4,6)        =    118.643599     0.000011     0.034471   118.678070
	   21 B(3,4,7)        =    120.023970    -0.000015    -0.038741   119.985229
	   22 B(3,5,8)        =    117.867807    -0.000004    -0.001041   117.866766
	   23 B(3,5,9)        =    120.711631     0.000007    -0.002098   120.709533
	   24 B(4,3,5)        =    120.952219     0.000019     0.048896   121.001115
	   25 B(4,7,10)       =    119.648716    -0.000006    -0.007775   119.640941
	   26 B(4,7,11)       =    120.051475     0.000008     0.006077   120.057552
	   27 B(5,8,11)       =    121.787821    -0.000018    -0.051830   121.735991
	   28 B(5,8,12)       =    118.779273     0.000016     0.054049   118.833322
	   29 B(5,9,13)       =    111.942451    -0.000003     0.004691   111.947143
	   30 B(5,9,14)       =    110.748200    -0.000004    -0.016150   110.732050
	   31 B(5,9,15)       =    111.383531    -0.000002    -0.040312   111.343219
	   32 B(6,4,7)        =    121.329328     0.000003     0.006995   121.336323
	   33 B(7,11,8)       =    119.308322     0.000010     0.040735   119.349057
	   34 B(7,11,16)      =    120.535734    -0.000002    -0.010518   120.525216
	   35 B(8,5,9)        =    121.418785    -0.000003     0.003702   121.422487
	   36 B(8,11,16)      =    120.155928    -0.000008    -0.030203   120.125725
	   37 B(10,7,11)      =    120.295653    -0.000002     0.004634   120.300288
	   38 B(11,8,12)      =    119.430975     0.000002    -0.001324   119.429651
	   39 B(13,9,14)      =    107.062155     0.000002    -0.016353   107.045803
	   40 B(13,9,15)      =    107.568620     0.000003    -0.013563   107.555057
	   41 B(14,9,15)      =    107.928678     0.000004     0.085824   108.014502
	   42 *D(1,2,3,4)     =    150.000013     0.000000    -0.000000   150.000013
	   43 D(1,2,3,5)      =    -31.509649     0.000006     0.737444   -30.772205
	   44 D(2,3,4,6)      =     -1.685280     0.000004     0.480570    -1.204710
	   45 D(2,3,4,7)      =    177.682458     0.000008     0.892278   178.574735
	   46 D(2,3,5,8)      =   -178.391977    -0.000005    -0.669483  -179.061460
	   47 D(2,3,5,9)      =      1.129925    -0.000005    -0.586641     0.543284
	   48 D(3,4,7,10)     =   -179.676376    -0.000001    -0.036522  -179.712898
	   49 D(3,4,7,11)     =      1.062922    -0.000004    -0.375319     0.687603
	   50 D(3,5,8,11)     =      0.491550    -0.000001    -0.135119     0.356431
	   51 D(3,5,8,12)     =    179.982877    -0.000000     0.001074   179.983951
	   52 D(3,5,9,13)     =     62.759357     0.000001     0.801563    63.560920
	   53 D(3,5,9,14)     =   -177.842476     0.000000     0.773071  -177.069405
	   54 D(3,5,9,15)     =    -57.719758     0.000001     0.843803   -56.875955
	   55 D(4,3,5,8)      =      0.045351     0.000000     0.092913     0.138264
	   56 D(4,3,5,9)      =    179.567253     0.000001     0.175755   179.743008
	   57 D(4,7,11,8)     =     -0.534777     0.000003     0.332332    -0.202445
	   58 D(4,7,11,16)    =    179.509548     0.000003     0.275137   179.784684
	   59 D(5,3,4,6)      =    179.813785    -0.000001    -0.251621   179.562164
	   60 D(5,3,4,7)      =     -0.818477     0.000002     0.160086    -0.658390
	   61 D(5,8,11,7)     =     -0.251012    -0.000000    -0.075709    -0.326720
	   62 D(5,8,11,16)    =    179.704836     0.000000    -0.018738   179.686098
	   63 D(6,4,7,10)     =     -0.325978     0.000003     0.386534     0.060556
	   64 D(6,4,7,11)     =   -179.586680    -0.000000     0.047737  -179.538943
	   65 D(7,11,8,12)    =   -179.739107    -0.000002    -0.212966  -179.952073
	   66 D(8,5,9,13)     =   -117.735912     0.000001     0.887360  -116.848552
	   67 D(8,5,9,14)     =      1.662255     0.000001     0.858869     2.521124
	   68 D(8,5,9,15)     =    121.784973     0.000001     0.929601   122.714573
	   69 D(8,11,7,10)    =   -179.790648    -0.000000    -0.008629  -179.799277
	   70 D(9,5,8,11)     =   -179.026784    -0.000002    -0.218555  -179.245339
	   71 D(9,5,8,12)     =      0.464543    -0.000001    -0.082362     0.382181
	   72 D(10,7,11,16)   =      0.253676    -0.000001    -0.065824     0.187852
	   73 D(12,8,11,16)   =      0.216741    -0.000001    -0.155995     0.060746
	 ---------------------------------------------------------------------------
	Successfully symmetrized geometry.

  ==> Convergence Check <==

  Measures of convergence in internal coordinates in au.
  Criteria marked as inactive (o), active & met (*), and active & unmet ( ).
  ---------------------------------------------------------------------------------------------
   Step     Total Energy     Delta E     MAX Force     RMS Force      MAX Disp      RMS Disp   
  ---------------------------------------------------------------------------------------------
    Convergence Criteria    1.00e-06 *    3.00e-04 *             o    1.20e-03 *             o
  ---------------------------------------------------------------------------------------------
      2    -344.71850920   -1.07e-04      9.97e-04      2.41e-04 o    1.62e-02      5.61e-03 o  ~
  ---------------------------------------------------------------------------------------------

	Writing optimization data to binary file.
	Structure for next step:
	Cartesian Geometry (in Angstrom)
	    H    -2.2870201300   1.1536240122  -0.0780634286
	    O    -1.4565831692   1.5929319239  -0.0997986222
	    C    -0.4305549467   0.7063387584  -0.1415244282
	    C     0.7242631801   1.1024061710  -0.7878695508
	    C    -0.5240126560  -0.5458898608   0.4540028729
	    H     0.7531866694   2.0740860253  -1.2406274910
	    C     1.8120790032   0.2550419637  -0.8373335258
	    C     0.5783003839  -1.3815330242   0.3808335793
	    C    -1.7857298088  -0.9692459020   1.1627959394
	    H     2.7081411789   0.5702220856  -1.3369808763
	    C     1.7426252271  -0.9944522533  -0.2534881559
	    H     0.5231209476  -2.3529209524   0.8361106543
	    H    -2.6323572601  -1.0310537996   0.4833240206
	    H    -1.6648593125  -1.9466405425   1.6081123789
	    H    -2.0488071423  -0.2719748296   1.9505981862
	    H     2.5825987715  -1.6605530467  -0.2904663305
			--------------------------
			 OPTKING Finished Execution 
			--------------------------

    Structure for next step:
    Molecular point group: c1
    Full point group: C1

    Geometry (in Angstrom), charge = 0, multiplicity = 1:

    H           -2.287238147292     1.153082875227    -0.078802437451
    O           -1.456801186400     1.592390786958    -0.100537631084
    C           -0.430772963940     0.705797621477    -0.142263437028
    C            0.724045162839     1.101865034043    -0.788608559651
    C           -0.524230673296    -0.546430997793     0.453263864049
    H            0.752968652128     2.073544888312    -1.241366499813
    C            1.811860985976     0.254500826708    -0.838072534676
    C            0.578082366629    -1.382074161199     0.380094570425
    C           -1.785947826013    -0.969787038948     1.162056930547
    H            2.707923161604     0.569680948601    -1.337719885182
    C            1.742407209869    -0.994993390285    -0.254227164757
    H            0.522902930310    -2.353462089356     0.835371645477
    H           -2.632575277310    -1.031594936604     0.482585011752
    H           -1.665077329736    -1.947181679451     1.607373370081
    H           -2.049025159560    -0.272515966590     1.949859177365
    H            2.582380754287    -1.661094183652    -0.291205339365

gradient() will perform analytic gradient computation.

*** tstart() called on cx1-27-1-3
*** at Sat Sep 10 16:08:58 2016


         ---------------------------------------------------------
                                   SCF
            by Justin Turney, Rob Parrish, and Andy Simmonett
                              RHF Reference
                        4 Threads,   2000 MiB Core
         ---------------------------------------------------------

  ==> Geometry <==

    Molecular point group: c1
    Full point group: C1

    Geometry (in Angstrom), charge = 0, multiplicity = 1:

       Center              X                  Y                   Z               Mass       
    ------------   -----------------  -----------------  -----------------  -----------------
           H         -2.287238147292     1.153082875227    -0.078802437451     1.007825032070
           O         -1.456801186400     1.592390786958    -0.100537631084    15.994914619560
           C         -0.430772963940     0.705797621477    -0.142263437028    12.000000000000
           C          0.724045162839     1.101865034043    -0.788608559651    12.000000000000
           C         -0.524230673296    -0.546430997793     0.453263864049    12.000000000000
           H          0.752968652128     2.073544888312    -1.241366499813     1.007825032070
           C          1.811860985976     0.254500826708    -0.838072534676    12.000000000000
           C          0.578082366629    -1.382074161199     0.380094570425    12.000000000000
           C         -1.785947826013    -0.969787038948     1.162056930547    12.000000000000
           H          2.707923161604     0.569680948601    -1.337719885182     1.007825032070
           C          1.742407209869    -0.994993390285    -0.254227164757    12.000000000000
           H          0.522902930310    -2.353462089356     0.835371645477     1.007825032070
           H         -2.632575277310    -1.031594936604     0.482585011752     1.007825032070
           H         -1.665077329736    -1.947181679451     1.607373370081     1.007825032070
           H         -2.049025159560    -0.272515966590     1.949859177365     1.007825032070
           H          2.582380754287    -1.661094183652    -0.291205339365     1.007825032070

  Running in c1 symmetry.

  Rotational constants: A =      0.11028  B =      0.07454  C =      0.04489 [cm^-1]
  Rotational constants: A =   3306.15731  B =   2234.58034  C =   1345.64225 [MHz]
  Nuclear repulsion =  350.943901581523846

  Charge       = 0
  Multiplicity = 1
  Electrons    = 58
  Nalpha       = 29
  Nbeta        = 29

  ==> Algorithm <==

  SCF Algorithm Type is DF.
  DIIS enabled.
  MOM disabled.
  Fractional occupation disabled.
  Guess Type is READ.
  Energy threshold   = 1.00e-08
  Density threshold  = 1.00e-08
  Integral threshold = 0.00e+00

  ==> Primary Basis <==

  Basis Set: CC-PVTZ
    Number of shells: 128
    Number of basis function: 352
    Number of Cartesian functions: 400
    Spherical Harmonics?: true
    Max angular momentum: 3

  ==> Pre-Iterations <==

   -------------------------------------------------------
    Irrep   Nso     Nmo     Nalpha   Nbeta   Ndocc  Nsocc
   -------------------------------------------------------
     A        352     352       0       0       0       0
   -------------------------------------------------------
    Total     352     352      29      29      29       0
   -------------------------------------------------------

  ==> Integral Setup <==

  ==> DFJK: Density-Fitted J/K Matrices <==

    J tasked:                  Yes
    K tasked:                  Yes
    wK tasked:                  No
    OpenMP threads:              4
    Integrals threads:           4
    Memory (MB):              1430
    Algorithm:                Core
    Integral Cache:           NONE
    Schwarz Cutoff:          1E-12
    Fitting Condition:       1E-12

   => Auxiliary Basis Set <=

  Basis Set: 
    Number of shells: 280
    Number of basis function: 872
    Number of Cartesian functions: 1048
    Spherical Harmonics?: true
    Max angular momentum: 4

  Minimum eigenvalue in the overlap matrix is 3.2711577709E-05.
  Using Symmetric Orthogonalization.
  SCF Guess: Reading in previously saved MOs, projecting if necessary.

  Using orbitals from previous SCF, no projection.
  Recomputing DOCC and SOCC from number of alpha and beta electrons from previous calculation.
              A 
    DOCC [    29 ]

  ==> Iterations <==

[...]
	system time =       0.63 seconds =       0.01 minutes
	total time  =          9 seconds =       0.15 minutes
Total time:
	user time   =     299.66 seconds =       4.99 minutes
	system time =       6.06 seconds =       0.10 minutes
	total time  =         84 seconds =       1.40 minutes

			-----------------------------------------
			 OPTKING 2.0: for geometry optimizations 
			  - R.A. King,  Bethel University        
			-----------------------------------------

	Previous internal coordinate definitions found.
	---Fragment 1 Geometry and Gradient---
	 H          -4.3206630193        2.1815669101       -0.1497699722
	 O          -2.7512033205        3.0110319459       -0.1883738810
	 C          -0.8132713549        1.3338434740       -0.2682484202
	 C           1.3689277814        2.0838926115       -1.4868591260
	 C          -0.9905785058       -1.0330583344        0.8574560754
	 H           1.4259393982        3.9221841010       -2.3376411909
	 C           3.4239524606        0.4807378938       -1.5832690339
	 C           1.0906404530       -2.6131072878        0.7151501998
	 C          -3.3752192485       -1.8329746059        2.1968684251
	 H           5.1176623841        1.0769353228       -2.5262861186
	 C           3.2907536403       -1.8820688710       -0.4856290163
	 H           0.9868602726       -4.4492558852        1.5743525307
	 H          -4.9681645846       -1.9741671091        0.9065598433
	 H          -3.1380401642       -3.6683632629        3.0604478847
	 H          -3.8869506345       -0.5035481498        3.6700489572
	 H           4.8767253588       -3.1424201095       -0.5587917063
	            -0.0000495839        0.0000200786       -0.0016697967
	            -0.0001908295       -0.0001791318        0.0016062800
	             0.0006871881        0.0005464789        0.0011049545
	            -0.0004338396       -0.0004373211       -0.0010433302
	            -0.0000338433        0.0000372369       -0.0000140473
	             0.0000034894        0.0000015248        0.0000104244
	             0.0000021877        0.0000130625       -0.0000077259
	             0.0000227696       -0.0000137778       -0.0000314655
	             0.0000252799        0.0000073584        0.0000424523
	             0.0000024374       -0.0000091241        0.0000047993
	            -0.0000140946        0.0000019917        0.0000279752
	            -0.0000002269        0.0000104136        0.0000005000
	            -0.0000174866       -0.0000054799       -0.0000133911
	            -0.0000039479        0.0000070547       -0.0000120723
	            -0.0000087561       -0.0000024730        0.0000019601
	             0.0000092563        0.0000021078       -0.0000075167

	---Fragment 1 Intrafragment Coordinates---
	 - Coordinate -           - BOHR/RAD -       - ANG/DEG -
	 R(1,2)           =         1.775586	       0.939600
	 R(2,3)           =         2.564161	       1.356896
	 R(3,4)           =         2.609517	       1.380897
	 R(3,5)           =         2.626951	       1.390123
	 R(4,6)           =         2.026424	       1.072338
	 R(4,7)           =         2.608165	       1.380182
	 R(5,8)           =         2.616921	       1.384815
	 R(5,9)           =         2.849632	       1.507960
	 R(7,10)          =         2.028148	       1.073250
	 R(7,11)          =         2.608718	       1.380474
	 R(8,11)          =         2.610898	       1.381627
	 R(8,12)          =         2.029887	       1.074170
	 R(9,13)          =         2.054825	       1.087367
	 R(9,14)          =         2.042223	       1.080698
	 R(9,15)          =         2.049269	       1.084427
	 R(11,16)         =         2.027102	       1.072696
	 B(1,2,3)         =         1.942452	     111.294300
	 B(2,3,4)         =         2.047169	     117.294121
	 B(2,3,5)         =         2.123486	     121.666795
	 B(3,4,6)         =         2.071830	     118.707106
	 B(3,4,7)         =         2.093799	     119.965872
	 B(3,5,8)         =         2.056726	     117.841698
	 B(3,5,9)         =         2.106935	     120.718470
	 B(4,3,5)         =         2.112424	     121.033000
	 B(4,7,10)        =         2.088046	     119.636232
	 B(4,7,11)        =         2.095483	     120.062350
	 B(5,8,11)        =         2.124827	     121.743638
	 B(5,8,12)        =         2.074277	     118.847325
	 B(5,9,13)        =         1.952887	     111.892206
	 B(5,9,14)        =         1.932480	     110.722974
	 B(5,9,15)        =         1.944169	     111.392668
	 B(6,4,7)         =         2.117548	     121.326561
	 B(7,11,8)        =         2.083045	     119.349664
	 B(7,11,16)       =         2.103665	     120.531153
	 B(8,5,9)         =         2.119514	     121.439190
	 B(8,11,16)       =         2.096475	     120.119151
	 B(10,7,11)       =         2.099632	     120.300047
	 B(11,8,12)       =         2.084060	     119.407828
	 B(13,9,14)       =         1.869008	     107.086288
	 B(13,9,15)       =         1.878013	     107.602227
	 B(14,9,15)       =         1.883931	     107.941301
	*D(1,2,3,4)       =         2.617994	     150.000013
	 D(1,2,3,5)       =        -0.539109	     -30.888671
	 D(2,3,4,6)       =        -0.019841	      -1.136800
	 D(2,3,4,7)       =         3.117497	     178.619405
	 D(2,3,5,8)       =        -3.126273	    -179.122257
	 D(2,3,5,9)       =         0.010306	       0.590478
	 D(3,4,7,10)      =        -3.137132	    -179.744427
	 D(3,4,7,11)      =         0.011870	       0.680092
	 D(3,5,8,11)      =         0.007194	       0.412165
	 D(3,5,8,12)      =        -3.141422	    -179.990247
	 D(3,5,9,13)      =         1.123095	      64.348626
	 D(3,5,9,14)      =        -3.076543	    -176.272935
	 D(3,5,9,15)      =        -0.979918	     -56.145161
	 D(4,3,5,8)       =        -0.000767	      -0.043918
	 D(4,3,5,9)       =         3.135812	     179.668817
	 D(4,7,11,8)      =        -0.005571	      -0.319188
	 D(4,7,11,16)     =         3.137164	     179.746231
	 D(5,3,4,6)       =         3.137158	     179.745915
	 D(5,3,4,7)       =        -0.008690	      -0.497881
	 D(5,8,11,7)      =        -0.004092	      -0.234429
	 D(5,8,11,16)     =         3.136364	     179.700427
	 D(6,4,7,10)      =         0.000092	       0.005250
	 D(6,4,7,11)      =        -3.134092	    -179.570230
	 D(7,11,8,12)     =        -3.138622	    -179.829817
	 D(8,5,9,13)      =        -2.023693	    -115.949092
	 D(8,5,9,14)      =         0.059853	       3.429346
	 D(8,5,9,15)      =         2.156479	     123.557120
	 D(8,11,7,10)     =        -3.139705	    -179.891823
	 D(9,5,8,11)      =        -3.129347	    -179.298384
	 D(9,5,8,12)      =         0.005222	       0.299204
	 D(10,7,11,16)    =         0.003030	       0.173596
	 D(12,8,11,16)    =         0.001833	       0.105039

	Current energy   :      -344.7185321873

	Energy change for the previous step:
		Projected    :        -0.0000007364
		Actual       :        -0.0000003499

	Performing BFGS update.
	Previous computed or guess Hessian on step 1.
	Steps to be used in Hessian update: 4 3
	Taking RFO optimization step.
	Going to follow RFO solution 1.
	Rejecting RFO root 1 because normalization gives large value.
	Using RFO vector 2.
	Norm of target step-size    0.00152
	Projected energy change by RFO approximation:        -0.0000001607

	Back-transformation to cartesian coordinates...
	Successfully converged to displaced geometry.

	Back-transformation to cartesian coordinates to adjust frozen coordinates...
	Successfully converged to displaced geometry.

	--- Internal Coordinate Step in ANG or DEG, aJ/ANG or AJ/DEG ---
	 ---------------------------------------------------------------------------
	   Coordinate                Previous        Force       Change         New 
	   ----------                --------       ------       ------       ------
	    1 R(1,2)          =      0.939600     0.000015     0.000001     0.939600
	    2 R(2,3)          =      1.356896    -0.000624    -0.000078     1.356817
	    3 R(3,4)          =      1.380897    -0.000002     0.000001     1.380898
	    4 R(3,5)          =      1.390123     0.000310     0.000044     1.390167
	    5 R(4,6)          =      1.072338     0.000024     0.000001     1.072339
	    6 R(4,7)          =      1.380182     0.000046     0.000015     1.380197
	    7 R(5,8)          =      1.384815    -0.000174    -0.000032     1.384783
	    8 R(5,9)          =      1.507960    -0.000092    -0.000018     1.507942
	    9 R(7,10)         =      1.073250     0.000024     0.000006     1.073256
	   10 R(7,11)         =      1.380474     0.000029    -0.000007     1.380468
	   11 R(8,11)         =      1.381627     0.000074     0.000020     1.381647
	   12 R(8,12)         =      1.074170     0.000076     0.000014     1.074184
	   13 R(9,13)         =      1.087367    -0.000184    -0.000043     1.087324
	   14 R(9,14)         =      1.080698     0.000098     0.000015     1.080713
	   15 R(9,15)         =      1.084427    -0.000016    -0.000002     1.084424
	   16 R(11,16)        =      1.072696    -0.000051    -0.000010     1.072687
	   17 B(1,2,3)        =    111.294300     0.000000     0.002832   111.297131
	   18 B(2,3,4)        =    117.294121     0.000001     0.004778   117.298899
	   19 B(2,3,5)        =    121.666795     0.000000     0.000067   121.666863
	   20 B(3,4,6)        =    118.707106    -0.000000    -0.000278   118.706828
	   21 B(3,4,7)        =    119.965872     0.000000     0.001191   119.967064
	   22 B(3,5,8)        =    117.841698     0.000001     0.004207   117.845905
	   23 B(3,5,9)        =    120.718470    -0.000001    -0.002863   120.715607
	   24 B(4,3,5)        =    121.033000    -0.000002    -0.004850   121.028150
	   25 B(4,7,10)       =    119.636232    -0.000001    -0.004618   119.631614
	   26 B(4,7,11)       =    120.062350     0.000001     0.001737   120.064087
	   27 B(5,8,11)       =    121.743638    -0.000000    -0.000723   121.742915
	   28 B(5,8,12)       =    118.847325     0.000000     0.001450   118.848775
	   29 B(5,9,13)       =    111.892206     0.000000     0.000084   111.892290
	   30 B(5,9,14)       =    110.722974     0.000000     0.001649   110.724623
	   31 B(5,9,15)       =    111.392668    -0.000001    -0.005564   111.387104
	   32 B(6,4,7)        =    121.326561    -0.000000    -0.000852   121.325709
	   33 B(7,11,8)       =    119.349664    -0.000000    -0.001420   119.348244
	   34 B(7,11,16)      =    120.531153     0.000001     0.004666   120.535819
	   35 B(8,5,9)        =    121.439190    -0.000001    -0.001298   121.437893
	   36 B(8,11,16)      =    120.119151    -0.000001    -0.003249   120.115902
	   37 B(10,7,11)      =    120.300047     0.000000     0.002866   120.302913
	   38 B(11,8,12)      =    119.407828     0.000000    -0.000612   119.407216
	   39 B(13,9,14)      =    107.086288     0.000000     0.006706   107.092994
	   40 B(13,9,15)      =    107.602227     0.000000     0.002209   107.604436
	   41 B(14,9,15)      =    107.941301     0.000000    -0.004800   107.936501
	   42 *D(1,2,3,4)     =    150.000013    -0.000000     0.000000   150.000013
	   43 D(1,2,3,5)      =    -30.888671    -0.000000    -0.000375   -30.889046
	   44 D(2,3,4,6)      =     -1.136800    -0.000000    -0.012083    -1.148883
	   45 D(2,3,4,7)      =    178.619405     0.000000     0.004863   178.624267
	   46 D(2,3,5,8)      =   -179.122257     0.000000     0.007235  -179.115023
	   47 D(2,3,5,9)      =      0.590478     0.000000     0.017726     0.608204
	   48 D(3,4,7,10)     =   -179.744427    -0.000000    -0.010298  -179.754725
	   49 D(3,4,7,11)     =      0.680092    -0.000000    -0.007973     0.672120
	   50 D(3,5,8,11)     =      0.412165    -0.000000    -0.016693     0.395472
	   51 D(3,5,8,12)     =   -179.990247     0.000000     0.002939  -179.987308
	   52 D(3,5,9,13)     =     64.348626    -0.000000     0.016787    64.365413
	   53 D(3,5,9,14)     =   -176.272935     0.000000     0.026431  -176.246505
	   54 D(3,5,9,15)     =    -56.145161    -0.000000     0.017779   -56.127382
	   55 D(4,3,5,8)      =     -0.043918     0.000000     0.006932    -0.036986
	   56 D(4,3,5,9)      =    179.668817     0.000000     0.017423   179.686240
	   57 D(4,7,11,8)     =     -0.319188    -0.000000    -0.001471    -0.320659
	   58 D(4,7,11,16)    =    179.746231     0.000000     0.001455   179.747686
	   59 D(5,3,4,6)      =    179.745915    -0.000000    -0.011756   179.734159
	   60 D(5,3,4,7)      =     -0.497881     0.000000     0.005190    -0.492691
	   61 D(5,8,11,7)     =     -0.234429     0.000000     0.014142    -0.220286
	   62 D(5,8,11,16)    =    179.700427     0.000000     0.011234   179.711661
	   63 D(6,4,7,10)     =      0.005250     0.000000     0.007103     0.012354
	   64 D(6,4,7,11)     =   -179.570230     0.000000     0.009428  -179.560802
	   65 D(7,11,8,12)    =   -179.829817    -0.000000    -0.005605  -179.835422
	   66 D(8,5,9,13)     =   -115.949092    -0.000000     0.027675  -115.921418
	   67 D(8,5,9,14)     =      3.429346     0.000000     0.037319     3.466665
	   68 D(8,5,9,15)     =    123.557120     0.000000     0.028667   123.585787
	   69 D(8,11,7,10)    =   -179.891823    -0.000000     0.000902  -179.890921
	   70 D(9,5,8,11)     =   -179.298384    -0.000000    -0.027260  -179.325644
	   71 D(9,5,8,12)     =      0.299204    -0.000000    -0.007628     0.291577
	   72 D(10,7,11,16)   =      0.173596     0.000000     0.003828     0.177424
	   73 D(12,8,11,16)   =      0.105039    -0.000000    -0.008513     0.096526
	 ---------------------------------------------------------------------------
	Successfully symmetrized geometry.

  ==> Convergence Check <==

  Measures of convergence in internal coordinates in au.
  Criteria marked as inactive (o), active & met (*), and active & unmet ( ).
  ---------------------------------------------------------------------------------------------
   Step     Total Energy     Delta E     MAX Force     RMS Force      MAX Disp      RMS Disp   
  ---------------------------------------------------------------------------------------------
    Convergence Criteria    1.00e-06 *    3.00e-04 *             o    1.20e-03 *             o
  ---------------------------------------------------------------------------------------------
      5    -344.71853219   -3.50e-07 *    7.57e-05 *    1.24e-05 o    6.51e-04 *    1.78e-04 o  ~
  ---------------------------------------------------------------------------------------------


  **** Optimization is complete! (in 5 steps) ****

  ==> Optimization Summary <==

  Measures of convergence in internal coordinates in au.
  --------------------------------------------------------------------------------------------------------------- ~
   Step         Total Energy             Delta E       MAX Force       RMS Force        MAX Disp        RMS Disp  ~
  --------------------------------------------------------------------------------------------------------------- ~
      1    -344.718402037579   -344.718402037579      0.00372654      0.00071621      0.04784387      0.01433557  ~
      2    -344.718509203433     -0.000107165855      0.00099691      0.00024109      0.01622459      0.00560787  ~
      3    -344.718529306349     -0.000020102915      0.00028467      0.00008692      0.01203007      0.00327561  ~
      4    -344.718531837404     -0.000002531056      0.00009997      0.00003543      0.00400788      0.00110441  ~
      5    -344.718532187273     -0.000000349869      0.00007569      0.00001245      0.00065133      0.00017790  ~
  --------------------------------------------------------------------------------------------------------------- ~

	Writing optimization data to binary file.
	Final energy is   -344.7185321872730
	Final (previous) structure:
	Cartesian Geometry (in Angstrom)
	    H    -2.2863963958   1.1544354879  -0.0792548558
	    O    -1.4558740934   1.5933694801  -0.0996831645
	    C    -0.4303646654   0.7058395663  -0.1419509502
	    C     0.7244053821   1.1027484751  -0.7868119619
	    C    -0.5241915686  -0.5466709257   0.4537462125
	    H     0.7545746303   2.0755304341  -1.2370264401
	    C     1.8118776054   0.2543955367  -0.8378298878
	    C     0.5771420705  -1.3827968203   0.3784411865
	    C    -1.7860891003  -0.9699683854   1.1625327009
	    H     2.7081502949   0.5698896280  -1.3368530363
	    C     1.7413918255  -0.9959479515  -0.2569838072
	    H     0.5222239643  -2.3544448096   0.8331114775
	    H    -2.6290394667  -1.0446842401   0.4797308073
	    H    -1.6605793345  -1.9412142315   1.6195192686
	    H    -2.0568856867  -0.2664662043   1.9421062626
	    H     2.5806519124  -1.6628971018  -0.2956998353
	Saving final (previous) structure.
			--------------------------
			 OPTKING Finished Execution 
			--------------------------

    Final optimized geometry and variables:
    Molecular point group: c1
    Full point group: C1

    Geometry (in Angstrom), charge = 0, multiplicity = 1:

    H           -2.286396395789     1.154435487852    -0.079254855820
    O           -1.455874093401     1.593369480085    -0.099683164518
    C           -0.430364665400     0.705839566260    -0.141950950202
    C            0.724405382109     1.102748475133    -0.786811961871
    C           -0.524191568565    -0.546670925704     0.453746212472
    H            0.754574630345     2.075530434137    -1.237026440092
    C            1.811877605441     0.254395536682    -0.837829887823
    C            0.577142070499    -1.382796820309     0.378441186477
    C           -1.786089100283    -0.969968385377     1.162532700851
    H            2.708150294940     0.569889627966    -1.336853036332
    C            1.741391825524    -0.995947951548    -0.256983807245
    H            0.522223964297    -2.354444809648     0.833111477538
    H           -2.629039466701    -1.044684240066     0.479730807318
    H           -1.660579334535    -1.941214231532     1.619519268648
    H           -2.056885686669    -0.266466204298     1.942106262551
    H            2.580651912429    -1.662897101786    -0.295699835316

	Cleaning optimization helper files.


Properties will be evaluated at   0.000000,   0.000000,   0.000000 Bohr

Properties computed using the  density matrix

  Nuclear Dipole Moment: (a.u.)
     X:    -1.9450      Y:    -3.2452      Z:     1.8047

  Electronic Dipole Moment: (a.u.)
     X:     1.5672      Y:     2.7327      Z:    -1.7265

  Dipole Moment: (a.u.)
     X:    -0.3779      Y:    -0.5125      Z:     0.0783     Total:     0.6415

  Dipole Moment: (Debye)
     X:    -0.9604      Y:    -1.3026      Z:     0.1990     Total:     1.6306

  Quadrupole Moment: (Debye Ang)
    XX:   -40.9874     YY:   -48.6584     ZZ:   -49.2292
    XY:     0.8934     XZ:    -2.4160     YZ:    -2.6933

  Traceless Quadrupole Moment: (Debye Ang)
    XX:     5.3043     YY:    -2.3667     ZZ:    -2.9375
    XY:     0.8934     XZ:    -2.4160     YZ:    -2.6933

  Mulliken Charges: (a.u.)
   Center  Symbol    Alpha    Beta     Spin     Total
       1     H     0.38564  0.38564  0.00000  0.22871
       2     O     4.17841  4.17841  0.00000 -0.35681
       3     C     2.87757  2.87757  0.00000  0.24485
       4     C     3.11135  3.11135  0.00000 -0.22270
       5     C     3.00668  3.00668  0.00000 -0.01337
       6     H     0.41906  0.41906  0.00000  0.16189
       7     C     3.06776  3.06776  0.00000 -0.13552
       8     C     3.08651  3.08651  0.00000 -0.17303
       9     C     3.15916  3.15916  0.00000 -0.31832
      10     H     0.42244  0.42244  0.00000  0.15513
      11     C     3.08838  3.08838  0.00000 -0.17677
      12     H     0.42542  0.42542  0.00000  0.14915
      13     H     0.45720  0.45720  0.00000  0.08561
      14     H     0.44721  0.44721  0.00000  0.10557
      15     H     0.44241  0.44241  0.00000  0.11518
      16     H     0.42478  0.42478  0.00000  0.15043

   Total alpha = 29.00000, Total beta = 29.00000, Total charge = -0.00000


*** Psi4 exiting successfully. Buy a developer a beer!
