    -----------------------------------------------------------------------
          Psi4: An Open-Source Ab Initio Electronic Structure Package
                              Psi4 1.0.54 Driver

                          Git: Rev {master} 8d4cec3 dirty

    J. M. Turney, A. C. Simmonett, R. M. Parrish, E. G. Hohenstein,
    F. A. Evangelista, J. T. Fermann, B. J. Mintz, L. A. Burns, J. J. Wilke,
    M. L. Abrams, N. J. Russ, M. L. Leininger, C. L. Janssen, E. T. Seidl,
    W. D. Allen, H. F. Schaefer, R. A. King, E. F. Valeev, C. D. Sherrill,
    and T. D. Crawford, WIREs Comput. Mol. Sci. 2, 556-565 (2012)
    (doi: 10.1002/wcms.93)

                         Additional Contributions by
    A. E. DePrince, U. Bozkaya, A. Yu. Sokolov, D. G. A. Smith, R. Di Remigio,
    R. M. Richard, J. F. Gonthier, H. R. McAlexander, M. Saitow, and
    B. P. Pritchard
    -----------------------------------------------------------------------


    Psi4 started on: Sat Sep 10 17:28:38 2016

    Process ID:  38556
    PSI4DATADIR: /export131/home/mjharvey/miniconda3/share/psi4
    Memory level set to 256.000 MB

  ==> Input File <==

--------------------------------------------------------------------------
set {
	reference rhf
	basis cc-pvtz
}


set_num_threads( 4 )
memory 2 gb

molecule MOL {
0 1

O	 0.749630	 1.305591	 -0.000460
C	 0.576499	 0.134701	 -0.003900
C	 -0.765656	 -0.550508	 -0.002152
O	 1.564816	 -0.744612	 -0.000631
C	 -1.945526	 0.411052	 0.000603
H	 -0.794329	 -1.203792	 -0.868145
H	 -0.791555	 -1.205429	 0.862701
C	 -1.591894	 1.751855	 0.634728
H	 -2.774198	 -0.041720	 0.531351
H	 -2.285924	 0.561777	 -1.016643
H	 -1.277613	 1.630101	 1.666092
H	 -2.444635	 2.419860	 0.626687
H	 -0.784382	 2.240884	 0.099841
C	 2.884339	 -0.237801	 0.002883
H	 3.064150	 0.362814	 -0.876312
H	 3.533055	 -1.098529	 0.004958
H	 3.059365	 0.363432	 0.882614

	symmetry c1
}
set optking {
	frozen_dihedral = ("
		9 5 3 6
	")
}

ee,wfn = optimize('scf', return_wfn=True)
oeprop( wfn, 'DIPOLE', 'QUADRUPOLE', 'MULLIKEN_CHARGES')
f=open( 'psi4out.xyz', 'w' )
f.write( "17  " )
f.write( str(ee) + "\n" )
f.write( MOL.save_string_xyz() )
f.close()
--------------------------------------------------------------------------

  Memory set to   2.000 GiB by Python script.
gradient() will perform analytic gradient computation.

*** tstart() called on cx1-27-3-2
*** at Sat Sep 10 17:28:39 2016


         ---------------------------------------------------------
                                   SCF
            by Justin Turney, Rob Parrish, and Andy Simmonett
                              RHF Reference
                        4 Threads,   2000 MiB Core
         ---------------------------------------------------------

  ==> Geometry <==

    Molecular point group: c1
    Full point group: C1

    Geometry (in Angstrom), charge = 0, multiplicity = 1:

       Center              X                  Y                   Z               Mass       
    ------------   -----------------  -----------------  -----------------  -----------------
           O          0.500730074512     1.000448319632    -0.093501899115    15.994914619560
           C          0.327599074512    -0.170441680368    -0.096941899115    12.000000000000
           C         -1.014555925488    -0.855650680368    -0.095193899115    12.000000000000
           O          1.315916074512    -1.049754680368    -0.093672899115    15.994914619560
           C         -2.194425925488     0.105909319632    -0.092438899115    12.000000000000
           H         -1.043228925488    -1.508934680368    -0.961186899115     1.007825032070
           H         -1.040454925488    -1.510571680368     0.769659100885     1.007825032070
           C         -1.840793925488     1.446712319632     0.541686100885    12.000000000000
           H         -3.023097925488    -0.346862680368     0.438309100885     1.007825032070
           H         -2.534823925488     0.256634319632    -1.109684899115     1.007825032070
           H         -1.526512925488     1.324958319632     1.573050100885     1.007825032070
           H         -2.693534925488     2.114717319632     0.533645100885     1.007825032070
           H         -1.033281925488     1.935741319632     0.006799100885     1.007825032070
           C          2.635439074512    -0.542943680368    -0.090158899115    12.000000000000
           H          2.815250074512     0.057671319632    -0.969353899115     1.007825032070
           H          3.284155074512    -1.403671680368    -0.088083899115     1.007825032070
           H          2.810465074512     0.058289319632     0.789572100885     1.007825032070

  Running in c1 symmetry.

  Rotational constants: A =      0.21694  B =      0.05375  C =      0.04511 [cm^-1]
  Rotational constants: A =   6503.84017  B =   1611.34777  C =   1352.47923 [MHz]
  Nuclear repulsion =  324.665565314707180

  Charge       = 0
  Multiplicity = 1
  Electrons    = 56
  Nalpha       = 28
  Nbeta        = 28

  ==> Algorithm <==

  SCF Algorithm Type is DF.
  DIIS enabled.
  MOM disabled.
  Fractional occupation disabled.
  Guess Type is SAD.
  Energy threshold   = 1.00e-08
  Density threshold  = 1.00e-08
  Integral threshold = 0.00e+00

  ==> Primary Basis <==

  Basis Set: CC-PVTZ
    Number of shells: 130
    Number of basis function: 350
    Number of Cartesian functions: 395
    Spherical Harmonics?: true
    Max angular momentum: 3

  ==> Pre-Iterations <==

   -------------------------------------------------------
    Irrep   Nso     Nmo     Nalpha   Nbeta   Ndocc  Nsocc
   -------------------------------------------------------
     A        350     350       0       0       0       0
   -------------------------------------------------------
    Total     350     350      28      28      28       0
   -------------------------------------------------------

  ==> Integral Setup <==

  ==> DFJK: Density-Fitted J/K Matrices <==

    J tasked:                  Yes
    K tasked:                  Yes
    wK tasked:                  No
    OpenMP threads:              4
    Integrals threads:           4
    Memory (MB):              1430
    Algorithm:                Core
    Integral Cache:           NONE
    Schwarz Cutoff:          1E-12
    Fitting Condition:       1E-12

   => Auxiliary Basis Set <=

  Basis Set: 
    Number of shells: 275
    Number of basis function: 853
    Number of Cartesian functions: 1022
    Spherical Harmonics?: true
    Max angular momentum: 4

  Minimum eigenvalue in the overlap matrix is 2.9433223884E-04.
  Using Symmetric Orthogonalization.
  SCF Guess: Superposition of Atomic Densities via on-the-fly atomic UHF.

  ==> Iterations <==

                           Total Energy        Delta E     RMS |[F,P]|

   @DF-RHF iter   0:  -348.32721180896812   -3.48327e+02   1.50477e-02 
   @DF-RHF iter   1:  -344.77093335312935    3.55628e+00   1.67086e-03 
   @DF-RHF iter   2:  -344.94363831550987   -1.72705e-01   1.09621e-03 DIIS
   @DF-RHF iter   3:  -344.99742776772183   -5.37895e-02   2.73612e-04 DIIS
   @DF-RHF iter   4:  -345.00601604177456   -8.58827e-03   1.02250e-04 DIIS
   @DF-RHF iter   5:  -345.00716762774852   -1.15159e-03   3.66664e-05 DIIS
   @DF-RHF iter   6:  -345.00736036299628   -1.92735e-04   1.34101e-05 DIIS
   @DF-RHF iter   7:  -345.00738027180643   -1.99088e-05   4.96627e-06 DIIS
   @DF-RHF iter   8:  -345.00738344311407   -3.17131e-06   1.53730e-06 DIIS
   @DF-RHF iter   9:  -345.00738384585014   -4.02736e-07   4.66317e-07 DIIS
   @DF-RHF iter  10:  -345.00738388140218   -3.55520e-08   1.42937e-07 DIIS
   @DF-RHF iter  11:  -345.00738388436349   -2.96131e-09   3.55911e-08 DIIS
   @DF-RHF iter  12:  -345.00738388456494   -2.01453e-10   8.71922e-09 DIIS

  ==> Post-Iterations <==

    Orbital Energies (a.u.)
    -----------------------

    Doubly Occupied:                                                      

       1A    -20.598945     2A    -20.532863     3A    -11.369099  
       4A    -11.280565     5A    -11.234240     6A    -11.216825  
       7A    -11.181438     8A     -1.476367     9A     -1.372610  
      10A     -1.078697    11A     -0.999367    12A     -0.932264  
      13A     -0.825869    14A     -0.776734    15A     -0.701457  
      16A     -0.689002    17A     -0.676000    18A     -0.631288  
      19A     -0.615889    20A     -0.561212    21A     -0.554079  
      22A     -0.532094    23A     -0.521114    24A     -0.513353  
      25A     -0.477238    26A     -0.468970    27A     -0.461654  
      28A     -0.411282  

    Virtual:                                                              

      29A      0.136235    30A      0.157539    31A      0.170527  
      32A      0.183587    33A      0.193227    34A      0.204589  
      35A      0.212203    36A      0.228237    37A      0.238701  
      38A      0.253980    39A      0.258127    40A      0.270746  
      41A      0.325643    42A      0.342706    43A      0.377212  
      44A      0.379833    45A      0.390466    46A      0.404647  
      47A      0.413918    48A      0.421006    49A      0.441687  
      50A      0.455726    51A      0.486197    52A      0.508504  
      53A      0.537833    54A      0.561338    55A      0.581457  
      56A      0.585522    57A      0.603632    58A      0.611122  
      59A      0.618643    60A      0.622055    61A      0.628095  
      62A      0.631640    63A      0.637499    64A      0.656737  
      65A      0.663600    66A      0.673392    67A      0.678416  
      68A      0.690026    69A      0.698913    70A      0.723055  
      71A      0.735210    72A      0.747417    73A      0.787878  
      74A      0.808569    75A      0.833047    76A      0.850747  
      77A      0.863184    78A      0.884997    79A      0.914858  
      80A      0.924264    81A      0.950420    82A      0.977579  
      83A      0.983373    84A      1.033731    85A      1.047366  
      86A      1.058161    87A      1.068230    88A      1.083972  
      89A      1.117136    90A      1.123856    91A      1.147460  
      92A      1.159510    93A      1.187150    94A      1.190558  
      95A      1.204164    96A      1.220995    97A      1.234685  
      98A      1.257373    99A      1.266386   100A      1.287789  
     101A      1.294418   102A      1.297534   103A      1.317895  
     104A      1.335182   105A      1.341466   106A      1.357808  
     107A      1.376654   108A      1.398655   109A      1.409027  
     110A      1.422428   111A      1.439425   112A      1.443261  
     113A      1.474086   114A      1.487340   115A      1.493972  
     116A      1.500977   117A      1.521601   118A      1.539968  
     119A      1.544107   120A      1.559636   121A      1.565344  
     122A      1.595814   123A      1.608750   124A      1.634097  
     125A      1.664076   126A      1.681229   127A      1.694747  
     128A      1.731092   129A      1.760022   130A      1.767745  
     131A      1.788377   132A      1.810240   133A      1.840900  
     134A      1.871713   135A      1.882433   136A      1.897743  
     137A      1.950126   138A      2.035504   139A      2.054831  
     140A      2.150945   141A      2.212476   142A      2.267596  
     143A      2.305254   144A      2.331213   145A      2.341979  
     146A      2.463028   147A      2.468386   148A      2.512764  
     149A      2.528005   150A      2.566203   151A      2.596489  
     152A      2.608546   153A      2.651940   154A      2.679325  
     155A      2.709610   156A      2.719471   157A      2.771200  
     158A      2.810567   159A      2.818309   160A      2.842295  
     161A      2.852331   162A      2.892074   163A      2.902614  
     164A      2.916365   165A      2.944844   166A      2.957621  
     167A      2.991314   168A      3.009487   169A      3.021410  
     170A      3.032506   171A      3.052936   172A      3.062830  
     173A      3.107724   174A      3.115447   175A      3.132560  
     176A      3.144635   177A      3.158096   178A      3.179587  
     179A      3.207001   180A      3.211820   181A      3.230947  
     182A      3.251868   183A      3.273822   184A      3.275616  
     185A      3.292582   186A      3.310550   187A      3.337873  
     188A      3.338829   189A      3.350659   190A      3.380214  
     191A      3.392080   192A      3.410037   193A      3.421440  
     194A      3.437859   195A      3.457871   196A      3.459593  
     197A      3.478436   198A      3.479770   199A      3.493132  
     200A      3.513653   201A      3.528110   202A      3.545643  
     203A      3.570379   204A      3.597418   205A      3.609748  
     206A      3.619862   207A      3.630703   208A      3.661260  
     209A      3.681493   210A      3.712551   211A      3.736505  
     212A      3.740829   213A      3.744244   214A      3.759716  
     215A      3.769806   216A      3.794634   217A      3.818830  
     218A      3.823679   219A      3.849744   220A      3.858587  
     221A      3.868230   222A      3.883590   223A      3.896115  
     224A      3.925612   225A      3.938151   226A      3.944710  
     227A      3.987703   228A      4.016595   229A      4.018433  
     230A      4.072018   231A      4.082152   232A      4.092927  
     233A      4.096730   234A      4.122181   235A      4.138019  
     236A      4.151571   237A      4.184435   238A      4.194948  
     239A      4.206964   240A      4.218314   241A      4.220862  
     242A      4.245001   243A      4.263550   244A      4.293525  
     245A      4.300401   246A      4.326113   247A      4.352230  
     248A      4.355827   249A      4.384810   250A      4.390555  
     251A      4.400124   252A      4.413109   253A      4.422640  
     254A      4.439191   255A      4.465567   256A      4.487863  
     257A      4.496268   258A      4.525772   259A      4.550038  
     260A      4.587655   261A      4.594660   262A      4.607976  
     263A      4.632647   264A      4.643346   265A      4.660800  
     266A      4.673527   267A      4.693906   268A      4.711256  
     269A      4.743251   270A      4.775237   271A      4.787387  
     272A      4.837151   273A      4.898933   274A      4.921186  
     275A      4.930401   276A      4.963307   277A      5.052949  
     278A      5.073541   279A      5.081051   280A      5.116992  
     281A      5.138776   282A      5.157352   283A      5.224723  
     284A      5.233258   285A      5.274987   286A      5.286216  
     287A      5.304172   288A      5.311971   289A      5.326508  
     290A      5.340183   291A      5.362822   292A      5.410582  
     293A      5.430590   294A      5.475107   295A      5.494673  
     296A      5.510318   297A      5.558031   298A      5.576482  
     299A      5.601713   300A      5.616305   301A      5.631656  
     302A      5.672930   303A      5.676585   304A      5.704281  
     305A      5.737889   306A      5.758241   307A      5.774143  
     308A      5.786187   309A      5.807676   310A      5.849386  
     311A      5.864697   312A      5.898692   313A      5.907994  
     314A      5.926822   315A      5.987621   316A      6.025828  
     317A      6.061229   318A      6.111238   319A      6.188104  
     320A      6.188381   321A      6.288034   322A      6.294132  
     323A      6.337674   324A      6.362753   325A      6.450122  
     326A      6.465383   327A      6.597855   328A      6.615672  
     329A      6.707739   330A      6.857126   331A      6.878984  
     332A      6.899481   333A      7.007693   334A      7.248758  
     335A      7.258390   336A      7.307444   337A      7.386155  
     338A      7.485996   339A      7.526044   340A      7.646437  
     341A      7.740324   342A      7.930091   343A      8.005916  
     344A     10.066670   345A     12.190301   346A     12.798125  
     347A     13.970137   348A     14.156735   349A     14.345232  
     350A     14.755701  

    Final Occupation by Irrep:
              A 
    DOCC [    28 ]

  Energy converged.

  @DF-RHF Final Energy:  -345.00738388456494

   => Energetics <=

    Nuclear Repulsion Energy =            324.6655653147071803
    One-Electron Energy =               -1113.9648615920827979
    Two-Electron Energy =                 444.2919123928105591
    DFT Exchange-Correlation Energy =       0.0000000000000000
    Empirical Dispersion Energy =           0.0000000000000000
    PCM Polarization Energy =               0.0000000000000000
    EFP Energy =                            0.0000000000000000
    Total Energy =                       -345.0073838845650016


  Saving occupied orbitals to File 180.

*** tstop() called on cx1-27-3-2 at Sat Sep 10 17:28:48 2016
Module time:
	user time   =      30.95 seconds =       0.52 minutes
	system time =       0.69 seconds =       0.01 minutes
	total time  =          9 seconds =       0.15 minutes
Total time:
	user time   =      30.95 seconds =       0.52 minutes
	system time =       0.69 seconds =       0.01 minutes
	total time  =          9 seconds =       0.15 minutes


Properties will be evaluated at   0.000000,   0.000000,   0.000000 Bohr

Properties computed using the SCF density matrix

  Nuclear Dipole Moment: (a.u.)
     X:    -3.7271      Y:     0.9166      Z:     0.9204

  Electronic Dipole Moment: (a.u.)
     X:     3.9893      Y:    -1.6444      Z:    -0.9820

  Dipole Moment: (a.u.)
     X:     0.2622      Y:    -0.7278      Z:    -0.0616     Total:     0.7761

  Dipole Moment: (Debye)
     X:     0.6663      Y:    -1.8499      Z:    -0.1567     Total:     1.9725


*** tstart() called on cx1-27-3-2
*** at Sat Sep 10 17:28:48 2016


         ------------------------------------------------------------
                                   SCF GRAD                          
                          Rob Parrish, Justin Turney,                
                       Andy Simmonett, and Alex Sokolov              
         ------------------------------------------------------------

  ==> Geometry <==

    Molecular point group: c1
    Full point group: C1

    Geometry (in Angstrom), charge = 0, multiplicity = 1:

       Center              X                  Y                   Z               Mass       
    ------------   -----------------  -----------------  -----------------  -----------------
           O          0.500730074512     1.000448319632    -0.093501899115    15.994914619560
           C          0.327599074512    -0.170441680368    -0.096941899115    12.000000000000
           C         -1.014555925488    -0.855650680368    -0.095193899115    12.000000000000
           O          1.315916074512    -1.049754680368    -0.093672899115    15.994914619560
           C         -2.194425925488     0.105909319632    -0.092438899115    12.000000000000
           H         -1.043228925488    -1.508934680368    -0.961186899115     1.007825032070
           H         -1.040454925488    -1.510571680368     0.769659100885     1.007825032070
           C         -1.840793925488     1.446712319632     0.541686100885    12.000000000000
           H         -3.023097925488    -0.346862680368     0.438309100885     1.007825032070
           H         -2.534823925488     0.256634319632    -1.109684899115     1.007825032070
           H         -1.526512925488     1.324958319632     1.573050100885     1.007825032070
           H         -2.693534925488     2.114717319632     0.533645100885     1.007825032070
           H         -1.033281925488     1.935741319632     0.006799100885     1.007825032070
           C          2.635439074512    -0.542943680368    -0.090158899115    12.000000000000
           H          2.815250074512     0.057671319632    -0.969353899115     1.007825032070
           H          3.284155074512    -1.403671680368    -0.088083899115     1.007825032070
           H          2.810465074512     0.058289319632     0.789572100885     1.007825032070

  Nuclear repulsion =  324.665565314707180

  ==> Basis Set <==

  Basis Set: CC-PVTZ
    Number of shells: 130
    Number of basis function: 350
    Number of Cartesian functions: 395
    Spherical Harmonics?: true
    Max angular momentum: 3

  ==> DFJKGrad: Density-Fitted SCF Gradients <==

    Gradient:                    1
    J tasked:                  Yes
    K tasked:                  Yes
    wK tasked:                  No
    OpenMP threads:              4
    Integrals threads:           4
    Memory (MB):              1430
    Schwarz Cutoff:          0E+00
    Fitting Condition:       1E-12

   => Auxiliary Basis Set <=

  Basis Set: 
    Number of shells: 275
    Number of basis function: 853
    Number of Cartesian functions: 1022
    Spherical Harmonics?: true
    Max angular momentum: 4


  -Total Gradient:
     Atom            X                  Y                   Z
    ------   -----------------  -----------------  -----------------
       1       -0.037727738525     0.016497892861     0.008877304116
       2       -0.004081347401     0.004378251362     0.001488807465
       3       -0.001058515814     0.005318051915     0.000775783096
       4        0.000561369417    -0.000560206965    -0.000275307872
       5       -0.000143445552    -0.006738494890     0.000083217632
       6       -0.001205135441     0.000777566731    -0.001779319391
       7       -0.002276824538    -0.001021601232    -0.000034645291
       8        0.016907043391    -0.020862387923     0.002065532225
       9        0.000080855446     0.001206157902     0.000396052483
      10       -0.000298009589    -0.002228196353     0.000774652923
      11       -0.000103826661    -0.000191609637    -0.000097920174
      12        0.006114147707     0.003026362479    -0.002942770578
      13        0.023422747129     0.000302158910    -0.009308282358
      14       -0.000030915783     0.000113322358    -0.000024892871
      15       -0.000041228158    -0.000004383374     0.000029560269
      16       -0.000044383704    -0.000032762753    -0.000004326302
      17       -0.000074791924     0.000019878611    -0.000023445373


*** tstop() called on cx1-27-3-2 at Sat Sep 10 17:28:56 2016
Module time:
	user time   =      30.59 seconds =       0.51 minutes
	system time =       0.59 seconds =       0.01 minutes
	total time  =          8 seconds =       0.13 minutes
Total time:
	user time   =      61.63 seconds =       1.03 minutes
	system time =       1.28 seconds =       0.02 minutes
	total time  =         17 seconds =       0.28 minutes

			-----------------------------------------
			 OPTKING 2.0: for geometry optimizations 
			  - R.A. King,  Bethel University        
			-----------------------------------------

	Internal coordinates to be generated automatically.
	Detected frag 1 with atoms:  1 2 3 4 5 6 7 8 9 10 11 12 13 14 15 16 17
	---Fragment 1 Bond Connectivity---
	 1 : 2
	 2 : 1 3 4
	 3 : 2 5 6 7
	 4 : 2 14
	 5 : 3 8 9 10
	 6 : 3
	 7 : 3
	 8 : 5 11 12 13
	 9 : 5
	 10 : 5
	 11 : 8
	 12 : 8
	 13 : 8
	 14 : 4 15 16 17
	 15 : 14
	 16 : 14
	 17 : 14

	Assuming in current code that numbering for constraints corresponds to unified fragment.
	Frozen dihedral atom list: 
	     9     5     3     6
	---Fragment 1 Geometry and Gradient---
	 O           0.9462427073        1.8905733342       -0.1766929822
	 C           0.6190725322       -0.3220880975       -0.1831936401
	 C          -1.9172328457       -1.6169454513       -0.1798903988
	 O           2.4867209947       -1.9837488526       -0.1770161254
	 C          -4.1468640181        0.2001396090       -0.1746842034
	 H          -1.9714169631       -2.8514732983       -1.8163800018
	 H          -1.9661748628       -2.8545667800        1.4544449164
	 C          -3.4785963863        2.7338900772        1.0236383807
	 H          -5.7128271521       -0.6554754716        0.8282841622
	 H          -4.7901230143        0.4849685804       -2.0970005531
	 H          -2.8846913675        2.5038083616        2.9726338840
	 H          -5.0900433385        3.9962365826        1.0084430928
	 H          -1.9526198572        3.6580209582        0.0128484386
	 C           4.9802580907       -1.0260148615       -0.1703756278
	 H           5.3200516364        0.1089829998       -1.8318133952
	 H           6.2061536688       -2.6525550564       -0.1664544460
	 H           5.3110092969        0.1101508506        1.4920750328
	            -0.0377277385        0.0164978929        0.0088773041
	            -0.0040813474        0.0043782514        0.0014888075
	            -0.0010585158        0.0053180519        0.0007757831
	             0.0005613694       -0.0005602070       -0.0002753079
	            -0.0001434456       -0.0067384949        0.0000832176
	            -0.0012051354        0.0007775667       -0.0017793194
	            -0.0022768245       -0.0010216012       -0.0000346453
	             0.0169070434       -0.0208623879        0.0020655322
	             0.0000808554        0.0012061579        0.0003960525
	            -0.0002980096       -0.0022281964        0.0007746529
	            -0.0001038267       -0.0001916096       -0.0000979202
	             0.0061141477        0.0030263625       -0.0029427706
	             0.0234227471        0.0003021589       -0.0093082824
	            -0.0000309158        0.0001133224       -0.0000248929
	            -0.0000412282       -0.0000043834        0.0000295603
	            -0.0000443837       -0.0000327628       -0.0000043263
	            -0.0000747919        0.0000198786       -0.0000234454

	Previous optimization step data not found.  Starting new optimization.

	---Fragment 1 Intrafragment Coordinates---
	 - Coordinate -           - BOHR/RAD -       - ANG/DEG -
	 R(1,2)           =         2.236728	       1.183626
	 R(2,3)           =         2.847720	       1.506949
	 R(2,4)           =         2.499853	       1.322865
	 R(3,5)           =         2.876296	       1.522070
	 R(3,6)           =         2.050632	       1.085148
	 R(3,7)           =         2.050647	       1.085156
	 R(4,14)          =         2.671147	       1.413510
	 R(5,8)           =         2.881397	       1.524770
	 R(5,9)           =         2.047013	       1.083233
	 R(5,10)          =         2.047000	       1.083226
	 R(8,11)          =         2.050425	       1.085038
	 R(8,12)          =         2.047074	       1.083265
	 R(8,13)          =         2.050444	       1.085048
	 R(14,15)         =         2.040602	       1.079840
	 R(14,16)         =         2.036779	       1.077817
	 R(14,17)         =         2.040591	       1.079834
	 B(1,2,3)         =         2.189623	     125.456158
	 B(1,2,4)         =         2.151083	     123.247996
	 B(2,3,5)         =         1.985755	     113.775405
	 B(2,3,6)         =         1.871662	     107.238359
	 B(2,3,7)         =         1.871932	     107.253788
	 B(2,4,14)        =         2.047784	     117.329377
	 B(3,2,4)         =         1.942453	     111.294384
	 B(3,5,8)         =         1.956805	     112.116678
	 B(3,5,9)         =         1.906927	     109.258848
	 B(3,5,10)        =         1.906886	     109.256547
	 B(4,14,15)       =         1.931409	     110.661565
	 B(4,14,16)       =         1.849941	     105.993804
	 B(4,14,17)       =         1.931537	     110.668907
	 B(5,3,6)         =         1.940444	     111.179245
	 B(5,3,7)         =         1.940492	     111.182007
	 B(5,8,11)        =         1.943155	     111.334584
	 B(5,8,12)        =         1.935423	     110.891571
	 B(5,8,13)        =         1.943257	     111.340448
	 B(6,3,7)         =         1.846329	     105.786843
	 B(8,5,9)         =         1.918995	     109.950334
	 B(8,5,10)        =         1.918857	     109.942414
	 B(9,5,10)        =         1.852389	     106.134054
	 B(11,8,12)       =         1.879961	     107.713828
	 B(11,8,13)       =         1.879252	     107.673180
	 B(12,8,13)       =         1.879956	     107.713562
	 B(15,14,16)      =         1.923593	     110.213747
	 B(15,14,17)      =         1.903539	     109.064756
	 B(16,14,17)      =         1.923582	     110.213138
	 D(1,2,3,5)       =         0.002927	       0.167714
	 D(1,2,3,6)       =         2.156151	     123.538353
	 D(1,2,3,7)       =        -2.150555	    -123.217750
	 D(1,2,4,14)      =        -0.003574	      -0.204773
	 D(2,3,5,8)       =        -0.465198	     -26.653854
	 D(2,3,5,9)       =        -2.597107	    -148.803287
	 D(2,3,5,10)      =         1.666509	      95.483915
	 D(2,4,14,15)     =        -1.055937	     -60.500726
	 D(2,4,14,16)     =        -3.141386	    -179.988154
	 D(2,4,14,17)     =         1.056294	      60.521162
	 D(3,2,4,14)      =        -3.137863	    -179.786318
	 D(3,5,8,11)      =        -1.048262	     -60.060961
	 D(3,5,8,12)      =        -3.141174	    -179.976008
	 D(3,5,8,13)      =         1.049037	      60.105381
	 D(4,2,3,5)       =         3.137021	     179.738087
	 D(4,2,3,6)       =        -0.992940	     -56.891274
	 D(4,2,3,7)       =         0.983539	      56.352624
	 D(6,3,5,8)       =        -2.580480	    -147.850592
	*D(6,3,5,9)       =         1.570796	      89.999976
	 D(6,3,5,10)      =        -0.448773	     -25.712823
	 D(7,3,5,8)       =         1.650473	      94.565145
	 D(7,3,5,9)       =        -0.481437	     -27.584287
	 D(7,3,5,10)      =        -2.501006	    -143.297086
	 D(9,5,8,11)      =         1.076756	      61.693586
	 D(9,5,8,12)      =        -1.016156	     -58.221460
	 D(9,5,8,13)      =        -3.109131	    -178.140072
	 D(10,5,8,11)     =         3.110054	     178.192989
	 D(10,5,8,12)     =         1.017142	      58.277942
	 D(10,5,8,13)     =        -1.075833	     -61.640669
	 R(1,8)           =         4.661671	       2.466850

	Current energy   :      -345.0073838846

	Generating empirical Hessian (Schlegel '84) for each fragment.
	Taking RFO optimization step.
	Going to follow RFO solution 1.
	Using RFO vector 1.

	Determining step-restricting scale parameter for RS-RFO.
	Maximum step size allowed    0.50000

	 Iter      |step|        alpha        rfo_root  
	------------------------------------------------
	    0     0.66556       1.00000           1
	    1     0.54804       1.69848           1
	    2     0.50603       2.09255           1
	    3     0.50012       2.15708           1
	    4     0.50000       2.15837           1
	------------------------------------------------
	Norm of target step-size    0.50000
	Projected energy change by RFO approximation:        -0.0256026710

	Back-transformation to cartesian coordinates...
	Could not converge backtransformation.
	Using first guess instead.

	Back-transformation to cartesian coordinates to adjust frozen coordinates...
	Successfully converged to displaced geometry.

	--- Internal Coordinate Step in ANG or DEG, aJ/ANG or AJ/DEG ---
	 ---------------------------------------------------------------------------
	   Coordinate                Previous        Force       Change         New 
	   ----------                --------       ------       ------       ------
	    1 R(1,2)          =      1.183626    -0.072896    -0.003192     1.180434
	    2 R(2,3)          =      1.506949    -0.077000    -0.007995     1.498954
	    3 R(2,4)          =      1.322865    -0.004813     0.000208     1.323073
	    4 R(3,5)          =      1.522070     0.086964     0.020071     1.542142
	    5 R(3,6)          =      1.085148    -0.008104    -0.001081     1.084067
	    6 R(3,7)          =      1.085156    -0.005300    -0.000542     1.084614
	    7 R(4,14)         =      1.413510     0.001188     0.000855     1.414365
	    8 R(5,8)          =      1.524770     0.056738     0.019435     1.544204
	    9 R(5,9)          =      1.083233     0.003064     0.003994     1.087227
	   10 R(5,10)         =      1.083226     0.007776     0.002124     1.085350
	   11 R(8,11)         =      1.085038     0.000837     0.001912     1.086950
	   12 R(8,12)         =      1.083265     0.024098     0.022371     1.105636
	   13 R(8,13)         =      1.085048    -0.182541    -0.009000     1.076048
	   14 R(14,15)        =      1.079840     0.000275     0.000434     1.080274
	   15 R(14,16)        =      1.077817     0.000005     0.000639     1.078456
	   16 R(14,17)        =      1.079834     0.000166     0.000556     1.080390
	   17 B(1,2,3)        =    125.456158    -0.000795    -0.945328   124.510830
	   18 B(1,2,4)        =    123.247996     0.000404     0.480862   123.728858
	   19 B(2,3,5)        =    113.775405     0.000304     2.838578   116.613982
	   20 B(2,3,6)        =    107.238359    -0.000070    -0.812327   106.426031
	   21 B(2,3,7)        =    107.253788    -0.000348    -1.871922   105.381866
	   22 B(2,4,14)       =    117.329377     0.000034     0.066338   117.395715
	   23 B(3,2,4)        =    111.294384     0.000389     0.447514   111.741898
	   24 B(3,5,8)        =    112.116678     0.001664     5.856923   117.973600
	   25 B(3,5,9)        =    109.258848    -0.000873    -3.435925   105.822923
	   26 B(3,5,10)       =    109.256547    -0.000105     0.453681   109.710228
	   27 B(4,14,15)      =    110.661565     0.000002    -0.010880   110.650686
	   28 B(4,14,16)      =    105.993804     0.000003    -0.005213   105.988591
	   29 B(4,14,17)      =    110.668907     0.000006     0.057608   110.726515
	   30 B(5,3,6)        =    111.179245    -0.000017    -0.205525   110.973719
	   31 B(5,3,7)        =    111.182007     0.000065    -0.235919   110.946088
	   32 B(5,8,11)       =    111.334584     0.000020    -0.029795   111.304790
	   33 B(5,8,12)       =    110.891571    -0.000713    -2.860527   108.031044
	   34 B(5,8,13)       =    111.340448     0.000893     3.938006   115.278454
	   35 B(6,3,7)        =    105.786843     0.000034     0.004990   105.791834
	   36 B(8,5,9)        =    109.950334    -0.000336    -1.247923   108.702412
	   37 B(8,5,10)       =    109.942414    -0.000740    -2.308794   107.633620
	   38 B(9,5,10)       =    106.134054     0.000309     0.302330   106.436384
	   39 B(11,8,12)      =    107.713828     0.000072    -0.166110   107.547718
	   40 B(11,8,13)      =    107.673180    -0.000095     0.018288   107.691468
	   41 B(12,8,13)      =    107.713562    -0.000191    -1.075430   106.638132
	   42 B(15,14,16)     =    110.213747    -0.000004     0.019079   110.232826
	   43 B(15,14,17)     =    109.064756    -0.000001    -0.025747   109.039009
	   44 B(16,14,17)     =    110.213138    -0.000006    -0.033989   110.179149
	   45 D(1,2,3,5)      =      0.167714     0.000026     0.815586     0.983300
	   46 D(1,2,3,6)      =    123.538353     0.000055     1.855247   125.393600
	   47 D(1,2,3,7)      =   -123.217750     0.000019     0.658381  -122.559369
	   48 D(1,2,4,14)     =     -0.204773    -0.000016    -0.533445    -0.738218
	   49 D(2,3,5,8)      =    -26.653854     0.000043     0.577286   -26.076569
	   50 D(2,3,5,9)      =   -148.803287     0.000026     0.863525  -147.939762
	   51 D(2,3,5,10)     =     95.483915     0.000066     2.124521    97.608436
	   52 D(2,4,14,15)    =    -60.500726    -0.000000     0.023145   -60.477580
	   53 D(2,4,14,16)    =   -179.988154     0.000000     0.009284  -179.978870
	   54 D(2,4,14,17)    =     60.521162     0.000001     0.021870    60.543032
	   55 D(3,2,4,14)     =   -179.786318     0.000017     0.548321  -179.237998
	   56 D(3,5,8,11)     =    -60.060961     0.000044     2.552406   -57.508556
	   57 D(3,5,8,12)     =   -179.976008     0.000129     4.609872  -175.366136
	   58 D(3,5,8,13)     =     60.105381     0.000158     5.403026    65.508406
	   59 D(4,2,3,5)      =    179.738087    -0.000006    -0.268949   179.469138
	   60 D(4,2,3,6)      =    -56.891274     0.000023     0.770712   -56.120562
	   61 D(4,2,3,7)      =     56.352624    -0.000013    -0.426154    55.926469
	   62 D(6,3,5,8)      =   -147.850592     0.000017    -0.286239  -148.136831
	   63 *D(6,3,5,9)     =     89.999976     0.000000     0.000000    89.999976
	   64 D(6,3,5,10)     =    -25.712823     0.000040     1.260996   -24.451826
	   65 D(7,3,5,8)      =     94.565145     0.000000    -0.012464    94.552681
	   66 D(7,3,5,9)      =    -27.584287    -0.000017     0.273775   -27.310513
	   67 D(7,3,5,10)     =   -143.297086     0.000023     1.534771  -141.762315
	   68 D(9,5,8,11)     =     61.693586    -0.000007     1.178780    62.872367
	   69 D(9,5,8,12)     =    -58.221460     0.000079     3.236247   -54.985213
	   70 D(9,5,8,13)     =   -178.140072     0.000108     4.029400  -174.110671
	   71 D(10,5,8,11)    =    178.192989    -0.000065    -0.419190   177.773799
	   72 D(10,5,8,12)    =     58.277942     0.000020     1.638276    59.916219
	   73 D(10,5,8,13)    =    -61.640669     0.000049     2.431430   -59.209239
	   74 R(1,8)          =      2.466850     0.399116     0.228899     2.695749
	 ---------------------------------------------------------------------------
	Successfully symmetrized geometry.

  ==> Convergence Check <==

  Measures of convergence in internal coordinates in au.
  Criteria marked as inactive (o), active & met (*), and active & unmet ( ).
  --------------------------------------------------------------------------------------------- ~
   Step     Total Energy     Delta E     MAX Force     RMS Force      MAX Disp      RMS Disp    ~
  --------------------------------------------------------------------------------------------- ~
    Convergence Criteria    1.00e-06 *    3.00e-04 *             o    1.20e-03 *             o  ~
  --------------------------------------------------------------------------------------------- ~
      1    -345.00738388   -3.45e+02      4.84e-02      7.91e-03 o    4.33e-01      5.85e-02 o  ~
  ---------------------------------------------------------------------------------------------

	Writing optimization data to binary file.
	Structure for next step:
	Cartesian Geometry (in Angstrom)
	    O     0.6028807600   0.9663121430  -0.0548306694
	    C     0.3984845971  -0.1951481650  -0.1063672541
	    C    -0.9650083806  -0.8176697327  -0.1210501528
	    O     1.3548252885  -1.1092335801  -0.1259457789
	    C    -2.1661616115   0.1489322094  -0.0876965439
	    H    -1.0024811588  -1.4530280776  -0.9986126434
	    H    -0.9838922330  -1.4891273289   0.7305222107
	    C    -1.9601842795   1.5383708309   0.5538646205
	    H    -2.9512717820  -0.3724317475   0.4543776670
	    H    -2.5393358145   0.3039672165  -1.0950143346
	    H    -1.6222542175   1.4518424776   1.5833190627
	    H    -2.9361178402   2.0578312315   0.5659209190
	    H    -1.2729987907   2.1856323127   0.0374276576
	    C     2.6929117279  -0.6518667183  -0.0982287128
	    H     2.9007191513  -0.0296752562  -0.9565326533
	    H     3.3096633883  -1.5362789708  -0.1205980283
	    H     2.8850644618  -0.0861784108   0.8019473489
			--------------------------
			 OPTKING Finished Execution 
			--------------------------

    Structure for next step:
    Molecular point group: c1
    Full point group: C1

    Geometry (in Angstrom), charge = 0, multiplicity = 1:

    O            0.572822638028     0.975854419910    -0.052923740578
    C            0.368426475126    -0.185605888105    -0.104460325292
    C           -0.995066502568    -0.808127455768    -0.119143224055
    O            1.324767166459    -1.099691303133    -0.124038850123
    C           -2.196219733456     0.158474486375    -0.085789615097
    H           -1.032539280833    -1.443485800698    -0.996705714584
    H           -1.013950355027    -1.479585051982     0.732429139448
    C           -1.990242401459     1.547913107865     0.555771549257
    H           -2.981329904037    -0.362889470598     0.456284595825
    H           -2.569393936466     0.313509493421    -1.093107405769
    H           -1.652312339524     1.461384754523     1.585225991454
    H           -2.966175962214     2.067373508379     0.567827847827
    H           -1.303056912704     2.195174589653     0.039334586365
    C            2.662853605924    -0.642324441356    -0.096321783994
    H            2.870661029298    -0.020132979263    -0.954625724521
    H            3.279605266313    -1.526736693865    -0.118691099543
    H            2.855006339789    -0.076636133859     0.803854277698

gradient() will perform analytic gradient computation.

*** tstart() called on cx1-27-3-2
*** at Sat Sep 10 17:28:57 2016


         ---------------------------------------------------------
                                   SCF
            by Justin Turney, Rob Parrish, and Andy Simmonett
                              RHF Reference
                        4 Threads,   2000 MiB Core
         ---------------------------------------------------------

  ==> Geometry <==

    Molecular point group: c1
    Full point group: C1

    Geometry (in Angstrom), charge = 0, multiplicity = 1:

       Center              X                  Y                   Z               Mass       
    ------------   -----------------  -----------------  -----------------  -----------------
           O          0.572822638028     0.975854419910    -0.052923740578    15.994914619560
           C          0.368426475126    -0.185605888105    -0.104460325292    12.000000000000
           C         -0.995066502568    -0.808127455768    -0.119143224055    12.000000000000
           O          1.324767166459    -1.099691303133    -0.124038850123    15.994914619560
           C         -2.196219733456     0.158474486375    -0.085789615097    12.000000000000
           H         -1.032539280833    -1.443485800698    -0.996705714584     1.007825032070
           H         -1.013950355027    -1.479585051982     0.732429139448     1.007825032070
           C         -1.990242401459     1.547913107865     0.555771549257    12.000000000000
           H         -2.981329904037    -0.362889470598     0.456284595825     1.007825032070
           H         -2.569393936466     0.313509493421    -1.093107405769     1.007825032070
           H         -1.652312339524     1.461384754523     1.585225991454     1.007825032070
           H         -2.966175962214     2.067373508379     0.567827847827     1.007825032070
           H         -1.303056912704     2.195174589653     0.039334586365     1.007825032070
           C          2.662853605924    -0.642324441356    -0.096321783994    12.000000000000
           H          2.870661029298    -0.020132979263    -0.954625724521     1.007825032070
           H          3.279605266313    -1.526736693865    -0.118691099543     1.007825032070
           H          2.855006339789    -0.076636133859     0.803854277698     1.007825032070

  Running in c1 symmetry.

  Rotational constants: A =      0.22005  B =      0.05040  C =      0.04276 [cm^-1]
  Rotational constants: A =   6596.93864  B =   1510.94677  C =   1281.78612 [MHz]
  Nuclear repulsion =  320.072550418259539

  Charge       = 0
  Multiplicity = 1
  Electrons    = 56
  Nalpha       = 28
  Nbeta        = 28

  ==> Algorithm <==

  SCF Algorithm Type is DF.
  DIIS enabled.
  MOM disabled.
  Fractional occupation disabled.
  Guess Type is READ.
  Energy threshold   = 1.00e-08
  Density threshold  = 1.00e-08
  Integral threshold = 0.00e+00

  ==> Primary Basis <==

  Basis Set: CC-PVTZ
    Number of shells: 130
    Number of basis function: 350
    Number of Cartesian functions: 395
    Spherical Harmonics?: true
    Max angular momentum: 3

  ==> Pre-Iterations <==

   -------------------------------------------------------
    Irrep   Nso     Nmo     Nalpha   Nbeta   Ndocc  Nsocc
   -------------------------------------------------------
     A        350     350       0       0       0       0
   -------------------------------------------------------
    Total     350     350      28      28      28       0
   -------------------------------------------------------

  ==> Integral Setup <==

  ==> DFJK: Density-Fitted J/K Matrices <==

    J tasked:                  Yes
    K tasked:                  Yes
    wK tasked:                  No
    OpenMP threads:              4
    Integrals threads:           4
    Memory (MB):              1430
    Algorithm:                Core
    Integral Cache:           NONE
    Schwarz Cutoff:          1E-12
    Fitting Condition:       1E-12

   => Auxiliary Basis Set <=

  Basis Set: 
    Number of shells: 275
    Number of basis function: 853
    Number of Cartesian functions: 1022
    Spherical Harmonics?: true
    Max angular momentum: 4

  Minimum eigenvalue in the overlap matrix is 3.0694725413E-04.
  Using Symmetric Orthogonalization.
  SCF Guess: Reading in previously saved MOs, projecting if necessary.

  Using orbitals from previous SCF, no projection.
  Recomputing DOCC and SOCC from number of alpha and beta electrons from previous calculation.
              A 
    DOCC [    28 ]

  ==> Iterations <==

                           Total Energy        Delta E     RMS |[F,P]|

   @DF-RHF iter   0:  -345.01176098392341   -3.45012e+02   7.29130e-04 
   @DF-RHF iter   1:  -345.02071500375939   -8.95402e-03   1.20605e-04 
   @DF-RHF iter   2:  -345.02196942922114   -1.25443e-03   4.90352e-05 DIIS
   @DF-RHF iter   3:  -345.02213796503065   -1.68536e-04   2.40809e-05 DIIS
   @DF-RHF iter   4:  -345.02218096160243   -4.29966e-05   6.24195e-06 DIIS
   @DF-RHF iter   5:  -345.02218404939856   -3.08780e-06   1.83666e-06 DIIS
   @DF-RHF iter   6:  -345.02218453349280   -4.84094e-07   5.70530e-07 DIIS
   @DF-RHF iter   7:  -345.02218459104358   -5.75508e-08   1.78592e-07 DIIS
   @DF-RHF iter   8:  -345.02218459727987   -6.23629e-09   5.06689e-08 DIIS
   @DF-RHF iter   9:  -345.02218459772791   -4.48040e-10   1.48894e-08 DIIS
   @DF-RHF iter  10:  -345.02218459776520   -3.72893e-11   4.37767e-09 DIIS

  ==> Post-Iterations <==

    Orbital Energies (a.u.)
    -----------------------

    Doubly Occupied:                                                      

       1A    -20.597457     2A    -20.531877     3A    -11.364483  
       4A    -11.280104     5A    -11.234309     6A    -11.224162  
       7A    -11.198698     8A     -1.473589     9A     -1.369066  
      10A     -1.072370    11A     -0.998473    12A     -0.936013  
      13A     -0.828187    14A     -0.770642    15A     -0.696634  
      16A     -0.686895    17A     -0.671683    18A     -0.629343  
      19A     -0.606863    20A     -0.565639    21A     -0.558127  
      22A     -0.529533    23A     -0.524052    24A     -0.502969  
      25A     -0.478734    26A     -0.467675    27A     -0.461685  
      28A     -0.428885  

    Virtual:                                                              

      29A      0.135138    30A      0.157258    31A      0.173904  
      32A      0.181159    33A      0.196240    34A      0.205416  
      35A      0.211809    36A      0.227407    37A      0.235898  
      38A      0.253687    39A      0.257423    40A      0.260098  
      41A      0.326685    42A      0.337629    43A      0.377061  
      44A      0.380658    45A      0.386548    46A      0.406153  
      47A      0.422743    48A      0.424096    49A      0.435936  
      50A      0.459546    51A      0.474158    52A      0.510144  
      53A      0.528549    54A      0.555312    55A      0.578060  
      56A      0.587702    57A      0.592443    58A      0.610898  
      59A      0.616819    60A      0.619559    61A      0.626998  
      62A      0.629000    63A      0.636241    64A      0.647422  
      65A      0.661913    66A      0.670645    67A      0.676919  
      68A      0.685122    69A      0.691270    70A      0.710405  
      71A      0.727232    72A      0.739528    73A      0.775672  
      74A      0.814013    75A      0.829909    76A      0.847089  
      77A      0.861201    78A      0.886863    79A      0.914546  
      80A      0.922687    81A      0.932451    82A      0.933253  
      83A      0.981478    84A      1.016350    85A      1.028214  
      86A      1.042469    87A      1.069415    88A      1.085398  
      89A      1.103369    90A      1.120366    91A      1.129117  
      92A      1.146957    93A      1.185718    94A      1.190877  
      95A      1.204510    96A      1.221239    97A      1.228126  
      98A      1.251694    99A      1.261456   100A      1.281067  
     101A      1.293896   102A      1.299445   103A      1.307601  
     104A      1.310045   105A      1.329360   106A      1.350591  
     107A      1.376433   108A      1.385643   109A      1.390628  
     110A      1.407645   111A      1.433274   112A      1.447637  
     113A      1.478943   114A      1.480920   115A      1.500192  
     116A      1.504679   117A      1.523185   118A      1.525360  
     119A      1.539745   120A      1.552590   121A      1.559365  
     122A      1.572938   123A      1.600315   124A      1.626884  
     125A      1.646883   126A      1.669641   127A      1.677758  
     128A      1.723109   129A      1.758266   130A      1.766875  
     131A      1.776353   132A      1.795760   133A      1.843733  
     134A      1.864601   135A      1.872505   136A      1.886545  
     137A      1.937009   138A      2.008562   139A      2.040724  
     140A      2.083544   141A      2.147024   142A      2.248400  
     143A      2.307513   144A      2.311235   145A      2.342234  
     146A      2.447944   147A      2.464983   148A      2.506137  
     149A      2.518520   150A      2.573724   151A      2.581667  
     152A      2.609259   153A      2.614976   154A      2.669599  
     155A      2.701322   156A      2.715557   157A      2.753022  
     158A      2.767936   159A      2.820282   160A      2.830178  
     161A      2.839786   162A      2.867507   163A      2.894508  
     164A      2.926927   165A      2.945385   166A      2.951568  
     167A      2.969804   168A      2.988848   169A      3.025130  
     170A      3.029590   171A      3.036204   172A      3.038736  
     173A      3.106332   174A      3.116226   175A      3.120433  
     176A      3.138156   177A      3.140837   178A      3.163678  
     179A      3.188180   180A      3.199719   181A      3.233665  
     182A      3.241713   183A      3.257778   184A      3.275381  
     185A      3.295759   186A      3.309372   187A      3.335059  
     188A      3.335650   189A      3.347022   190A      3.364487  
     191A      3.376382   192A      3.390138   193A      3.399040  
     194A      3.414318   195A      3.437388   196A      3.452610  
     197A      3.464486   198A      3.473025   199A      3.478871  
     200A      3.501268   201A      3.512271   202A      3.524701  
     203A      3.559399   204A      3.580798   205A      3.601646  
     206A      3.616723   207A      3.628978   208A      3.641030  
     209A      3.678588   210A      3.707669   211A      3.718949  
     212A      3.738064   213A      3.743314   214A      3.747973  
     215A      3.767249   216A      3.786601   217A      3.797974  
     218A      3.810456   219A      3.823598   220A      3.836415  
     221A      3.855123   222A      3.873435   223A      3.880737  
     224A      3.899846   225A      3.905110   226A      3.927732  
     227A      3.948644   228A      3.979774   229A      4.000396  
     230A      4.055940   231A      4.071904   232A      4.084896  
     233A      4.095481   234A      4.116616   235A      4.123140  
     236A      4.148331   237A      4.165145   238A      4.169320  
     239A      4.193542   240A      4.202154   241A      4.205625  
     242A      4.217970   243A      4.245975   244A      4.279386  
     245A      4.302045   246A      4.308702   247A      4.329078  
     248A      4.344803   249A      4.366238   250A      4.388305  
     251A      4.395647   252A      4.402678   253A      4.431409  
     254A      4.437339   255A      4.456588   256A      4.464484  
     257A      4.482084   258A      4.521543   259A      4.534889  
     260A      4.559309   261A      4.582636   262A      4.586830  
     263A      4.621944   264A      4.641159   265A      4.645979  
     266A      4.656482   267A      4.673904   268A      4.686891  
     269A      4.724822   270A      4.742557   271A      4.772173  
     272A      4.838079   273A      4.881241   274A      4.902834  
     275A      4.917970   276A      4.943903   277A      4.986136  
     278A      5.048984   279A      5.080602   280A      5.107789  
     281A      5.129213   282A      5.149964   283A      5.193660  
     284A      5.232214   285A      5.240561   286A      5.268896  
     287A      5.284239   288A      5.304554   289A      5.308680  
     290A      5.335426   291A      5.346666   292A      5.402161  
     293A      5.416035   294A      5.460922   295A      5.490055  
     296A      5.493405   297A      5.538253   298A      5.563215  
     299A      5.592791   300A      5.597536   301A      5.609443  
     302A      5.659637   303A      5.666744   304A      5.689278  
     305A      5.709158   306A      5.716183   307A      5.737777  
     308A      5.763452   309A      5.790492   310A      5.808093  
     311A      5.863212   312A      5.882062   313A      5.897280  
     314A      5.914861   315A      5.949540   316A      6.021529  
     317A      6.042749   318A      6.074096   319A      6.179336  
     320A      6.189726   321A      6.246391   322A      6.281155  
     323A      6.331873   324A      6.341278   325A      6.377800  
     326A      6.443755   327A      6.602298   328A      6.614207  
     329A      6.704435   330A      6.855620   331A      6.880842  
     332A      6.904835   333A      6.965580   334A      7.122643  
     335A      7.247353   336A      7.257121   337A      7.382166  
     338A      7.488494   339A      7.529302   340A      7.592338  
     341A      7.718529   342A      7.916785   343A      7.989630  
     344A      9.991366   345A     12.135365   346A     12.736013  
     347A     13.826764   348A     14.070964   349A     14.164357  
     350A     14.790522  

    Final Occupation by Irrep:
              A 
    DOCC [    28 ]

  Energy converged.

  @DF-RHF Final Energy:  -345.02218459776520

   => Energetics <=

    Nuclear Repulsion Energy =            320.0725504182595387
    One-Electron Energy =               -1104.8131818837268838
    Two-Electron Energy =                 439.7184468677023688
    DFT Exchange-Correlation Energy =       0.0000000000000000
    Empirical Dispersion Energy =           0.0000000000000000
    PCM Polarization Energy =               0.0000000000000000
    EFP Energy =                            0.0000000000000000
    Total Energy =                       -345.0221845977649764


  Saving occupied orbitals to File 180.

*** tstop() called on cx1-27-3-2 at Sat Sep 10 17:29:05 2016
Module time:
	user time   =      27.22 seconds =       0.45 minutes
	system time =       0.51 seconds =       0.01 minutes
	total time  =          8 seconds =       0.13 minutes
Total time:
	user time   =      91.04 seconds =       1.52 minutes
	system time =       1.86 seconds =       0.03 minutes
	total time  =         26 seconds =       0.43 minutes


Properties will be evaluated at   0.000000,   0.000000,   0.000000 Bohr

Properties computed using the SCF density matrix

  Nuclear Dipole Moment: (a.u.)
     X:    -4.2221      Y:     1.0568      Z:     0.9571

  Electronic Dipole Moment: (a.u.)
     X:     4.3796      Y:    -1.7688      Z:    -1.0112

  Dipole Moment: (a.u.)
     X:     0.1575      Y:    -0.7119      Z:    -0.0542     Total:     0.7311

  Dipole Moment: (Debye)
     X:     0.4003      Y:    -1.8095      Z:    -0.1377     Total:     1.8584


*** tstart() called on cx1-27-3-2
*** at Sat Sep 10 17:29:05 2016


         ------------------------------------------------------------
                                   SCF GRAD                          
                          Rob Parrish, Justin Turney,                
                       Andy Simmonett, and Alex Sokolov              
         ------------------------------------------------------------

  ==> Geometry <==

    Molecular point group: c1
    Full point group: C1

    Geometry (in Angstrom), charge = 0, multiplicity = 1:

       Center              X                  Y                   Z               Mass       
    ------------   -----------------  -----------------  -----------------  -----------------
           O          0.572822638028     0.975854419910    -0.052923740578    15.994914619560
           C          0.368426475126    -0.185605888105    -0.104460325292    12.000000000000
           C         -0.995066502568    -0.808127455768    -0.119143224055    12.000000000000
           O          1.324767166459    -1.099691303133    -0.124038850123    15.994914619560
           C         -2.196219733456     0.158474486375    -0.085789615097    12.000000000000
           H         -1.032539280833    -1.443485800698    -0.996705714584     1.007825032070
           H         -1.013950355027    -1.479585051982     0.732429139448     1.007825032070
           C         -1.990242401459     1.547913107865     0.555771549257    12.000000000000
           H         -2.981329904037    -0.362889470598     0.456284595825     1.007825032070
           H         -2.569393936466     0.313509493421    -1.093107405769     1.007825032070
           H         -1.652312339524     1.461384754523     1.585225991454     1.007825032070
           H         -2.966175962214     2.067373508379     0.567827847827     1.007825032070
           H         -1.303056912704     2.195174589653     0.039334586365     1.007825032070
           C          2.662853605924    -0.642324441356    -0.096321783994    12.000000000000
           H          2.870661029298    -0.020132979263    -0.954625724521     1.007825032070
           H          3.279605266313    -1.526736693865    -0.118691099543     1.007825032070
           H          2.855006339789    -0.076636133859     0.803854277698     1.007825032070

  Nuclear repulsion =  320.072550418259539

  ==> Basis Set <==

  Basis Set: CC-PVTZ
    Number of shells: 130
    Number of basis function: 350
    Number of Cartesian functions: 395
    Spherical Harmonics?: true
    Max angular momentum: 3

  ==> DFJKGrad: Density-Fitted SCF Gradients <==

    Gradient:                    1
    J tasked:                  Yes
    K tasked:                  Yes
    wK tasked:                  No
    OpenMP threads:              4
    Integrals threads:           4
    Memory (MB):              1430
    Schwarz Cutoff:          0E+00
    Fitting Condition:       1E-12

   => Auxiliary Basis Set <=

  Basis Set: 
    Number of shells: 275
    Number of basis function: 853
    Number of Cartesian functions: 1022
    Spherical Harmonics?: true
    Max angular momentum: 4


  -Total Gradient:
     Atom            X                  Y                   Z
    ------   -----------------  -----------------  -----------------
       1       -0.016371792156    -0.001741706682     0.003611810859
       2        0.002036665230    -0.000523778005    -0.001375456211
       3        0.001098030767     0.000427401978    -0.000773246365
       4       -0.000085115914    -0.000552150822     0.000886491725
       5       -0.003395542143    -0.006318551341     0.000415170225
       6        0.001961448101     0.001231818384    -0.001140009208
       7        0.001129919923     0.000181561144     0.000025587568
       8        0.021936609330    -0.003324592536    -0.005679437139
       9        0.000598927235    -0.003464059846     0.002459242820
      10       -0.001610267561     0.001746407961    -0.000120159093
      11        0.000370460547    -0.000735172324     0.001814086668
      12       -0.009410165848     0.007860605089    -0.002269545270
      13        0.000900195687     0.005208611572     0.002071419027
      14        0.000362902436     0.000000669557    -0.000047915959
      15        0.000012739862     0.000191063773    -0.000177733327
      16        0.000244574341    -0.000404070896     0.000057404232
      17        0.000220410166     0.000215942991     0.000242289447


*** tstop() called on cx1-27-3-2 at Sat Sep 10 17:29:13 2016
Module time:
	user time   =      30.34 seconds =       0.51 minutes
	system time =       0.61 seconds =       0.01 minutes
	total time  =          8 seconds =       0.13 minutes
Total time:
	user time   =     121.47 seconds =       2.02 minutes
	system time =       2.47 seconds =       0.04 minutes
	total time  =         34 seconds =       0.57 minutes

			-----------------------------------------
			 OPTKING 2.0: for geometry optimizations 
			  - R.A. King,  Bethel University        
			-----------------------------------------

	Previous internal coordinate definitions found.
	---Fragment 1 Geometry and Gradient---
	 O           1.0824779086        1.8440975992       -0.1000113756
	 C           0.6962251381       -0.3507442972       -0.1974014066
	 C          -1.8804031739       -1.5271395719       -0.2251480641
	 O           2.5034471344       -2.0781153936       -0.2343994566
	 C          -4.1502538239        0.2994733783       -0.1621188776
	 H          -1.9512164622       -2.7277928400       -1.8835008356
	 H          -1.9160884833       -2.7960105386        1.3840904853
	 C          -3.7610130768        2.9251318514        1.0502560205
	 H          -5.6338970304       -0.6857617159        0.8622529248
	 H          -4.8554508674        0.5924470826       -2.0656736307
	 H          -3.1224178077        2.7616169608        2.9956429826
	 H          -5.6052602305        3.9067697452        1.0730391230
	 H          -2.4624207006        4.1482787883        0.0743315958
	 C           5.0320640472       -1.2138172826       -0.1820217924
	 H           5.4247631657       -0.0380458170       -1.8039811788
	 H           6.1975557773       -2.8851142284       -0.2242936725
	 H           5.3951800899       -0.1448213049        1.5190644356
	            -0.0163717922       -0.0017417067        0.0036118109
	             0.0020366652       -0.0005237780       -0.0013754562
	             0.0010980308        0.0004274020       -0.0007732464
	            -0.0000851159       -0.0005521508        0.0008864917
	            -0.0033955421       -0.0063185513        0.0004151702
	             0.0019614481        0.0012318184       -0.0011400092
	             0.0011299199        0.0001815611        0.0000255876
	             0.0219366093       -0.0033245925       -0.0056794371
	             0.0005989272       -0.0034640598        0.0024592428
	            -0.0016102676        0.0017464080       -0.0001201591
	             0.0003704605       -0.0007351723        0.0018140867
	            -0.0094101658        0.0078606051       -0.0022695453
	             0.0009001957        0.0052086116        0.0020714190
	             0.0003629024        0.0000006696       -0.0000479160
	             0.0000127399        0.0001910638       -0.0001777333
	             0.0002445743       -0.0004040709        0.0000574042
	             0.0002204102        0.0002159430        0.0002422894

	---Fragment 1 Intrafragment Coordinates---
	 - Coordinate -           - BOHR/RAD -       - ANG/DEG -
	 R(1,2)           =         2.230697	       1.180434
	 R(2,3)           =         2.832612	       1.498954
	 R(2,4)           =         2.500246	       1.323073
	 R(3,5)           =         2.914225	       1.542142
	 R(3,6)           =         2.048589	       1.084067
	 R(3,7)           =         2.049623	       1.084614
	 R(4,14)          =         2.672762	       1.414365
	 R(5,8)           =         2.918123	       1.544204
	 R(5,9)           =         2.054561	       1.087227
	 R(5,10)          =         2.051014	       1.085350
	 R(8,11)          =         2.054038	       1.086950
	 R(8,12)          =         2.089349	       1.105636
	 R(8,13)          =         2.033435	       1.076048
	 R(14,15)         =         2.041422	       1.080274
	 R(14,16)         =         2.037987	       1.078456
	 R(14,17)         =         2.041642	       1.080390
	 B(1,2,3)         =         2.173124	     124.510830
	 B(1,2,4)         =         2.159476	     123.728858
	 B(2,3,5)         =         2.035298	     116.613982
	 B(2,3,6)         =         1.857485	     106.426031
	 B(2,3,7)         =         1.839261	     105.381866
	 B(2,4,14)        =         2.048942	     117.395715
	 B(3,2,4)         =         1.950264	     111.741898
	 B(3,5,8)         =         2.059028	     117.973600
	 B(3,5,9)         =         1.846958	     105.822923
	 B(3,5,10)        =         1.914805	     109.710228
	 B(4,14,15)       =         1.931219	     110.650686
	 B(4,14,16)       =         1.849850	     105.988591
	 B(4,14,17)       =         1.932542	     110.726515
	 B(5,3,6)         =         1.936857	     110.973719
	 B(5,3,7)         =         1.936375	     110.946088
	 B(5,8,11)        =         1.942635	     111.304790
	 B(5,8,12)        =         1.885497	     108.031044
	 B(5,8,13)        =         2.011989	     115.278454
	 B(6,3,7)         =         1.846416	     105.791834
	 B(8,5,9)         =         1.897215	     108.702412
	 B(8,5,10)        =         1.878561	     107.633620
	 B(9,5,10)        =         1.857665	     106.436384
	 B(11,8,12)       =         1.877062	     107.547718
	 B(11,8,13)       =         1.879571	     107.691468
	 B(12,8,13)       =         1.861187	     106.638132
	 B(15,14,16)      =         1.923926	     110.232826
	 B(15,14,17)      =         1.903090	     109.039009
	 B(16,14,17)      =         1.922989	     110.179149
	 D(1,2,3,5)       =         0.017162	       0.983300
	 D(1,2,3,6)       =         2.188531	     125.393600
	 D(1,2,3,7)       =        -2.139065	    -122.559369
	 D(1,2,4,14)      =        -0.012884	      -0.738218
	 D(2,3,5,8)       =        -0.455122	     -26.076569
	 D(2,3,5,9)       =        -2.582036	    -147.939762
	 D(2,3,5,10)      =         1.703589	      97.608436
	 D(2,4,14,15)     =        -1.055533	     -60.477580
	 D(2,4,14,16)     =        -3.141224	    -179.978870
	 D(2,4,14,17)     =         1.056675	      60.543032
	 D(3,2,4,14)      =        -3.128293	    -179.237998
	 D(3,5,8,11)      =        -1.003714	     -57.508556
	 D(3,5,8,12)      =        -3.060716	    -175.366136
	 D(3,5,8,13)      =         1.143337	      65.508406
	 D(4,2,3,5)       =         3.132327	     179.469138
	 D(4,2,3,6)       =        -0.979489	     -56.120562
	 D(4,2,3,7)       =         0.976101	      55.926469
	 D(6,3,5,8)       =        -2.585475	    -148.136831
	*D(6,3,5,9)       =         1.570796	      89.999976
	 D(6,3,5,10)      =        -0.426765	     -24.451826
	 D(7,3,5,8)       =         1.650256	      94.552681
	 D(7,3,5,9)       =        -0.476658	     -27.310513
	 D(7,3,5,10)      =        -2.474219	    -141.762315
	 D(9,5,8,11)      =         1.097330	      62.872367
	 D(9,5,8,12)      =        -0.959673	     -54.985213
	 D(9,5,8,13)      =        -3.038804	    -174.110671
	 D(10,5,8,11)     =         3.102738	     177.773799
	 D(10,5,8,12)     =         1.045735	      59.916219
	 D(10,5,8,13)     =        -1.033396	     -59.209239
	 R(1,8)           =         5.094228	       2.695749

	Current energy   :      -345.0221845978

	Energy change for the previous step:
		Projected    :        -0.0256026710
		Actual       :        -0.0148007132

	Performing BFGS update.
	Previous computed or guess Hessian on step 1.
	Steps to be used in Hessian update: 1
	Taking RFO optimization step.
	Going to follow RFO solution 1.
	Using RFO vector 1.
	Norm of target step-size    0.37817
	Projected energy change by RFO approximation:         0.0011040266

	Back-transformation to cartesian coordinates...
	Successfully converged to displaced geometry.

	Back-transformation to cartesian coordinates to adjust frozen coordinates...
	Successfully converged to displaced geometry.

	--- Internal Coordinate Step in ANG or DEG, aJ/ANG or AJ/DEG ---
	 ---------------------------------------------------------------------------
	   Coordinate                Previous        Force       Change         New 
	   ----------                --------       ------       ------       ------
	    1 R(1,2)          =      1.180434     0.041317     0.002724     1.183158
	    2 R(2,3)          =      1.498954     0.037417     0.010409     1.509362
	    3 R(2,4)          =      1.323073    -0.007504    -0.000796     1.322277
	    4 R(3,5)          =      1.542142    -0.028150    -0.005706     1.536436
	    5 R(3,6)          =      1.084067    -0.001097    -0.000131     1.083935
	    6 R(3,7)          =      1.084614     0.000923     0.000240     1.084854
	    7 R(4,14)         =      1.414365    -0.006574    -0.001023     1.413342
	    8 R(5,8)          =      1.544204    -0.083073    -0.019229     1.524975
	    9 R(5,9)          =      1.087227    -0.020224    -0.003788     1.083439
	   10 R(5,10)         =      1.085350    -0.007535    -0.001489     1.083861
	   11 R(8,11)         =      1.086950    -0.015586    -0.002963     1.083987
	   12 R(8,12)         =      1.105636    -0.098656    -0.018502     1.087134
	   13 R(8,13)         =      1.076048    -0.022358    -0.001848     1.074200
	   14 R(14,15)        =      1.080274    -0.002090    -0.000385     1.079889
	   15 R(14,16)        =      1.078456    -0.003873    -0.000708     1.077748
	   16 R(14,17)        =      1.080390    -0.002918    -0.000537     1.079853
	   17 B(1,2,3)        =    124.510830     0.000507     1.988091   126.498921
	   18 B(1,2,4)        =    123.728858    -0.000272    -1.321555   122.407303
	   19 B(2,3,5)        =    116.613982     0.000025     0.621463   117.235445
	   20 B(2,3,6)        =    106.426031     0.000018    -0.933730   105.492301
	   21 B(2,3,7)        =    105.381866     0.000091     1.104373   106.486239
	   22 B(2,4,14)       =    117.395715    -0.000067    -0.253383   117.142332
	   23 B(3,2,4)        =    111.741898    -0.000233    -0.868798   110.873101
	   24 B(3,5,8)        =    117.973600    -0.000148    -0.693832   117.279768
	   25 B(3,5,9)        =    105.822923     0.000215     1.085903   106.908826
	   26 B(3,5,10)       =    109.710228    -0.000073    -0.095915   109.614313
	   27 B(4,14,15)      =    110.650686     0.000005     0.046607   110.697293
	   28 B(4,14,16)      =    105.988591     0.000005     0.022601   106.011192
	   29 B(4,14,17)      =    110.726515    -0.000019    -0.073142   110.653373
	   30 B(5,3,6)        =    110.973719    -0.000064    -0.975166   109.998554
	   31 B(5,3,7)        =    110.946088    -0.000060    -0.087059   110.859029
	   32 B(5,8,11)       =    111.304790     0.000169     0.660324   111.965114
	   33 B(5,8,12)       =    108.031044    -0.000047     0.164228   108.195271
	   34 B(5,8,13)       =    115.278454    -0.000519    -2.851026   112.427428
	   35 B(6,3,7)        =    105.791834    -0.000004     0.289196   106.081030
	   36 B(8,5,9)        =    108.702412    -0.000178    -2.485981   106.216431
	   37 B(8,5,10)       =    107.633620     0.000222     1.690127   109.323747
	   38 B(9,5,10)       =    106.436384    -0.000037     0.523260   106.959643
	   39 B(11,8,12)      =    107.547718    -0.000056    -0.107468   107.440250
	   40 B(11,8,13)      =    107.691468     0.000171     0.550267   108.241735
	   41 B(12,8,13)      =    106.638132     0.000311     1.758692   108.396824
	   42 B(15,14,16)     =    110.232826    -0.000005    -0.055794   110.177032
	   43 B(15,14,17)     =    109.039009     0.000007     0.048314   109.087322
	   44 B(16,14,17)     =    110.179149     0.000006     0.009321   110.188470
	   45 D(1,2,3,5)      =      0.983300    -0.000004    -3.116637    -2.133337
	   46 D(1,2,3,6)      =    125.393600    -0.000016    -4.719972   120.673628
	   47 D(1,2,3,7)      =   -122.559369    -0.000006    -4.322015  -126.881383
	   48 D(1,2,4,14)     =     -0.738218     0.000012     3.446388     2.708169
	   49 D(2,3,5,8)      =    -26.076569    -0.000039    -4.434038   -30.510606
	   50 D(2,3,5,9)      =   -147.939762    -0.000002    -1.594914  -149.534676
	   51 D(2,3,5,10)     =     97.608436    -0.000010    -2.737102    94.871334
	   52 D(2,4,14,15)    =    -60.477580     0.000000     0.048086   -60.429495
	   53 D(2,4,14,16)    =   -179.978870     0.000000     0.076209  -179.902662
	   54 D(2,4,14,17)    =     60.543032     0.000000     0.091269    60.634301
	   55 D(3,2,4,14)     =   -179.237998    -0.000010    -3.128167  -182.366164
	   56 D(3,5,8,11)     =    -57.508556     0.000011     5.222663   -52.285893
	   57 D(3,5,8,12)     =   -175.366136     0.000011     4.867521  -170.498615
	   58 D(3,5,8,13)     =     65.508406     0.000004     4.319819    69.828226
	   59 D(4,2,3,5)      =    179.469138     0.000015     3.727546   183.196685
	   60 D(4,2,3,6)      =    -56.120562     0.000003     2.124211   -53.996351
	   61 D(4,2,3,7)      =     55.926469     0.000012     2.522168    58.448638
	   62 D(6,3,5,8)      =   -148.136831    -0.000037    -2.839124  -150.975955
	   63 *D(6,3,5,9)     =     89.999976     0.000000     0.000000    89.999976
	   64 D(6,3,5,10)     =    -24.451826    -0.000008    -1.142188   -25.594014
	   65 D(7,3,5,8)      =     94.552681    -0.000018    -2.537158    92.015522
	   66 D(7,3,5,9)      =    -27.310513     0.000019     0.301966   -27.008547
	   67 D(7,3,5,10)     =   -141.762315     0.000011    -0.840222  -142.602537
	   68 D(9,5,8,11)     =     62.872367     0.000020     4.234139    67.106506
	   69 D(9,5,8,12)     =    -54.985213     0.000020     3.878998   -51.106216
	   70 D(9,5,8,13)     =   -174.110671     0.000012     3.331296  -170.779375
	   71 D(10,5,8,11)    =    177.773799     0.000016     4.414117   182.187916
	   72 D(10,5,8,12)    =     59.916219     0.000016     4.058976    63.975194
	   73 D(10,5,8,13)    =    -59.209239     0.000008     3.511274   -55.697965
	   74 R(1,8)          =      2.695749     0.095185     0.101369     2.797118
	 ---------------------------------------------------------------------------
	Successfully symmetrized geometry.

  ==> Convergence Check <==

  Measures of convergence in internal coordinates in au.
  Criteria marked as inactive (o), active & met (*), and active & unmet ( ).
  ---------------------------------------------------------------------------------------------
   Step     Total Energy     Delta E     MAX Force     RMS Force      MAX Disp      RMS Disp   
  ---------------------------------------------------------------------------------------------
    Convergence Criteria    1.00e-06 *    3.00e-04 *             o    1.20e-03 *             o
  ---------------------------------------------------------------------------------------------
      2    -345.02218460   -1.48e-02      1.20e-02      2.96e-03 o    1.92e-01      4.40e-02 o  ~
  ---------------------------------------------------------------------------------------------

	Writing optimization data to binary file.
	Structure for next step:
	Cartesian Geometry (in Angstrom)
	    O     0.6268953759   1.0024821599  -0.0964701640
	    C     0.3871342749  -0.1553055312  -0.0528204253
	    C    -0.9823560771  -0.7897035873  -0.0673166514
	    O     1.3339315564  -1.0772479834  -0.0976987096
	    C    -2.1942917893   0.1542483270  -0.0956438027
	    H    -0.9937995254  -1.4339309692  -0.9389563167
	    H    -1.0257086654  -1.4482660649   0.7936853777
	    C    -2.0386804546   1.5119991510   0.5810008034
	    H    -2.9999362163  -0.3516495497   0.4228582390
	    H    -2.5189422158   0.2989097183  -1.1195726365
	    H    -1.6777717965   1.4187618885   1.5988804324
	    H    -3.0171004545   1.9839024940   0.6241571574
	    H    -1.3718673387   2.1624631303   0.0460601443
	    C     2.6723357329  -0.6253395160  -0.1422831163
	    H     2.8422198515  -0.0215483044  -1.0213364674
	    H     3.2844191651  -1.5117626100  -0.1761770495
	    H     2.9073737697  -0.0435436114   0.7365536896
			--------------------------
			 OPTKING Finished Execution 
			--------------------------

    Structure for next step:
    Molecular point group: c1
    Full point group: C1

    Geometry (in Angstrom), charge = 0, multiplicity = 1:

    O            0.618214140072     0.992523202365    -0.101792492859
    C            0.378453039063    -0.165264488744    -0.058142754150
    C           -0.991037312948    -0.799662544779    -0.072638980222
    O            1.325250320535    -1.087206940877    -0.103021038412
    C           -2.202973025164     0.144289369438    -0.100966131518
    H           -1.002480761247    -1.443889926723    -0.944278645547
    H           -1.034389901216    -1.458225022440     0.788363048836
    C           -2.047361690470     1.502040193449     0.575678474574
    H           -3.008617452195    -0.361608507173     0.417535910141
    H           -2.527623451628     0.288950760761    -1.124894965315
    H           -1.686453032355     1.408802930954     1.593558103556
    H           -3.025781690396     1.973943536474     0.618834828531
    H           -1.380548574603     2.152504172785     0.040737815469
    C            2.663654497024    -0.635298473559    -0.147605445114
    H            2.833538615626    -0.031507261873    -1.026658796230
    H            3.275737929231    -1.521721567481    -0.181499378345
    H            2.898692533800    -0.053502568890     0.731231360747

gradient() will perform analytic gradient computation.

*** tstart() called on cx1-27-3-2
*** at Sat Sep 10 17:29:13 2016


         ---------------------------------------------------------
                                   SCF
            by Justin Turney, Rob Parrish, and Andy Simmonett
                              RHF Reference
                        4 Threads,   2000 MiB Core
         ---------------------------------------------------------

  ==> Geometry <==

    Molecular point group: c1
    Full point group: C1

    Geometry (in Angstrom), charge = 0, multiplicity = 1:

       Center              X                  Y                   Z               Mass       
    ------------   -----------------  -----------------  -----------------  -----------------
           O          0.618214140072     0.992523202365    -0.101792492859    15.994914619560
           C          0.378453039063    -0.165264488744    -0.058142754150    12.000000000000
           C         -0.991037312948    -0.799662544779    -0.072638980222    12.000000000000
           O          1.325250320535    -1.087206940877    -0.103021038412    15.994914619560
           C         -2.202973025164     0.144289369438    -0.100966131518    12.000000000000
           H         -1.002480761247    -1.443889926723    -0.944278645547     1.007825032070
           H         -1.034389901216    -1.458225022440     0.788363048836     1.007825032070
           C         -2.047361690470     1.502040193449     0.575678474574    12.000000000000
           H         -3.008617452195    -0.361608507173     0.417535910141     1.007825032070
           H         -2.527623451628     0.288950760761    -1.124894965315     1.007825032070
           H         -1.686453032355     1.408802930954     1.593558103556     1.007825032070
           H         -3.025781690396     1.973943536474     0.618834828531     1.007825032070
           H         -1.380548574603     2.152504172785     0.040737815469     1.007825032070
           C          2.663654497024    -0.635298473559    -0.147605445114    12.000000000000
           H          2.833538615626    -0.031507261873    -1.026658796230     1.007825032070
           H          3.275737929231    -1.521721567481    -0.181499378345     1.007825032070
           H          2.898692533800    -0.053502568890     0.731231360747     1.007825032070

  Running in c1 symmetry.

  Rotational constants: A =      0.22238  B =      0.04984  C =      0.04257 [cm^-1]
  Rotational constants: A =   6666.85258  B =   1494.20366  C =   1276.23779 [MHz]
  Nuclear repulsion =  319.873270467203781

  Charge       = 0
  Multiplicity = 1
  Electrons    = 56
  Nalpha       = 28
  Nbeta        = 28

  ==> Algorithm <==

  SCF Algorithm Type is DF.
  DIIS enabled.
  MOM disabled.
  Fractional occupation disabled.
  Guess Type is READ.
[...]
	             0.0000029948        0.0000003187        0.0000098378
	             0.0014364855        0.0010854927        0.0055180016
	            -0.0000010373        0.0000016220        0.0000032259
	            -0.0000011766        0.0000006799       -0.0000060782
	             0.0000011991       -0.0000002969       -0.0000030565
	            -0.0000017409       -0.0000006863       -0.0000016078
	            -0.0000149653        0.0000090646       -0.0000291826
	             0.0000078183       -0.0000052592       -0.0000014099
	            -0.0000058519       -0.0000064169        0.0000028157
	             0.0000015575        0.0000098398        0.0000057672

	---Fragment 1 Intrafragment Coordinates---
	 - Coordinate -           - BOHR/RAD -       - ANG/DEG -
	 R(1,2)           =         2.239494	       1.185089
	 R(2,3)           =         2.852924	       1.509702
	 R(2,4)           =         2.497103	       1.321410
	 R(3,5)           =         2.918334	       1.544316
	 R(3,6)           =         2.045037	       1.082187
	 R(3,7)           =         2.039668	       1.079346
	 R(4,14)          =         2.671808	       1.413860
	 R(5,8)           =         2.889278	       1.528940
	 R(5,9)           =         2.048076	       1.083795
	 R(5,10)          =         2.043731	       1.081496
	 R(8,11)          =         2.049680	       1.084644
	 R(8,12)          =         2.047391	       1.083432
	 R(8,13)          =         2.046448	       1.082933
	 R(14,15)         =         2.040438	       1.079753
	 R(14,16)         =         2.036928	       1.077896
	 R(14,17)         =         2.040625	       1.079852
	 B(1,2,3)         =         2.164290	     124.004685
	 B(1,2,4)         =         2.149136	     123.136435
	 B(2,3,5)         =         1.966549	     112.674977
	 B(2,3,6)         =         1.820805	     104.324418
	 B(2,3,7)         =         1.909326	     109.396314
	 B(2,4,14)        =         2.046366	     117.248143
	 B(3,2,4)         =         1.969757	     112.858749
	 B(3,5,8)         =         2.004311	     114.838572
	 B(3,5,9)         =         1.873347	     107.334850
	 B(3,5,10)        =         1.914273	     109.679766
	 B(4,14,15)       =         1.930713	     110.621693
	 B(4,14,16)       =         1.850257	     106.011944
	 B(4,14,17)       =         1.931302	     110.655444
	 B(5,3,6)         =         1.906326	     109.224445
	 B(5,3,7)         =         1.939428	     111.121041
	 B(5,8,11)        =         1.942617	     111.303782
	 B(5,8,12)        =         1.921955	     110.119926
	 B(5,8,13)        =         1.950062	     111.730342
	 B(6,3,7)         =         1.917660	     109.873825
	 B(8,5,9)         =         1.867990	     107.027944
	 B(8,5,10)        =         1.911303	     109.509592
	 B(9,5,10)        =         1.888629	     108.210458
	 B(11,8,12)       =         1.880669	     107.754411
	 B(11,8,13)       =         1.888005	     108.174697
	 B(12,8,13)       =         1.877924	     107.597134
	 B(15,14,16)      =         1.924305	     110.254527
	 B(15,14,17)      =         1.903274	     109.049566
	 B(16,14,17)      =         1.923773	     110.224094
	 D(1,2,3,5)       =        -1.245279	     -71.349217
	 D(1,2,3,6)       =         0.820467	      47.009270
	 D(1,2,3,7)       =         2.871370	     164.517383
	 D(1,2,4,14)      =         0.004501	       0.257886
	 D(2,3,5,8)       =        -0.623143	     -35.703439
	 D(2,3,5,9)       =        -2.697472	    -154.553752
	 D(2,3,5,10)      =         1.537686	      88.102897
	 D(2,4,14,15)     =        -1.051688	     -60.257293
	 D(2,4,14,16)     =        -3.137801	    -179.782754
	 D(2,4,14,17)     =         1.059588	      60.709936
	 D(3,2,4,14)      =        -3.134882	    -179.615510
	 D(3,5,8,11)      =        -0.973768	     -55.792782
	 D(3,5,8,12)      =        -3.058299	    -175.227650
	 D(3,5,8,13)      =         1.139002	      65.259987
	 D(4,2,3,5)       =         1.894082	     108.522900
	 D(4,2,3,6)       =        -2.323358	    -133.118614
	 D(4,2,3,7)       =        -0.272455	     -15.610501
	 D(6,3,5,8)       =        -2.638060	    -151.149711
	*D(6,3,5,9)       =         1.570796	      89.999976
	 D(6,3,5,10)      =        -0.477232	     -27.343375
	 D(7,3,5,8)       =         1.526706	      87.473783
	 D(7,3,5,9)       =        -0.547624	     -31.376530
	 D(7,3,5,10)      =        -2.595652	    -148.719882
	 D(9,5,8,11)      =         1.103557	      63.229176
	 D(9,5,8,12)      =        -0.980974	     -56.205692
	 D(9,5,8,13)      =        -3.066859	    -175.718056
	 D(10,5,8,11)     =        -3.136172	    -179.689433
	 D(10,5,8,12)     =         1.062481	      60.875699
	 D(10,5,8,13)     =        -1.023403	     -58.636665
	 R(1,8)           =         6.409256	       3.391632

	Current energy   :      -345.0291968387

	Energy change for the previous step:
		Projected    :        -0.0000002543
		Actual       :        -0.0000007827
	Energy ratio indicates good step: Trust radius increased to 1.000e+00.


	Performing BFGS update.
	Previous computed or guess Hessian on step 1.
	Steps to be used in Hessian update: 18 17
	Taking RFO optimization step.
	Going to follow RFO solution 1.
	Rejecting RFO root 1 because normalization gives large value.
	Using RFO vector 2.
	Norm of target step-size    0.00163
	Projected energy change by RFO approximation:        -0.0000000998

	Back-transformation to cartesian coordinates...
	Successfully converged to displaced geometry.

	Back-transformation to cartesian coordinates to adjust frozen coordinates...
	Successfully converged to displaced geometry.

	--- Internal Coordinate Step in ANG or DEG, aJ/ANG or AJ/DEG ---
	 ---------------------------------------------------------------------------
	   Coordinate                Previous        Force       Change         New 
	   ----------                --------       ------       ------       ------
	    1 R(1,2)          =      1.185089     0.000165     0.000011     1.185100
	    2 R(2,3)          =      1.509702     0.000029     0.000009     1.509711
	    3 R(2,4)          =      1.321410    -0.000233    -0.000034     1.321376
	    4 R(3,5)          =      1.544316     0.000071     0.000025     1.544341
	    5 R(3,6)          =      1.082187    -0.000004    -0.000006     1.082180
	    6 R(3,7)          =      1.079346     0.000030     0.000009     1.079354
	    7 R(4,14)         =      1.413860     0.000087     0.000014     1.413874
	    8 R(5,8)          =      1.528940    -0.000004    -0.000006     1.528934
	    9 R(5,9)          =      1.083795     0.000028     0.000005     1.083800
	   10 R(5,10)         =      1.081496     0.000017     0.000004     1.081500
	   11 R(8,11)         =      1.084644     0.000050     0.000006     1.084650
	   12 R(8,12)         =      1.083432     0.000012     0.000002     1.083434
	   13 R(8,13)         =      1.082933     0.000010     0.000006     1.082940
	   14 R(14,15)        =      1.079753    -0.000062    -0.000009     1.079745
	   15 R(14,16)        =      1.077896    -0.000023    -0.000002     1.077894
	   16 R(14,17)        =      1.079852    -0.000080    -0.000012     1.079840
	   17 B(1,2,3)        =    124.004685    -0.000002    -0.005446   123.999240
	   18 B(1,2,4)        =    123.136435     0.000001     0.002025   123.138460
	   19 B(2,3,5)        =    112.674977     0.000000    -0.002203   112.672774
	   20 B(2,3,6)        =    104.324418     0.000000     0.003816   104.328234
	   21 B(2,3,7)        =    109.396314    -0.000000    -0.003425   109.392889
	   22 B(2,4,14)       =    117.248143     0.000003     0.007404   117.255547
	   23 B(3,2,4)        =    112.858749     0.000001     0.003414   112.862163
	   24 B(3,5,8)        =    114.838572    -0.000000    -0.000428   114.838144
	   25 B(3,5,9)        =    107.334850    -0.000000    -0.001788   107.333062
	   26 B(3,5,10)       =    109.679766    -0.000000     0.000170   109.679936
	   27 B(4,14,15)      =    110.621693    -0.000000    -0.002797   110.618896
	   28 B(4,14,16)      =    106.011944     0.000001     0.006674   106.018618
	   29 B(4,14,17)      =    110.655444    -0.000001    -0.003497   110.651947
	   30 B(5,3,6)        =    109.224445    -0.000000     0.000690   109.225136
	   31 B(5,3,7)        =    111.121041    -0.000000    -0.001460   111.119581
	   32 B(5,8,11)       =    111.303782     0.000000     0.000395   111.304177
	   33 B(5,8,12)       =    110.119926     0.000000     0.000572   110.120498
	   34 B(5,8,13)       =    111.730342     0.000000     0.000763   111.731106
	   35 B(6,3,7)        =    109.873825     0.000000     0.003067   109.876892
	   36 B(8,5,9)        =    107.027944     0.000000     0.000151   107.028095
	   37 B(8,5,10)       =    109.509592     0.000000     0.001082   109.510673
	   38 B(9,5,10)       =    108.210458     0.000000     0.000829   108.211288
	   39 B(11,8,12)      =    107.754411    -0.000000    -0.000717   107.753695
	   40 B(11,8,13)      =    108.174697    -0.000000    -0.001330   108.173367
	   41 B(12,8,13)      =    107.597134    -0.000000     0.000231   107.597365
	   42 B(15,14,16)     =    110.254527     0.000000     0.001646   110.256174
	   43 B(15,14,17)     =    109.049566    -0.000000    -0.002879   109.046687
	   44 B(16,14,17)     =    110.224094    -0.000000     0.001092   110.225186
	   45 D(1,2,3,5)      =    -71.349217    -0.000000    -0.034663   -71.383879
	   46 D(1,2,3,6)      =     47.009270     0.000000    -0.032632    46.976637
	   47 D(1,2,3,7)      =    164.517383     0.000000    -0.028665   164.488717
	   48 D(1,2,4,14)     =      0.257886    -0.000000     0.002087     0.259974
	   49 D(2,3,5,8)      =    -35.703439     0.000000     0.002522   -35.700917
	   50 D(2,3,5,9)      =   -154.553752     0.000000     0.003845  -154.549906
	   51 D(2,3,5,10)     =     88.102897     0.000000     0.003776    88.106673
	   52 D(2,4,14,15)    =    -60.257293     0.000000    -0.000223   -60.257516
	   53 D(2,4,14,16)    =   -179.782754    -0.000000    -0.004649  -179.787403
	   54 D(2,4,14,17)    =     60.709936    -0.000000    -0.008033    60.701903
	   55 D(3,2,4,14)     =   -179.615510     0.000000     0.005605  -179.609905
	   56 D(3,5,8,11)     =    -55.792782     0.000000    -0.000240   -55.793022
	   57 D(3,5,8,12)     =   -175.227650     0.000000     0.000028  -175.227622
	   58 D(3,5,8,13)     =     65.259987    -0.000000    -0.001136    65.258850
	   59 D(4,2,3,5)      =    108.522900    -0.000000    -0.038204   108.484696
	   60 D(4,2,3,6)      =   -133.118614    -0.000000    -0.036174  -133.154788
	   61 D(4,2,3,7)      =    -15.610501     0.000000    -0.032207   -15.642708
	   62 D(6,3,5,8)      =   -151.149711    -0.000000    -0.001324  -151.151035
	   63 *D(6,3,5,9)     =     89.999976    -0.000000     0.000000    89.999976
	   64 D(6,3,5,10)     =    -27.343375     0.000000    -0.000069   -27.343445
	   65 D(7,3,5,8)      =     87.473783    -0.000000    -0.004678    87.469104
	   66 D(7,3,5,9)      =    -31.376530    -0.000000    -0.003355   -31.379885
	   67 D(7,3,5,10)     =   -148.719882    -0.000000    -0.003424  -148.723306
	   68 D(9,5,8,11)     =     63.229176    -0.000000    -0.002644    63.226532
	   69 D(9,5,8,12)     =    -56.205692    -0.000000    -0.002376   -56.208068
	   70 D(9,5,8,13)     =   -175.718056    -0.000000    -0.003540  -175.721596
	   71 D(10,5,8,11)    =   -179.689433     0.000000    -0.001010  -179.690443
	   72 D(10,5,8,12)    =     60.875699     0.000000    -0.000742    60.874957
	   73 D(10,5,8,13)    =    -58.636665     0.000000    -0.001906   -58.638571
	   74 R(1,8)          =      3.391632     0.000019     0.000341     3.391974
	 ---------------------------------------------------------------------------
	Successfully symmetrized geometry.

  ==> Convergence Check <==

  Measures of convergence in internal coordinates in au.
  Criteria marked as inactive (o), active & met (*), and active & unmet ( ).
  ---------------------------------------------------------------------------------------------
   Step     Total Energy     Delta E     MAX Force     RMS Force      MAX Disp      RMS Disp   
  ---------------------------------------------------------------------------------------------
    Convergence Criteria    1.00e-06 *    3.00e-04 *             o    1.20e-03 *             o
  ---------------------------------------------------------------------------------------------
     19    -345.02919684   -7.83e-07 *    3.33e-05 *    7.53e-06 o    6.67e-04 *    1.90e-04 o  ~
  ---------------------------------------------------------------------------------------------


  **** Optimization is complete! (in 19 steps) ****

  ==> Optimization Summary <==

  Measures of convergence in internal coordinates in au.
  --------------------------------------------------------------------------------------------------------------- ~
   Step         Total Energy             Delta E       MAX Force       RMS Force        MAX Disp        RMS Disp  ~
  --------------------------------------------------------------------------------------------------------------- ~
      1    -345.007383884565   -345.007383884565      0.04844391      0.00790740      0.43255630      0.05854745  ~
      2    -345.022184597765     -0.014800713200      0.01197465      0.00296011      0.19155932      0.04395532  ~
      3    -345.024857409841     -0.002672812076      0.00590644      0.00150686      0.23001009      0.05835486  ~
      4    -345.022502660818      0.002354749023      0.01644033      0.00430698      0.12667130      0.03288120  ~
      5    -345.026468882758     -0.003966221940      0.00411459      0.00084900      0.18134627      0.04836910  ~
      6    -345.027208542775     -0.000739660017      0.00342454      0.00090068      0.31996492      0.08918779  ~
      7    -345.023933537124      0.003275005651      0.05351328      0.00834993      0.05951970      0.02096678  ~
      8    -345.028309948631     -0.004376411508      0.00449601      0.00117819      0.15161518      0.04458107  ~
      9    -345.028686967175     -0.000377018543      0.00423014      0.00079704      0.13872563      0.03508220  ~
     10    -345.028917161992     -0.000230194817      0.00083562      0.00027429      0.13081252      0.03570094  ~
     11    -345.028988262938     -0.000071100946      0.00134666      0.00036865      0.09290119      0.02608273  ~
     12    -345.029053289609     -0.000065026672      0.00252699      0.00047394      0.10514540      0.02918864  ~
     13    -345.029072953375     -0.000019663766      0.00558767      0.00093839      0.02822756      0.00726508  ~
     14    -345.029134910783     -0.000061957408      0.00133693      0.00027171      0.09310911      0.02185107  ~
     15    -345.029177063942     -0.000042153159      0.00177977      0.00030777      0.08612576      0.02185711  ~
     16    -345.029184614625     -0.000007550683      0.00229911      0.00039094      0.03615260      0.00904781  ~
     17    -345.029193271177     -0.000008656552      0.00030674      0.00008007      0.02531606      0.00666961  ~
     18    -345.029196056007     -0.000002784830      0.00073473      0.00010964      0.00408373      0.00109088  ~
     19    -345.029196838680     -0.000000782673      0.00003330      0.00000753      0.00066679      0.00018986  ~
  --------------------------------------------------------------------------------------------------------------- ~

	Writing optimization data to binary file.
	Final energy is   -345.0291968386802
	Final (previous) structure:
	Cartesian Geometry (in Angstrom)
	    O     0.8864676003   0.4746732031  -1.1911470366
	    C     0.4363069666  -0.2597654612  -0.3772724971
	    C    -0.8863146560  -0.9729553828  -0.5229893317
	    O     1.0464751221  -0.5373940746   0.7614732735
	    C    -2.0941979112  -0.0191666936  -0.3956459615
	    H    -0.8603442254  -1.3833680595  -1.5239965310
	    H    -0.9440649449  -1.7723441594   0.1999418082
	    C    -1.9130631870   1.1154395069   0.6130742914
	    H    -2.9384433469  -0.6102461579  -0.0602556670
	    H    -2.3352841282   0.3946847991  -1.3653042616
	    H    -1.6644769572   0.7321742366   1.5968250796
	    H    -2.8305605697   1.6846843979   0.7024312839
	    H    -1.1309990830   1.8004223392   0.3098925949
	    C     2.2918243865   0.0888241270   0.9980234789
	    H     3.0052112359  -0.1828146754   0.2343752021
	    H     2.6237043309  -0.2636736826   1.9610708145
	    H     2.1816294882   1.1629563700   1.0113410096
	Saving final (previous) structure.
			--------------------------
			 OPTKING Finished Execution 
			--------------------------

    Final optimized geometry and variables:
    Molecular point group: c1
    Full point group: C1

    Geometry (in Angstrom), charge = 0, multiplicity = 1:

    O            0.886467600277     0.474673203144    -1.191147036619
    C            0.436306966617    -0.259765461212    -0.377272497109
    C           -0.886314655972    -0.972955382770    -0.522989331724
    O            1.046475122124    -0.537394074601     0.761473273505
    C           -2.094197911158    -0.019166693563    -0.395645961540
    H           -0.860344225428    -1.383368059492    -1.523996530985
    H           -0.944064944895    -1.772344159357     0.199941808221
    C           -1.913063186967     1.115439506861     0.613074291432
    H           -2.938443346893    -0.610246157915    -0.060255666974
    H           -2.335284128194     0.394684799102    -1.365304261578
    H           -1.664476957180     0.732174236617     1.596825079550
    H           -2.830560569707     1.684684397896     0.702431283855
    H           -1.130999082975     1.800422339216     0.309892594905
    C            2.291824386529     0.088824126982     0.998023478880
    H            3.005211235900    -0.182814675411     0.234375202118
    H            2.623704330912    -0.263673682587     1.961070814520
    H            2.181629488167     1.162956369994     1.011341009618

	Cleaning optimization helper files.


Properties will be evaluated at   0.000000,   0.000000,   0.000000 Bohr

Properties computed using the  density matrix

  Nuclear Dipole Moment: (a.u.)
     X:    -4.5783      Y:     1.4645      Z:     2.8725

  Electronic Dipole Moment: (a.u.)
     X:     4.3895      Y:    -1.8284      Z:    -2.2269

  Dipole Moment: (a.u.)
     X:    -0.1888      Y:    -0.3639      Z:     0.6456     Total:     0.7648

  Dipole Moment: (Debye)
     X:    -0.4800      Y:    -0.9251      Z:     1.6410     Total:     1.9440

  Quadrupole Moment: (Debye Ang)
    XX:   -38.5405     YY:   -43.5447     ZZ:   -45.8076
    XY:    -0.1453     XZ:     3.9602     YZ:     2.7592

  Traceless Quadrupole Moment: (Debye Ang)
    XX:     4.0904     YY:    -0.9137     ZZ:    -3.1767
    XY:    -0.1453     XZ:     3.9602     YZ:     2.7592

  Mulliken Charges: (a.u.)
   Center  Symbol    Alpha    Beta     Spin     Total
       1     O     4.20771  4.20771  0.00000 -0.41542
       2     C     2.79352  2.79352  0.00000  0.41295
       3     C     3.09834  3.09834  0.00000 -0.19667
       4     O     4.14989  4.14989  0.00000 -0.29979
       5     C     3.08353  3.08353  0.00000 -0.16706
       6     H     0.43830  0.43830  0.00000  0.12341
       7     H     0.43929  0.43929  0.00000  0.12143
       8     C     3.15845  3.15845  0.00000 -0.31691
       9     H     0.45043  0.45043  0.00000  0.09914
      10     H     0.44628  0.44628  0.00000  0.10745
      11     H     0.45060  0.45060  0.00000  0.09880
      12     H     0.44657  0.44657  0.00000  0.10686
      13     H     0.44830  0.44830  0.00000  0.10340
      14     C     3.03748  3.03748  0.00000 -0.07497
      15     H     0.45204  0.45204  0.00000  0.09593
      16     H     0.44517  0.44517  0.00000  0.10965
      17     H     0.45410  0.45410  0.00000  0.09179

   Total alpha = 28.00000, Total beta = 28.00000, Total charge = -0.00000


*** Psi4 exiting successfully. Buy a developer a beer!
