    -----------------------------------------------------------------------
          Psi4: An Open-Source Ab Initio Electronic Structure Package
                              Psi4 (no tag) Driver

                          Git: Rev {detached?}  

    J. M. Turney, A. C. Simmonett, R. M. Parrish, E. G. Hohenstein,
    F. A. Evangelista, J. T. Fermann, B. J. Mintz, L. A. Burns, J. J. Wilke,
    M. L. Abrams, N. J. Russ, M. L. Leininger, C. L. Janssen, E. T. Seidl,
    W. D. Allen, H. F. Schaefer, R. A. King, E. F. Valeev, C. D. Sherrill,
    and T. D. Crawford, WIREs Comput. Mol. Sci. 2, 556-565 (2012)
    (doi: 10.1002/wcms.93)

                         Additional Contributions by
    A. E. DePrince, M. Saitow, U. Bozkaya, A. Yu. Sokolov
    -----------------------------------------------------------------------


    Psi4 started on: Fri Sep  9 20:40:43 2016

    Process ID:  16268
    PSI4DATADIR: /export131/home/mjharvey/miniconda3/share
    Memory level set to 256.000 MB

  ==> Input File <==

--------------------------------------------------------------------------
set {
	reference rhf
	basis cc-pvtz
}


set_num_threads( 4 )
memory 2 gb

molecule MOL {
0 1

H	 -2.816458	 -0.841657	 -0.064679
N	 -1.878861	 -0.711874	 0.250184
C	 -1.341419	 0.551458	 -0.220231
H	 -1.333674	 -1.468530	 -0.105118
C	 0.082190	 0.731516	 0.254705
H	 -1.357065	 0.652078	 -1.304747
H	 -1.939897	 1.357530	 0.189797
O	 0.711655	 -0.513939	 0.272653
H	 0.611938	 1.408746	 -0.413801
H	 0.082639	 1.166794	 1.251430
C	 2.012603	 -0.494987	 0.758858
H	 2.395698	 -1.504604	 0.722849
H	 2.653717	 0.143426	 0.154625
H	 2.047926	 -0.143093	 1.787200

	symmetry c1
}
set optking {
	frozen_dihedral = ("
		8 5 3 6
	")
}

ee = optimize('scf')
oeprop('DIPOLE', 'QUADRUPOLE', 'MULLIKEN_CHARGES')
f=open( 'psi4out.xyz', 'w' )
f.write( "14  " )
f.write( str(ee) + "\n" )
f.write( MOL.save_string_xyz() )
f.close()
--------------------------------------------------------------------------

  Memory set to   2.000 GiB by Python script.
gradient() will perform analytic gradient computation.

*** tstart() called on cx1-27-2-4
*** at Fri Sep  9 20:40:44 2016


         ---------------------------------------------------------
                                   SCF
            by Justin Turney, Rob Parrish, and Andy Simmonett
                              RHF Reference
                        4 Threads,   2000 MiB Core
         ---------------------------------------------------------

  ==> Geometry <==

    Molecular point group: c1
    Full point group: C1

    Geometry (in Angstrom), charge = 0, multiplicity = 1:

       Center              X                  Y                   Z               Mass       
    ------------   -----------------  -----------------  -----------------  -----------------
           H         -2.742672527302    -0.735670079003    -0.326031251190     1.007825032070
           N         -1.805075527302    -0.605887079003    -0.011168251190    14.003074004780
           C         -1.267633527302     0.657444920997    -0.481583251190    12.000000000000
           H         -1.259888527302    -1.362543079003    -0.366470251190     1.007825032070
           C          0.155975472698     0.837502920997    -0.006647251190    12.000000000000
           H         -1.283279527302     0.758064920997    -1.566099251190     1.007825032070
           H         -1.866111527302     1.463516920997    -0.071555251190     1.007825032070
           O          0.785440472698    -0.407952079003     0.011300748810    15.994914619560
           H          0.685723472698     1.514732920997    -0.675153251190     1.007825032070
           H          0.156424472698     1.272780920997     0.990077748810     1.007825032070
           C          2.086388472698    -0.389000079003     0.497505748810    12.000000000000
           H          2.469483472698    -1.398617079003     0.461496748810     1.007825032070
           H          2.727502472698     0.249412920997    -0.106727251190     1.007825032070
           H          2.121711472698    -0.037106079003     1.525847748810     1.007825032070

  Running in c1 symmetry.

  Rotational constants: A =      0.41093  B =      0.09765  C =      0.08398 [cm^-1]
  Rotational constants: A =  12319.26451  B =   2927.59653  C =   2517.75887 [MHz]
  Nuclear repulsion =  196.136695775722472

  Charge       = 0
  Multiplicity = 1
  Electrons    = 42
  Nalpha       = 21
  Nbeta        = 21

  ==> Algorithm <==

  SCF Algorithm Type is DF.
  DIIS enabled.
  MOM disabled.
  Fractional occupation disabled.
  Guess Type is CORE.
  Energy threshold   = 1.00e-08
  Density threshold  = 1.00e-08
  Integral threshold = 0.00e+00

  ==> Primary Basis <==

  Basis Set: CC-PVTZ
    Number of shells: 104
    Number of basis function: 276
    Number of Cartesian functions: 310
    Spherical Harmonics?: true
    Max angular momentum: 3

  ==> Pre-Iterations <==

   -------------------------------------------------------
    Irrep   Nso     Nmo     Nalpha   Nbeta   Ndocc  Nsocc
   -------------------------------------------------------
     A        276     276       0       0       0       0
   -------------------------------------------------------
    Total     276     276      21      21      21       0
   -------------------------------------------------------

 OEINTS: Overlap, kinetic, potential, dipole, and quadrupole integrals
         stored in file 35.

  ==> Integral Setup <==

  ==> DFJK: Density-Fitted J/K Matrices <==

    J tasked:                  Yes
    K tasked:                  Yes
    wK tasked:                  No
    OpenMP threads:              4
    Integrals threads:           4
    Memory (MB):              1430
    Algorithm:                Core
    Integral Cache:           NONE
    Schwarz Cutoff:          1E-12
    Fitting Condition:       1E-12

   => Auxiliary Basis Set <=

  Basis Set: 
    Number of shells: 215
    Number of basis function: 665
    Number of Cartesian functions: 795
    Spherical Harmonics?: true
    Max angular momentum: 4

  Minimum eigenvalue in the overlap matrix is 5.8224673967E-04.
  Using Symmetric Orthogonalization.
  SCF Guess: Core (One-Electron) Hamiltonian.

  ==> Iterations <==

                           Total Energy        Delta E     RMS |[F,P]|

   @DF-RHF iter   1:  -181.54115941639074   -1.81541e+02   4.80605e-02 
   @DF-RHF iter   2:  -130.54899066974255    5.09922e+01   3.25538e-02 DIIS
   @DF-RHF iter   3:  -194.27506598960096   -6.37261e+01   2.81397e-02 DIIS
   @DF-RHF iter   4:  -220.74095933108143   -2.64659e+01   2.73256e-02 DIIS
   @DF-RHF iter   5:  -246.67990907658040   -2.59389e+01   6.33922e-03 DIIS
   @DF-RHF iter   6:  -248.05180321274193   -1.37189e+00   2.21574e-03 DIIS
   @DF-RHF iter   7:  -248.20644038134029   -1.54637e-01   5.76194e-04 DIIS
   @DF-RHF iter   8:  -248.21916347920867   -1.27231e-02   1.10046e-04 DIIS
   @DF-RHF iter   9:  -248.22001088924671   -8.47410e-04   3.29269e-05 DIIS
   @DF-RHF iter  10:  -248.22007141786409   -6.05286e-05   1.26156e-05 DIIS
   @DF-RHF iter  11:  -248.22008130680214   -9.88894e-06   4.32183e-06 DIIS
   @DF-RHF iter  12:  -248.22008284142615   -1.53462e-06   1.18176e-06 DIIS
   @DF-RHF iter  13:  -248.22008294501225   -1.03586e-07   2.96231e-07 DIIS
   @DF-RHF iter  14:  -248.22008295117340   -6.16114e-09   8.05502e-08 DIIS
   @DF-RHF iter  15:  -248.22008295161655   -4.43151e-10   2.08085e-08 DIIS
   @DF-RHF iter  16:  -248.22008295164923   -3.26850e-11   4.68475e-09 DIIS

  ==> Post-Iterations <==

    Orbital Energies (a.u.)
    -----------------------

    Doubly Occupied:                                                      

       1A    -20.549512     2A    -15.519325     3A    -11.264449  
       4A    -11.263018     5A    -11.239115     6A     -1.384279  
       7A     -1.172194     8A     -0.999742     9A     -0.909650  
      10A     -0.811656    11A     -0.684787    12A     -0.679908  
      13A     -0.646634    14A     -0.611227    15A     -0.599445  
      16A     -0.548868    17A     -0.524136    18A     -0.495491  
      19A     -0.474516    20A     -0.422661    21A     -0.376194  

    Virtual:                                                              

      22A      0.142995    23A      0.158910    24A      0.174324  
      25A      0.193254    26A      0.214579    27A      0.219408  
      28A      0.226544    29A      0.246262    30A      0.272343  
      31A      0.274589    32A      0.330490    33A      0.352632  
      34A      0.383589    35A      0.393629    36A      0.402602  
      37A      0.469099    38A      0.494545    39A      0.519269  
      40A      0.536640    41A      0.550432    42A      0.561937  
      43A      0.579014    44A      0.597997    45A      0.624244  
      46A      0.631719    47A      0.636561    48A      0.644402  
      49A      0.649093    50A      0.655316    51A      0.676282  
      52A      0.685879    53A      0.709541    54A      0.723457  
      55A      0.743882    56A      0.753001    57A      0.756886  
      58A      0.792698    59A      0.825881    60A      0.873385  
      61A      0.898431    62A      0.923171    63A      0.929741  
      64A      0.977126    65A      1.002937    66A      1.038777  
      67A      1.058095    68A      1.097556    69A      1.124554  
      70A      1.128377    71A      1.151030    72A      1.171988  
      73A      1.189066    74A      1.195380    75A      1.208916  
      76A      1.247195    77A      1.258214    78A      1.267567  
      79A      1.304320    80A      1.326014    81A      1.331659  
      82A      1.368836    83A      1.383250    84A      1.385920  
      85A      1.412663    86A      1.437630    87A      1.450730  
      88A      1.474109    89A      1.479870    90A      1.495638  
      91A      1.525256    92A      1.533963    93A      1.549258  
      94A      1.565231    95A      1.596573    96A      1.611935  
      97A      1.613276    98A      1.630341    99A      1.664458  
     100A      1.693482   101A      1.760544   102A      1.774467  
     103A      1.796128   104A      1.858811   105A      1.880415  
     106A      1.944726   107A      1.977230   108A      2.004700  
     109A      2.068072   110A      2.104872   111A      2.242897  
     112A      2.271195   113A      2.336724   114A      2.342672  
     115A      2.475533   116A      2.496503   117A      2.544533  
     118A      2.617759   119A      2.624445   120A      2.671299  
     121A      2.693291   122A      2.778761   123A      2.801657  
     124A      2.819225   125A      2.856742   126A      2.863980  
     127A      2.932532   128A      2.995601   129A      3.040066  
     130A      3.063541   131A      3.084730   132A      3.104386  
     133A      3.116689   134A      3.133882   135A      3.177892  
     136A      3.185840   137A      3.211602   138A      3.226682  
     139A      3.245501   140A      3.257754   141A      3.279499  
     142A      3.303075   143A      3.307200   144A      3.323853  
     145A      3.346033   146A      3.360298   147A      3.384379  
     148A      3.402449   149A      3.452027   150A      3.456750  
     151A      3.479200   152A      3.499411   153A      3.510712  
     154A      3.531190   155A      3.580261   156A      3.600615  
     157A      3.621997   158A      3.632103   159A      3.646125  
     160A      3.684652   161A      3.708262   162A      3.711314  
     163A      3.734604   164A      3.746403   165A      3.757435  
     166A      3.777870   167A      3.802280   168A      3.809063  
     169A      3.811039   170A      3.853057   171A      3.861560  
     172A      3.872621   173A      3.891751   174A      3.907029  
     175A      3.930208   176A      3.969835   177A      3.981468  
     178A      3.991013   179A      4.015513   180A      4.057899  
     181A      4.076004   182A      4.091272   183A      4.128550  
     184A      4.160394   185A      4.174932   186A      4.192887  
     187A      4.199312   188A      4.233174   189A      4.249420  
     190A      4.263687   191A      4.292373   192A      4.320837  
     193A      4.345756   194A      4.361294   195A      4.371193  
     196A      4.388993   197A      4.402776   198A      4.424084  
     199A      4.432051   200A      4.451151   201A      4.478100  
     202A      4.504973   203A      4.519036   204A      4.548586  
     205A      4.569306   206A      4.573044   207A      4.616164  
     208A      4.650568   209A      4.675177   210A      4.714421  
     211A      4.750089   212A      4.781358   213A      4.795359  
     214A      4.838800   215A      4.865194   216A      4.877615  
     217A      4.915513   218A      5.038647   219A      5.049140  
     220A      5.066533   221A      5.097410   222A      5.190282  
     223A      5.217852   224A      5.227530   225A      5.253184  
     226A      5.305681   227A      5.309920   228A      5.355837  
     229A      5.396662   230A      5.407318   231A      5.437969  
     232A      5.454249   233A      5.470259   234A      5.517209  
     235A      5.553314   236A      5.569595   237A      5.592639  
     238A      5.606325   239A      5.645079   240A      5.688348  
     241A      5.703618   242A      5.744003   243A      5.794712  
     244A      5.842240   245A      5.881242   246A      5.924821  
     247A      5.948743   248A      5.989192   249A      6.040418  
     250A      6.109248   251A      6.192021   252A      6.218091  
     253A      6.234795   254A      6.254866   255A      6.306226  
     256A      6.337964   257A      6.396179   258A      6.469851  
     259A      6.538599   260A      6.589760   261A      6.638629  
     262A      6.704146   263A      6.739950   264A      6.895585  
     265A      6.966098   266A      7.333334   267A      7.368006  
     268A      7.399002   269A      7.566456   270A      7.907274  
     271A      7.916688   272A     11.379087   273A     12.673133  
     274A     13.667453   275A     14.020751   276A     14.265242  

    Final Occupation by Irrep:
              A 
    DOCC [    21 ]

  Energy converged.

  @DF-RHF Final Energy:  -248.22008295164923

   => Energetics <=

    Nuclear Repulsion Energy =            196.1366957757224725
    One-Electron Energy =                -726.3599496280853600
    Two-Electron Energy =                 282.0031709007136556
    DFT Exchange-Correlation Energy =       0.0000000000000000
    Empirical Dispersion Energy =           0.0000000000000000
    PCM Polarization Energy =               0.0000000000000000
    EFP Energy =                            0.0000000000000000
    Total Energy =                       -248.2200829516492036

    Alert: EFP and PCM quantities not currently incorporated into SCF psivars.

Properties will be evaluated at   0.000000,   0.000000,   0.000000 Bohr
  ==> Properties <==


Properties computed using the SCF density matrix

  Nuclear Dipole Moment: (a.u.)
     X:     0.9548      Y:     1.6165      Z:    -0.1261

  Electronic Dipole Moment: (a.u.)
     X:    -0.7322      Y:    -1.2575      Z:    -0.2034

  Dipole Moment: (a.u.)
     X:     0.2227      Y:     0.3590      Z:    -0.3295     Total:     0.5358

  Dipole Moment: (Debye)
     X:     0.5659      Y:     0.9126      Z:    -0.8375     Total:     1.3618


  Saving occupied orbitals to File 180.

*** tstop() called on cx1-27-2-4 at Fri Sep  9 20:40:52 2016
Module time:
	user time   =      26.25 seconds =       0.44 minutes
	system time =       0.35 seconds =       0.01 minutes
	total time  =          8 seconds =       0.13 minutes
Total time:
	user time   =      26.25 seconds =       0.44 minutes
	system time =       0.35 seconds =       0.01 minutes
	total time  =          8 seconds =       0.13 minutes

*** tstart() called on cx1-27-2-4
*** at Fri Sep  9 20:40:52 2016


         ------------------------------------------------------------
                                   SCF GRAD                          
                          Rob Parrish, Justin Turney,                
                       Andy Simmonett, and Alex Sokolov              
         ------------------------------------------------------------

  ==> Geometry <==

    Molecular point group: c1
    Full point group: C1

    Geometry (in Angstrom), charge = 0, multiplicity = 1:

       Center              X                  Y                   Z               Mass       
    ------------   -----------------  -----------------  -----------------  -----------------
           H         -2.742672527302    -0.735670079003    -0.326031251190     1.007825032070
           N         -1.805075527302    -0.605887079003    -0.011168251190    14.003074004780
           C         -1.267633527302     0.657444920997    -0.481583251190    12.000000000000
           H         -1.259888527302    -1.362543079003    -0.366470251190     1.007825032070
           C          0.155975472698     0.837502920997    -0.006647251190    12.000000000000
           H         -1.283279527302     0.758064920997    -1.566099251190     1.007825032070
           H         -1.866111527302     1.463516920997    -0.071555251190     1.007825032070
           O          0.785440472698    -0.407952079003     0.011300748810    15.994914619560
           H          0.685723472698     1.514732920997    -0.675153251190     1.007825032070
           H          0.156424472698     1.272780920997     0.990077748810     1.007825032070
           C          2.086388472698    -0.389000079003     0.497505748810    12.000000000000
           H          2.469483472698    -1.398617079003     0.461496748810     1.007825032070
           H          2.727502472698     0.249412920997    -0.106727251190     1.007825032070
           H          2.121711472698    -0.037106079003     1.525847748810     1.007825032070

  Nuclear repulsion =  196.136695775722472

  ==> Basis Set <==

  Basis Set: CC-PVTZ
    Number of shells: 104
    Number of basis function: 276
    Number of Cartesian functions: 310
    Spherical Harmonics?: true
    Max angular momentum: 3

  ==> DFJKGrad: Density-Fitted SCF Gradients <==

    Gradient:                    1
    J tasked:                  Yes
    K tasked:                  Yes
    wK tasked:                  No
    OpenMP threads:              4
    Integrals threads:           4
    Memory (MB):              1430
    Schwarz Cutoff:          0E+00
    Fitting Condition:       1E-12

   => Auxiliary Basis Set <=

  Basis Set: 
    Number of shells: 215
    Number of basis function: 665
    Number of Cartesian functions: 795
    Spherical Harmonics?: true
    Max angular momentum: 4


  -Total Gradient:
     Atom            X                  Y                   Z
    ------   -----------------  -----------------  -----------------
       1        0.000284165484    -0.001523926363     0.000130554321
       2        0.003571031590    -0.000698268026     0.000137182236
       3        0.005276594928     0.002650825291     0.004909805104
       4        0.000274822458    -0.001162845041    -0.002387326762
       5       -0.004403343847     0.002724809516    -0.006094117483
       6        0.002168789603     0.001706872643     0.000603060182
       7        0.000232791590    -0.000299774643     0.002343726940
       8       -0.005474251778    -0.003627012957     0.002722521681
       9        0.000096297824    -0.001112722835    -0.002105378172
      10       -0.002224271520     0.001693689943    -0.001007495872
      11        0.000171052110    -0.000443616246     0.000912980151
      12        0.000085530946     0.000020668143    -0.000067093483
      13       -0.000322395163     0.000036184256    -0.000122810451
      14        0.000263185774     0.000035116322     0.000024391609


*** tstop() called on cx1-27-2-4 at Fri Sep  9 20:41:05 2016
Module time:
	user time   =      49.43 seconds =       0.82 minutes
	system time =       0.39 seconds =       0.01 minutes
	total time  =         13 seconds =       0.22 minutes
Total time:
	user time   =      75.70 seconds =       1.26 minutes
	system time =       0.74 seconds =       0.01 minutes
	total time  =         21 seconds =       0.35 minutes
CURRENT ENERGY: -248.2200829516

			-----------------------------------------
			 OPTKING 2.0: for geometry optimizations 
			  - R.A. King,  Bethel University        
			-----------------------------------------

	Internal coordinates to be generated automatically.
	Detected frag with atoms:  1 2 3 4 5 6 7 8 9 10 11 12 13 14
	---Fragment 1 Bond Connectivity---
	 1 : 2
	 2 : 1 3 4
	 3 : 2 5 6 7
	 4 : 2
	 5 : 3 8 9 10
	 6 : 3
	 7 : 3
	 8 : 5 11
	 9 : 5
	 10 : 5
	 11 : 8 12 13 14
	 12 : 11
	 13 : 11
	 14 : 11

	Assuming in current code that numbering for constraints corresponds to unified fragment.
	Frozen dihedral atom list: 
	     8     5     3     6
	---Fragment 1 Geometry and Gradient---
	 H          -5.1828999488       -1.3902149735       -0.6161097755
	 N          -3.4110983958       -1.1449606468       -0.0211049361
	 C          -2.3954802035        1.2423908481       -0.9100604549
	 H          -2.3808442746       -2.5748332636       -0.6925284106
	 C           0.2947509268        1.5826511562       -0.0125614843
	 H          -2.4250468585        1.4325350916       -2.9594986817
	 H          -3.5264397200        2.7656461715       -0.1352198281
	 O           1.4842673871       -0.7709177047        0.0213553203
	 H           1.2958295663        2.8624303852       -1.2758547425
	 H           0.2955994139        2.4052073678        1.8709757955
	 C           3.9427028202       -0.7351036150        0.9401496148
	 H           4.6666474531       -2.6430032441        0.8721024665
	 H           5.1542327002        0.4713221147       -0.2016852757
	 H           4.0094536164       -0.0701203272        2.8834343657
	             0.0002841655       -0.0015239264        0.0001305543
	             0.0035710316       -0.0006982680        0.0001371822
	             0.0052765949        0.0026508253        0.0049098051
	             0.0002748225       -0.0011628450       -0.0023873268
	            -0.0044033438        0.0027248095       -0.0060941175
	             0.0021687896        0.0017068726        0.0006030602
	             0.0002327916       -0.0002997746        0.0023437269
	            -0.0054742518       -0.0036270130        0.0027225217
	             0.0000962978       -0.0011127228       -0.0021053782
	            -0.0022242715        0.0016936899       -0.0010074959
	             0.0001710521       -0.0004436162        0.0009129802
	             0.0000855309        0.0000206681       -0.0000670935
	            -0.0003223952        0.0000361843       -0.0001228105
	             0.0002631858        0.0000351163        0.0000243916

	Previous optimization step data not found.  Starting new optimization.

	---Fragment 1 Intrafragment Coordinates---
	 - Coordinate -           - BOHR/RAD -       - ANG/DEG -
	 R(1,2)           =         1.885063	       0.997532
	 R(2,3)           =         2.742475	       1.451255
	 R(2,4)           =         1.885940	       0.997996
	 R(3,5)           =         2.856331	       1.511505
	 R(3,6)           =         2.058452	       1.089286
	 R(3,7)           =         2.049330	       1.084459
	 R(5,8)           =         2.637307	       1.395603
	 R(5,9)           =         2.058131	       1.089116
	 R(5,10)          =         2.055313	       1.087625
	 R(8,11)          =         2.624761	       1.388964
	 R(11,12)         =         2.041766	       1.080456
	 R(11,13)         =         2.055980	       1.087978
	 R(11,14)         =         2.054997	       1.087458
	 B(1,2,3)         =         1.938016	     111.040145
	 B(1,2,4)         =         1.878052	     107.604457
	 B(2,3,5)         =         1.929054	     110.526646
	 B(2,3,6)         =         1.979931	     113.441713
	 B(2,3,7)         =         1.896648	     108.669899
	 B(3,2,4)         =         1.920155	     110.016754
	 B(3,5,8)         =         1.899206	     108.816509
	 B(3,5,9)         =         1.916995	     109.835711
	 B(3,5,10)        =         1.913481	     109.634383
	 B(5,3,6)         =         1.891635	     108.382693
	 B(5,3,7)         =         1.888545	     108.205645
	 B(5,8,11)        =         1.998496	     114.505369
	 B(6,3,7)         =         1.875334	     107.448726
	 B(8,5,9)         =         1.921360	     110.085812
	 B(8,5,10)        =         1.923228	     110.192838
	 B(8,11,12)       =         1.883554	     107.919671
	 B(8,11,13)       =         1.944998	     111.440167
	 B(8,11,14)       =         1.945352	     111.460443
	 B(9,5,10)        =         1.889619	     108.267184
	 B(12,11,13)      =         1.897445	     108.715581
	 B(12,11,14)      =         1.899035	     108.806673
	 B(13,11,14)      =         1.892475	     108.430858
	 D(1,2,3,5)       =        -3.134339	    -179.584388
	 D(1,2,3,6)       =        -1.005669	     -57.620602
	 D(1,2,3,7)       =         1.078930	      61.818150
	 D(2,3,5,8)       =         0.609007	      34.893513
	 D(2,3,5,9)       =         2.713383	     155.465369
	 D(2,3,5,10)      =        -1.495520	     -85.686982
	 D(3,5,8,11)      =        -3.086779	    -176.859399
	 D(4,2,3,5)       =        -1.057160	     -60.570786
	 D(4,2,3,6)       =         1.071510	      61.393000
	 D(4,2,3,7)       =        -3.127076	    -179.168248
	 D(5,8,11,12)     =        -3.138577	    -179.827232
	 D(5,8,11,13)     =        -1.056505	     -60.533281
	 D(5,8,11,14)     =         1.060376	      60.755069
	*D(6,3,5,8)       =        -1.570797	     -90.000030
	 D(6,3,5,9)       =         0.533579	      30.571827
	 D(6,3,5,10)      =         2.607862	     149.419475
	 D(7,3,5,8)       =         2.683849	     153.773231
	 D(7,3,5,9)       =        -1.494960	     -85.654913
	 D(7,3,5,10)      =         0.579323	      33.192736
	 D(9,5,8,11)      =         1.094723	      62.722985
	 D(10,5,8,11)     =        -0.988269	     -56.623619

	Current energy   :      -248.2200829516

	Generating empirical Hessian (Schlegel '84) for each fragment.
	Taking RFO optimization step.
	Going to follow RFO solution 1.
	Using RFO vector 1.
	Norm of target step-size    0.31095
	Projected energy change by RFO approximation:        -0.0000638478

	Back-transformation to cartesian coordinates...
	Successfully converged to displaced geometry.

	Back-transformation to cartesian coordinates to adjust frozen coordinates...
	Successfully converged to displaced geometry.

	--- Internal Coordinate Step in ANG or DEG, aJ/ANG or AJ/DEG ---
	 ---------------------------------------------------------------------------
	   Coordinate                Previous        Force       Change         New 
	   ----------                --------       ------       ------       ------
	    1 R(1,2)          =      0.997532     0.000907     0.000120     0.997652
	    2 R(2,3)          =      1.451255    -0.006016    -0.001005     1.450250
	    3 R(2,4)          =      0.997996    -0.015503    -0.002057     0.995940
	    4 R(3,5)          =      1.511505     0.107139     0.021799     1.533304
	    5 R(3,6)          =      1.089286     0.003904     0.000711     1.089997
	    6 R(3,7)          =      1.084459    -0.004407    -0.000790     1.083669
	    7 R(5,8)          =      1.395603    -0.010012    -0.001376     1.394226
	    8 R(5,9)          =      1.089116    -0.005332    -0.000971     1.088145
	    9 R(5,10)         =      1.087625     0.002030     0.000368     1.087993
	   10 R(8,11)         =      1.388964    -0.003639    -0.000488     1.388476
	   11 R(11,12)        =      1.080456    -0.000109    -0.000019     1.080437
	   12 R(11,13)        =      1.087978     0.000828     0.000150     1.088128
	   13 R(11,14)        =      1.087458    -0.000354    -0.000064     1.087394
	   14 B(1,2,3)        =    111.040145    -0.000161    -0.496536   110.543609
	   15 B(1,2,4)        =    107.604457     0.000077     0.838114   108.442570
	   16 B(2,3,5)        =    110.526646     0.000505     2.512877   113.039523
	   17 B(2,3,6)        =    113.441713    -0.000023     2.416993   115.858707
	   18 B(2,3,7)        =    108.669899    -0.000273    -2.103736   106.566164
	   19 B(3,2,4)        =    110.016754     0.000118     0.789367   110.806121
	   20 B(3,5,8)        =    108.816509     0.000654     2.423059   111.239567
	   21 B(3,5,9)        =    109.835711    -0.000136     0.080789   109.916500
	   22 B(3,5,10)       =    109.634383     0.000029     0.278070   109.912453
	   23 B(5,3,6)        =    108.382693    -0.000057     1.066990   109.449683
	   24 B(5,3,7)        =    108.205645    -0.000110    -1.472544   106.733101
	   25 B(5,8,11)       =    114.505369    -0.000032    -0.094181   114.411188
	   26 B(6,3,7)        =    107.448726    -0.000063    -3.065227   104.383500
	   27 B(8,5,9)        =    110.085812    -0.000265    -0.076203   110.009609
	   28 B(8,5,10)       =    110.192838    -0.000272    -1.872742   108.320096
	   29 B(8,11,12)      =    107.919671    -0.000010    -0.054017   107.865654
	   30 B(8,11,13)      =    111.440167     0.000050     0.253950   111.694117
	   31 B(8,11,14)      =    111.460443    -0.000039    -0.193867   111.266576
	   32 B(9,5,10)       =    108.267184    -0.000017    -0.917695   107.349489
	   33 B(12,11,13)     =    108.715581    -0.000004     0.011569   108.727150
	   34 B(12,11,14)     =    108.806673     0.000002    -0.039311   108.767363
	   35 B(13,11,14)     =    108.430858     0.000001     0.019199   108.450057
	   36 D(1,2,3,5)      =   -179.584388    -0.000024    -0.723883  -180.308270
	   37 D(1,2,3,6)      =    -57.620602     0.000041     4.774207   -52.846395
	   38 D(1,2,3,7)      =     61.818150    -0.000024     0.941759    62.759909
	   39 D(2,3,5,8)      =     34.893513     0.000062     5.861382    40.754895
	   40 D(2,3,5,9)      =    155.465369     0.000061     7.382260   162.847629
	   41 D(2,3,5,10)     =    -85.686982     0.000042     6.477073   -79.209909
	   42 D(3,5,8,11)     =   -176.859399    -0.000019    -1.055425  -177.914825
	   43 D(4,2,3,5)      =    -60.570786    -0.000008     0.514756   -60.056030
	   44 D(4,2,3,6)      =     61.393000     0.000057     6.012845    67.405846
	   45 D(4,2,3,7)      =   -179.168248    -0.000007     2.180397  -176.987851
	   46 D(5,8,11,12)    =   -179.827232    -0.000004    -0.374665  -180.201897
	   47 D(5,8,11,13)    =    -60.533281    -0.000000    -0.244233   -60.777514
	   48 D(5,8,11,14)    =     60.755069     0.000002    -0.178099    60.576970
	   49 *D(6,3,5,8)     =    -90.000030     0.000000    -0.000000   -90.000030
	   50 D(6,3,5,9)      =     30.571827    -0.000000     1.520878    32.092704
	   51 D(6,3,5,10)     =    149.419475    -0.000020     0.615691   150.035167
	   52 D(7,3,5,8)      =    153.773231     0.000037     3.815006   157.588237
	   53 D(7,3,5,9)      =    -85.654913     0.000037     5.335884   -80.319029
	   54 D(7,3,5,10)     =     33.192736     0.000017     4.430698    37.623433
	   55 D(9,5,8,11)     =     62.722985    -0.000037    -2.676557    60.046428
	   56 D(10,5,8,11)    =    -56.623619     0.000045    -0.386953   -57.010572
	 ---------------------------------------------------------------------------

  ==> Convergence Check <==

  Measures of convergence in internal coordinates in au.
  Criteria marked as inactive (o), active & met (*), and active & unmet ( ).
  --------------------------------------------------------------------------------------------- ~
   Step     Total Energy     Delta E     MAX Force     RMS Force      MAX Disp      RMS Disp    ~
  --------------------------------------------------------------------------------------------- ~
    Convergence Criteria    1.00e-06 *    3.00e-04 *             o    1.20e-03 *             o  ~
  --------------------------------------------------------------------------------------------- ~
      1    -248.22008295   -2.48e+02      1.30e-02      2.75e-03 o    1.29e-01      4.15e-02 o  ~
  ---------------------------------------------------------------------------------------------

	Writing optimization data to binary file.
	Structure for next step:
	Cartesian Geometry (in Angstrom)
	    H    -2.8400519716  -0.6561845412  -0.3638036462
	    N    -1.9082764780  -0.5856416137  -0.0143350394
	    C    -1.2684913685   0.6176882350  -0.5102167698
	    H    -1.4036839854  -1.3965840229  -0.2965661882
	    C     0.1677245721   0.7872474492  -0.0007516087
	    H    -1.2888428883   0.7559983329  -1.5912117933
	    H    -1.8382613687   1.4533406179  -0.1211336501
	    O     0.8500771410  -0.4285901140   0.0004227397
	    H     0.6969345871   1.5106239020  -0.6177797320
	    H     0.1569593106   1.1743477782   1.0159909692
	    C     2.1460247956  -0.3588270223   0.4938971647
	    H     2.5712406474  -1.3511062519   0.4501161936
	    H     2.7656208310   0.3131297349  -0.0965245447
	    H     2.1570148670  -0.0187614516   1.5266893790
			--------------------------
			 OPTKING Finished Execution 
			--------------------------

    Structure for next step:
    Molecular point group: c1
    Full point group: C1

    Geometry (in Angstrom), charge = 0, multiplicity = 1:

    H           -2.845418126884    -0.646806766793    -0.357225781675
    N           -1.913642704437    -0.576263844634    -0.007757201543
    C           -1.273857643786     0.627065912118    -0.503638894107
    H           -1.409050250317    -1.387206191889    -0.289988328799
    C            0.162358187187     0.796625113442     0.005826228085
    H           -1.294209162051     0.765375999549    -1.584633835026
    H           -1.843627600443     1.462718231228    -0.114555804091
    O            0.844710703950    -0.419212356890     0.007000576409
    H            0.691568161747     1.520001511001    -0.611201848099
    H            0.151592926510     1.183725412879     1.022568728363
    C            2.140658259581    -0.349449270535     0.500474963696
    H            2.565874078928    -1.341728424388     0.456693995998
    H            2.760254247687     0.322507435349    -0.089946700564
    H            2.151648330155    -0.009383725813     1.533267099119

gradient() will perform analytic gradient computation.

*** tstart() called on cx1-27-2-4
*** at Fri Sep  9 20:41:06 2016


         ---------------------------------------------------------
                                   SCF
            by Justin Turney, Rob Parrish, and Andy Simmonett
                              RHF Reference
                        4 Threads,   2000 MiB Core
         ---------------------------------------------------------

  ==> Geometry <==

    Molecular point group: c1
    Full point group: C1

    Geometry (in Angstrom), charge = 0, multiplicity = 1:

       Center              X                  Y                   Z               Mass       
    ------------   -----------------  -----------------  -----------------  -----------------
           H         -2.845418126884    -0.646806766793    -0.357225781675     1.007825032070
           N         -1.913642704437    -0.576263844634    -0.007757201543    14.003074004780
           C         -1.273857643786     0.627065912118    -0.503638894107    12.000000000000
           H         -1.409050250317    -1.387206191889    -0.289988328799     1.007825032070
           C          0.162358187187     0.796625113442     0.005826228085    12.000000000000
           H         -1.294209162051     0.765375999549    -1.584633835026     1.007825032070
           H         -1.843627600443     1.462718231228    -0.114555804091     1.007825032070
           O          0.844710703950    -0.419212356890     0.007000576409    15.994914619560
           H          0.691568161747     1.520001511001    -0.611201848099     1.007825032070
           H          0.151592926510     1.183725412879     1.022568728363     1.007825032070
           C          2.140658259581    -0.349449270535     0.500474963696    12.000000000000
           H          2.565874078928    -1.341728424388     0.456693995998     1.007825032070
           H          2.760254247687     0.322507435349    -0.089946700564     1.007825032070
           H          2.151648330155    -0.009383725813     1.533267099119     1.007825032070

  Running in c1 symmetry.

  Rotational constants: A =      0.42935  B =      0.09136  C =      0.08012 [cm^-1]
  Rotational constants: A =  12871.44382  B =   2739.04981  C =   2402.03193 [MHz]
  Nuclear repulsion =  194.109255909313788

  Charge       = 0
  Multiplicity = 1
  Electrons    = 42
  Nalpha       = 21
  Nbeta        = 21

  ==> Algorithm <==

  SCF Algorithm Type is DF.
  DIIS enabled.
  MOM disabled.
  Fractional occupation disabled.
  Guess Type is READ.
  Energy threshold   = 1.00e-08
  Density threshold  = 1.00e-08
  Integral threshold = 0.00e+00

  ==> Primary Basis <==

  Basis Set: CC-PVTZ
    Number of shells: 104
    Number of basis function: 276
    Number of Cartesian functions: 310
    Spherical Harmonics?: true
    Max angular momentum: 3

  ==> Pre-Iterations <==

   -------------------------------------------------------
    Irrep   Nso     Nmo     Nalpha   Nbeta   Ndocc  Nsocc
   -------------------------------------------------------
     A        276     276       0       0       0       0
   -------------------------------------------------------
    Total     276     276      21      21      21       0
   -------------------------------------------------------

 OEINTS: Overlap, kinetic, potential, dipole, and quadrupole integrals
         stored in file 35.

  ==> Integral Setup <==

  ==> DFJK: Density-Fitted J/K Matrices <==

    J tasked:                  Yes
    K tasked:                  Yes
    wK tasked:                  No
    OpenMP threads:              4
    Integrals threads:           4
    Memory (MB):              1430
    Algorithm:                Core
    Integral Cache:           NONE
    Schwarz Cutoff:          1E-12
    Fitting Condition:       1E-12

   => Auxiliary Basis Set <=

  Basis Set: 
    Number of shells: 215
    Number of basis function: 665
    Number of Cartesian functions: 795
    Spherical Harmonics?: true
    Max angular momentum: 4

  Minimum eigenvalue in the overlap matrix is 6.2546635115E-04.
  Using Symmetric Orthogonalization.
  SCF Guess: Reading in previously saved MOs, projecting if necessary.

  Using orbitals from previous SCF, no projection.
  Recomputing DOCC and SOCC from number of alpha and beta electrons from previous calculation.
              A 
    DOCC [    21 ]

  ==> Iterations <==

                           Total Energy        Delta E     RMS |[F,P]|

   @DF-RHF iter   0:  -248.21022292979143   -2.48210e+02   5.49084e-04 
   @DF-RHF iter   1:  -248.22032679254141   -1.01039e-02   9.11877e-05 
   @DF-RHF iter   2:  -248.22084043773873   -5.13645e-04   3.16216e-05 DIIS
   @DF-RHF iter   3:  -248.22090973532772   -6.92976e-05   1.35272e-05 DIIS
   @DF-RHF iter   4:  -248.22091937784103   -9.64251e-06   2.37219e-06 DIIS
   @DF-RHF iter   5:  -248.22091997174851   -5.93907e-07   8.89747e-07 DIIS
   @DF-RHF iter   6:  -248.22092003231995   -6.05714e-08   3.30874e-07 DIIS
   @DF-RHF iter   7:  -248.22092003981777   -7.49782e-09   8.32543e-08 DIIS
   @DF-RHF iter   8:  -248.22092004038160   -5.63830e-10   1.90973e-08 DIIS
   @DF-RHF iter   9:  -248.22092004041224   -3.06386e-11   5.49242e-09 DIIS

  ==> Post-Iterations <==

    Orbital Energies (a.u.)
    -----------------------

    Doubly Occupied:                                                      

       1A    -20.549551     2A    -15.523619     3A    -11.266889  
       4A    -11.263478     5A    -11.242419     6A     -1.383807  
       7A     -1.173847     8A     -0.997497     9A     -0.909573  
      10A     -0.815451    11A     -0.682012    12A     -0.677395  
      13A     -0.646546    14A     -0.612446    15A     -0.607129  
      16A     -0.547267    17A     -0.525709    18A     -0.495430  
      19A     -0.473030    20A     -0.420642    21A     -0.379575  

    Virtual:                                                              

      22A      0.142606    23A      0.157842    24A      0.174740  
      25A      0.195465    26A      0.213998    27A      0.218941  
      28A      0.226113    29A      0.245917    30A      0.269894  
      31A      0.274844    32A      0.334593    33A      0.352432  
      34A      0.383466    35A      0.393061    36A      0.402952  
      37A      0.465543    38A      0.495258    39A      0.509662  
      40A      0.533882    41A      0.551577    42A      0.565362  
      43A      0.578977    44A      0.597295    45A      0.624641  
      46A      0.626588    47A      0.638227    48A      0.645758  
      49A      0.649957    50A      0.650370    51A      0.673594  
      52A      0.683386    53A      0.704906    54A      0.729501  
      55A      0.739301    56A      0.746251    57A      0.750582  
      58A      0.796362    59A      0.829298    60A      0.869676  
      61A      0.895972    62A      0.913926    63A      0.922140  
      64A      0.961942    65A      0.991198    66A      1.027204  
      67A      1.053208    68A      1.091732    69A      1.120773  
      70A      1.127399    71A      1.145483    72A      1.170149  
      73A      1.181205    74A      1.191516    75A      1.213606  
      76A      1.247804    77A      1.251262    78A      1.271233  
      79A      1.296555    80A      1.316557    81A      1.335000  
      82A      1.356803    83A      1.375623    84A      1.381437  
      85A      1.417478    86A      1.437890    87A      1.457399  
      88A      1.464510    89A      1.468460    90A      1.492741  
      91A      1.518797    92A      1.539305    93A      1.551212  
      94A      1.567119    95A      1.588543    96A      1.610066  
      97A      1.619655    98A      1.628414    99A      1.654312  
     100A      1.697501   101A      1.757027   102A      1.771220  
     103A      1.798038   104A      1.851726   105A      1.885278  
     106A      1.910565   107A      1.968681   108A      1.999354  
     109A      2.080033   110A      2.099363   111A      2.234816  
     112A      2.273680   113A      2.333476   114A      2.347164  
     115A      2.485518   116A      2.496396   117A      2.553571  
     118A      2.620818   119A      2.629494   120A      2.672018  
     121A      2.693704   122A      2.756624   123A      2.782990  
     124A      2.811852   125A      2.844705   126A      2.853705  
     127A      2.923898   128A      2.971084   129A      3.034711  
     130A      3.059583   131A      3.076161   132A      3.104765  
     133A      3.118711   134A      3.128491   135A      3.163391  
     136A      3.186783   137A      3.209493   138A      3.222767  
     139A      3.242517   140A      3.254440   141A      3.274832  
     142A      3.298892   143A      3.312141   144A      3.314326  
     145A      3.342920   146A      3.358568   147A      3.379455  
     148A      3.399769   149A      3.438825   150A      3.448407  
     151A      3.473177   152A      3.488132   153A      3.509905  
     154A      3.535407   155A      3.574009   156A      3.583113  
     157A      3.621076   158A      3.627275   159A      3.641758  
     160A      3.682738   161A      3.710052   162A      3.713678  
     163A      3.721117   164A      3.749182   165A      3.751731  
     166A      3.772813   167A      3.793480   168A      3.801532  
     169A      3.810774   170A      3.835823   171A      3.847669  
     172A      3.859130   173A      3.896670   174A      3.922195  
     175A      3.927200   176A      3.964128   177A      3.972246  
     178A      3.989683   179A      4.008200   180A      4.063101  
     181A      4.069615   182A      4.089123   183A      4.111794  
     184A      4.140467   185A      4.168991   186A      4.188281  
     187A      4.194789   188A      4.225591   189A      4.241335  
     190A      4.258267   191A      4.289928   192A      4.318314  
     193A      4.337481   194A      4.347029   195A      4.371063  
     196A      4.384589   197A      4.389653   198A      4.424526  
     199A      4.435311   200A      4.444575   201A      4.471339  
     202A      4.487479   203A      4.501683   204A      4.550869  
     205A      4.574868   206A      4.587322   207A      4.606091  
     208A      4.653137   209A      4.677848   210A      4.705993  
     211A      4.740290   212A      4.770807   213A      4.800384  
     214A      4.827332   215A      4.861246   216A      4.862189  
     217A      4.916105   218A      5.032757   219A      5.035860  
     220A      5.062983   221A      5.091980   222A      5.176406  
     223A      5.216191   224A      5.229221   225A      5.247199  
     226A      5.284242   227A      5.317716   228A      5.344438  
     229A      5.386281   230A      5.406131   231A      5.441517  
     232A      5.442117   233A      5.465057   234A      5.513851  
     235A      5.555790   236A      5.563299   237A      5.579203  
     238A      5.608210   239A      5.626968   240A      5.691987  
     241A      5.716972   242A      5.736952   243A      5.795217  
     244A      5.842470   245A      5.866800   246A      5.924709  
     247A      5.944119   248A      5.975373   249A      6.021354  
     250A      6.125356   251A      6.194632   252A      6.225603  
     253A      6.243001   254A      6.253544   255A      6.302180  
     256A      6.330311   257A      6.390626   258A      6.469555  
     259A      6.533167   260A      6.591472   261A      6.627190  
     262A      6.710882   263A      6.742503   264A      6.886903  
     265A      6.969314   266A      7.339133   267A      7.366645  
     268A      7.382343   269A      7.564920   270A      7.896729  
     271A      7.912621   272A     11.276376   273A     12.632754  
     274A     13.580058   275A     13.949609   276A     14.227454  

    Final Occupation by Irrep:
              A 
    DOCC [    21 ]

  Energy converged.

  @DF-RHF Final Energy:  -248.22092004041224

   => Energetics <=

    Nuclear Repulsion Energy =            194.1092559093137879
    One-Electron Energy =                -722.2737324748956098
    Two-Electron Energy =                 279.9435565251695834
    DFT Exchange-Correlation Energy =       0.0000000000000000
    Empirical Dispersion Energy =           0.0000000000000000
    PCM Polarization Energy =               0.0000000000000000
    EFP Energy =                            0.0000000000000000
    Total Energy =                       -248.2209200404122384

    Alert: EFP and PCM quantities not currently incorporated into SCF psivars.

Properties will be evaluated at   0.000000,   0.000000,   0.000000 Bohr
  ==> Properties <==


Properties computed using the SCF density matrix

  Nuclear Dipole Moment: (a.u.)
     X:     0.8802      Y:     1.7520      Z:    -0.0328

  Electronic Dipole Moment: (a.u.)
     X:    -0.6807      Y:    -1.4054      Z:    -0.2856

  Dipole Moment: (a.u.)
     X:     0.1995      Y:     0.3466      Z:    -0.3184     Total:     0.5112

  Dipole Moment: (Debye)
     X:     0.5071      Y:     0.8809      Z:    -0.8093     Total:     1.2993


  Saving occupied orbitals to File 180.

*** tstop() called on cx1-27-2-4 at Fri Sep  9 20:41:13 2016
Module time:
	user time   =      20.61 seconds =       0.34 minutes
	system time =       0.27 seconds =       0.00 minutes
	total time  =          7 seconds =       0.12 minutes
Total time:
	user time   =      97.71 seconds =       1.63 minutes
	system time =       1.07 seconds =       0.02 minutes
	total time  =         29 seconds =       0.48 minutes

*** tstart() called on cx1-27-2-4
*** at Fri Sep  9 20:41:13 2016


         ------------------------------------------------------------
                                   SCF GRAD                          
                          Rob Parrish, Justin Turney,                
                       Andy Simmonett, and Alex Sokolov              
         ------------------------------------------------------------

  ==> Geometry <==

    Molecular point group: c1
    Full point group: C1

    Geometry (in Angstrom), charge = 0, multiplicity = 1:

       Center              X                  Y                   Z               Mass       
    ------------   -----------------  -----------------  -----------------  -----------------
           H         -2.845418126884    -0.646806766793    -0.357225781675     1.007825032070
           N         -1.913642704437    -0.576263844634    -0.007757201543    14.003074004780
           C         -1.273857643786     0.627065912118    -0.503638894107    12.000000000000
           H         -1.409050250317    -1.387206191889    -0.289988328799     1.007825032070
           C          0.162358187187     0.796625113442     0.005826228085    12.000000000000
           H         -1.294209162051     0.765375999549    -1.584633835026     1.007825032070
           H         -1.843627600443     1.462718231228    -0.114555804091     1.007825032070
           O          0.844710703950    -0.419212356890     0.007000576409    15.994914619560
           H          0.691568161747     1.520001511001    -0.611201848099     1.007825032070
           H          0.151592926510     1.183725412879     1.022568728363     1.007825032070
           C          2.140658259581    -0.349449270535     0.500474963696    12.000000000000
           H          2.565874078928    -1.341728424388     0.456693995998     1.007825032070
           H          2.760254247687     0.322507435349    -0.089946700564     1.007825032070
           H          2.151648330155    -0.009383725813     1.533267099119     1.007825032070

  Nuclear repulsion =  194.109255909313788

  ==> Basis Set <==

  Basis Set: CC-PVTZ
    Number of shells: 104
    Number of basis function: 276
    Number of Cartesian functions: 310
    Spherical Harmonics?: true
    Max angular momentum: 3

  ==> DFJKGrad: Density-Fitted SCF Gradients <==

    Gradient:                    1
    J tasked:                  Yes
    K tasked:                  Yes
    wK tasked:                  No
    OpenMP threads:              4
    Integrals threads:           4
    Memory (MB):              1430
    Schwarz Cutoff:          0E+00
    Fitting Condition:       1E-12

   => Auxiliary Basis Set <=

  Basis Set: 
    Number of shells: 215
    Number of basis function: 665
    Number of Cartesian functions: 795
    Spherical Harmonics?: true
    Max angular momentum: 4


  -Total Gradient:
     Atom            X                  Y                   Z
    ------   -----------------  -----------------  -----------------
       1       -0.000697778877     0.000348173064    -0.000024318670
       2       -0.004387807211    -0.001837433952     0.001495074220
       3       -0.000607491129    -0.008925450770    -0.002809454131
       4       -0.000417611509     0.001155189693     0.000117600764
       5        0.002700690114     0.003535512434    -0.007660070317
       6       -0.001639091872     0.009146202406     0.001275902187
       7       -0.001298281722    -0.003052816633    -0.000208846399
       8        0.001714008767     0.001133428811     0.007342097666
       9        0.001761826525    -0.000864503800     0.000857393078
      10        0.002149879956    -0.000456821638    -0.000249702409
      11        0.000559262110     0.000047531330    -0.000082409046
      12        0.000055858242    -0.000058869115     0.000021264258
      13        0.000260823269    -0.000019819954     0.000106793197
      14       -0.000154286664    -0.000150321877    -0.000181324398


*** tstop() called on cx1-27-2-4 at Fri Sep  9 20:41:26 2016
Module time:
	user time   =      51.46 seconds =       0.86 minutes
	system time =       0.42 seconds =       0.01 minutes
	total time  =         13 seconds =       0.22 minutes
Total time:
	user time   =     149.18 seconds =       2.49 minutes
	system time =       1.49 seconds =       0.02 minutes
	total time  =         42 seconds =       0.70 minutes
CURRENT ENERGY: -248.2209200404

			-----------------------------------------
			 OPTKING 2.0: for geometry optimizations 
			  - R.A. King,  Bethel University        
			-----------------------------------------

	Previous internal coordinate definitions found.
	---Fragment 1 Geometry and Gradient---
	 H          -5.3770609934       -1.2222876501       -0.6750588950
	 N          -3.6162606276       -1.0889808466       -0.0146589865
	 C          -2.4072420790        1.1849828412       -0.9517395797
	 H          -2.6627190806       -2.6214397925       -0.5479985232
	 C           0.3068125092        1.5054032950        0.0110099755
	 H          -2.4457008749        1.4463510278       -2.9945239691
	 H          -3.4839512559        2.7641368666       -0.2164790967
	 O           1.5962718920       -0.7921965460        0.0132291722
	 H           1.3068744279        2.8723865774       -1.1550041048
	 H           0.2864691148        2.2369168469        1.9323748487
	 C           4.0452578547       -0.6603634186        0.9457606178
	 H           4.8487993006       -2.5354992668        0.8630265790
	 H           5.2161245853        0.6094507286       -0.1699746306
	 H           4.0660260783       -0.0177326719        2.8974549059
	            -0.0006977789        0.0003481731       -0.0000243187
	            -0.0043878072       -0.0018374340        0.0014950742
	            -0.0006074911       -0.0089254508       -0.0028094541
	            -0.0004176115        0.0011551897        0.0001176008
	             0.0027006901        0.0035355124       -0.0076600703
	            -0.0016390919        0.0091462024        0.0012759022
	            -0.0012982817       -0.0030528166       -0.0002088464
	             0.0017140088        0.0011334288        0.0073420977
	             0.0017618265       -0.0008645038        0.0008573931
	             0.0021498800       -0.0004568216       -0.0002497024
	             0.0005592621        0.0000475313       -0.0000824090
	             0.0000558582       -0.0000588691        0.0000212643
	             0.0002608233       -0.0000198200        0.0001067932
	            -0.0001542867       -0.0001503219       -0.0001813244

	---Fragment 1 Intrafragment Coordinates---
	 - Coordinate -           - BOHR/RAD -       - ANG/DEG -
	 R(1,2)           =         1.885290	       0.997652
	 R(2,3)           =         2.740576	       1.450250
	 R(2,4)           =         1.882053	       0.995940
	 R(3,5)           =         2.897525	       1.533304
	 R(3,6)           =         2.059796	       1.089997
	 R(3,7)           =         2.047837	       1.083669
	 R(5,8)           =         2.634706	       1.394226
	 R(5,9)           =         2.056297	       1.088145
	 R(5,10)          =         2.056008	       1.087993
	 R(8,11)          =         2.623838	       1.388476
	 R(11,12)         =         2.041729	       1.080437
	 R(11,13)         =         2.056264	       1.088128
	 R(11,14)         =         2.054876	       1.087394
	 B(1,2,3)         =         1.929350	     110.543609
	 B(1,2,4)         =         1.892680	     108.442570
	 B(2,3,5)         =         1.972912	     113.039523
	 B(2,3,6)         =         2.022116	     115.858707
	 B(2,3,7)         =         1.859930	     106.566164
	 B(3,2,4)         =         1.933932	     110.806121
	 B(3,5,8)         =         1.941497	     111.239567
	 B(3,5,9)         =         1.918405	     109.916500
	 B(3,5,10)        =         1.918334	     109.912453
	 B(5,3,6)         =         1.910257	     109.449683
	 B(5,3,7)         =         1.862844	     106.733101
	 B(5,8,11)        =         1.996852	     114.411188
	 B(6,3,7)         =         1.821836	     104.383500
	 B(8,5,9)         =         1.920030	     110.009609
	 B(8,5,10)        =         1.890542	     108.320096
	 B(8,11,12)       =         1.882611	     107.865654
	 B(8,11,13)       =         1.949430	     111.694117
	 B(8,11,14)       =         1.941968	     111.266576
	 B(9,5,10)        =         1.873602	     107.349489
	 B(12,11,13)      =         1.897647	     108.727150
	 B(12,11,14)      =         1.898349	     108.767363
	 B(13,11,14)      =         1.892811	     108.450057
	 D(1,2,3,5)       =         3.136212	     179.691730
	 D(1,2,3,6)       =        -0.922344	     -52.846395
	 D(1,2,3,7)       =         1.095367	      62.759909
	 D(2,3,5,8)       =         0.711307	      40.754895
	 D(2,3,5,9)       =         2.842227	     162.847629
	 D(2,3,5,10)      =        -1.382474	     -79.209909
	 D(3,5,8,11)      =        -3.105199	    -177.914825
	 D(4,2,3,5)       =        -1.048175	     -60.056030
	 D(4,2,3,6)       =         1.176454	      67.405846
	 D(4,2,3,7)       =        -3.089021	    -176.987851
	 D(5,8,11,12)     =         3.138069	     179.798103
	 D(5,8,11,13)     =        -1.060768	     -60.777514
	 D(5,8,11,14)     =         1.057268	      60.576970
	*D(6,3,5,8)       =        -1.570797	     -90.000030
	 D(6,3,5,9)       =         0.560123	      32.092704
	 D(6,3,5,10)      =         2.618608	     150.035167
	 D(7,3,5,8)       =         2.750434	     157.588237
	 D(7,3,5,9)       =        -1.401832	     -80.319029
	 D(7,3,5,10)      =         0.656653	      37.623433
	 D(9,5,8,11)      =         1.048008	      60.046428
	 D(10,5,8,11)     =        -0.995022	     -57.010572

	Current energy   :      -248.2209200404

	Energy change for the previous step:
		Projected    :        -0.0000638478
		Actual       :        -0.0008370888
	Energy ratio indicates good step: Trust radius increased to 1.000e+00.


	Performing BFGS update.
	Previous computed or guess Hessian on step 1.
	Steps to be used in Hessian update: 1
	Taking RFO optimization step.
	Going to follow RFO solution 1.
	Using RFO vector 1.
	Norm of target step-size    0.08931
	Projected energy change by RFO approximation:        -0.0014358736

	Back-transformation to cartesian coordinates...
	Successfully converged to displaced geometry.

	Back-transformation to cartesian coordinates to adjust frozen coordinates...
	Successfully converged to displaced geometry.

	--- Internal Coordinate Step in ANG or DEG, aJ/ANG or AJ/DEG ---
	 ---------------------------------------------------------------------------
	   Coordinate                Previous        Force       Change         New 
	   ----------                --------       ------       ------       ------
	    1 R(1,2)          =      0.997652    -0.005237    -0.000471     0.997181
	    2 R(2,3)          =      1.450250    -0.026760    -0.003151     1.447099
	    3 R(2,4)          =      0.995940     0.009767     0.000768     0.996708
	    4 R(3,5)          =      1.533304    -0.073131    -0.008939     1.524365
	    5 R(3,6)          =      1.089997     0.000611     0.000121     1.090118
	    6 R(3,7)          =      1.083669     0.014389     0.001735     1.085404
	    7 R(5,8)          =      1.394226    -0.003032    -0.000372     1.393855
	    8 R(5,9)          =      1.088145     0.001681     0.000151     1.088297
	    9 R(5,10)         =      1.087993     0.003437     0.000453     1.088446
	   10 R(8,11)         =      1.388476    -0.005077    -0.000500     1.387976
	   11 R(11,12)        =      1.080437    -0.000619    -0.000077     1.080360
	   12 R(11,13)        =      1.088128    -0.000645    -0.000072     1.088057
	   13 R(11,14)        =      1.087394     0.001819     0.000224     1.087617
	   14 B(1,2,3)        =    110.543609     0.000018     0.032694   110.576303
	   15 B(1,2,4)        =    108.442570    -0.000027    -0.019047   108.423523
	   16 B(2,3,5)        =    113.039523    -0.000462    -1.031423   112.008100
	   17 B(2,3,6)        =    115.858707     0.000078    -0.051354   115.807353
	   18 B(2,3,7)        =    106.566164     0.000319     1.329462   107.895626
	   19 B(3,2,4)        =    110.806121     0.000034     0.167073   110.973194
	   20 B(3,5,8)        =    111.239567    -0.000541    -1.210933   110.028634
	   21 B(3,5,9)        =    109.916500     0.000010    -0.200985   109.715515
	   22 B(3,5,10)       =    109.912453    -0.000028    -0.509760   109.402693
	   23 B(5,3,6)        =    109.449683     0.000170     0.068839   109.518522
	   24 B(5,3,7)        =    106.733101    -0.000021    -0.263394   106.469708
	   25 B(5,8,11)       =    114.411188    -0.000066    -0.142025   114.269163
	   26 B(6,3,7)        =    104.383500    -0.000051     0.060552   104.444051
	   27 B(8,5,9)        =    110.009609     0.000309     1.074053   111.083662
	   28 B(8,5,10)       =    108.320096     0.000246     0.482402   108.802498
	   29 B(8,11,12)      =    107.865654     0.000001     0.004588   107.870243
	   30 B(8,11,13)      =    111.694117    -0.000038    -0.115198   111.578919
	   31 B(8,11,14)      =    111.266576     0.000025     0.071854   111.338431
	   32 B(9,5,10)       =    107.349489     0.000028     0.409267   107.758756
	   33 B(12,11,13)     =    108.727150     0.000009     0.018074   108.745224
	   34 B(12,11,14)     =    108.767363     0.000003     0.029934   108.797296
	   35 B(13,11,14)     =    108.450057     0.000001    -0.006654   108.443403
	   36 D(1,2,3,5)      =    179.691730     0.000005     1.760381   181.452110
	   37 D(1,2,3,6)      =    -52.846395    -0.000022     0.864855   -51.981540
	   38 D(1,2,3,7)      =     62.759909     0.000023     1.829499    64.589408
	   39 D(2,3,5,8)      =     40.754895    -0.000030    -0.853316    39.901579
	   40 D(2,3,5,9)      =    162.847629    -0.000022    -0.441658   162.405971
	   41 D(2,3,5,10)     =    -79.209909    -0.000017    -0.367432   -79.577341
	   42 D(3,5,8,11)     =   -177.914825     0.000006     0.004454  -177.910370
	   43 D(4,2,3,5)      =    -60.056030     0.000005     1.867929   -58.188101
	   44 D(4,2,3,6)      =     67.405846    -0.000022     0.972404    68.378249
	   45 D(4,2,3,7)      =   -176.987851     0.000023     1.937048  -175.050803
	   46 D(5,8,11,12)    =    179.798103     0.000002    -0.233385   179.564718
	   47 D(5,8,11,13)    =    -60.777514    -0.000001    -0.276633   -61.054147
	   48 D(5,8,11,14)    =     60.576970    -0.000003    -0.315150    60.261820
	   49 *D(6,3,5,8)     =    -90.000030    -0.000000     0.000000   -90.000030
	   50 D(6,3,5,9)      =     32.092704     0.000008     0.411658    32.504362
	   51 D(6,3,5,10)     =    150.035167     0.000013     0.485884   150.521051
	   52 D(7,3,5,8)      =    157.588237    -0.000002     0.030709   157.618946
	   53 D(7,3,5,9)      =    -80.319029     0.000006     0.442368   -79.876662
	   54 D(7,3,5,10)     =     37.623433     0.000011     0.516593    38.140027
	   55 D(9,5,8,11)     =     60.046428     0.000038     0.349965    60.396393
	   56 D(10,5,8,11)    =    -57.010572    -0.000042    -1.055877   -58.066449
	 ---------------------------------------------------------------------------

  ==> Convergence Check <==

  Measures of convergence in internal coordinates in au.
  Criteria marked as inactive (o), active & met (*), and active & unmet ( ).
  ---------------------------------------------------------------------------------------------
   Step     Total Energy     Delta E     MAX Force     RMS Force      MAX Disp      RMS Disp   
  ---------------------------------------------------------------------------------------------
    Convergence Criteria    1.00e-06 *    3.00e-04 *             o    1.20e-03 *             o
  ---------------------------------------------------------------------------------------------
      2    -248.22092004   -8.37e-04      8.88e-03      2.15e-03 o    3.38e-02      1.19e-02 o  ~
  ---------------------------------------------------------------------------------------------

	Writing optimization data to binary file.
	Structure for next step:
	Cartesian Geometry (in Angstrom)
	    H    -2.8000033593  -0.6820206435  -0.3642539852
	    N    -1.8770215387  -0.5768700546  -0.0017377057
	    C    -1.2701106330   0.6384515991  -0.5004842627
	    H    -1.3425835470  -1.3762220991  -0.2641094326
	    C     0.1569087399   0.8138586633   0.0060113263
	    H    -1.2913544488   0.7701448492  -1.5824102193
	    H    -1.8391125527   1.4782165827  -0.1143075117
	    O     0.8182495104  -0.4131116451   0.0043844081
	    H     0.6793031449   1.5409933753  -0.6126720418
	    H     0.1345773802   1.1990014765   1.0237937189
	    C     2.1157890390  -0.3624690961   0.4945910325
	    H     2.5248109460  -1.3615770944   0.4538312981
	    H     2.7433276519   0.2968506551  -0.1015296127
	    H     2.1360791429  -0.0172773850   1.5257761830
			--------------------------
			 OPTKING Finished Execution 
			--------------------------

    Structure for next step:
    Molecular point group: c1
    Full point group: C1

    Geometry (in Angstrom), charge = 0, multiplicity = 1:

    H           -2.797168992996    -0.685417834506    -0.364401153602
    N           -1.874187242884    -0.580267253688    -0.001884901803
    C           -1.267276383553     0.635054307246    -0.500631420690
    H           -1.339749292002    -1.379619237163    -0.264256608651
    C            0.159742880350     0.810461358034     0.005864129612
    H           -1.288520197752     0.766747547303    -1.582557294643
    H           -1.836278259741     1.474819226736    -0.114454699181
    O            0.821083600420    -0.416508856694     0.004237211604
    H            0.682137245542     1.537596014482    -0.612819191217
    H            0.137411522405     1.195604141802     1.023646444538
    C            2.118623029921    -0.365866311571     0.494443798483
    H            2.527644905665    -1.364974233560     0.453684067288
    H            2.746161594905     0.293453389340    -0.101676801116
    H            2.138913132208    -0.020674626756     1.525628870325

gradient() will perform analytic gradient computation.

*** tstart() called on cx1-27-2-4
*** at Fri Sep  9 20:41:26 2016


         ---------------------------------------------------------
                                   SCF
            by Justin Turney, Rob Parrish, and Andy Simmonett
                              RHF Reference
                        4 Threads,   2000 MiB Core
         ---------------------------------------------------------

  ==> Geometry <==

    Molecular point group: c1
    Full point group: C1

    Geometry (in Angstrom), charge = 0, multiplicity = 1:

       Center              X                  Y                   Z               Mass       
    ------------   -----------------  -----------------  -----------------  -----------------
           H         -2.797168992996    -0.685417834506    -0.364401153602     1.007825032070
           N         -1.874187242884    -0.580267253688    -0.001884901803    14.003074004780
           C         -1.267276383553     0.635054307246    -0.500631420690    12.000000000000
           H         -1.339749292002    -1.379619237163    -0.264256608651     1.007825032070
           C          0.159742880350     0.810461358034     0.005864129612    12.000000000000
           H         -1.288520197752     0.766747547303    -1.582557294643     1.007825032070
           H         -1.836278259741     1.474819226736    -0.114454699181     1.007825032070
           O          0.821083600420    -0.416508856694     0.004237211604    15.994914619560
           H          0.682137245542     1.537596014482    -0.612819191217     1.007825032070
           H          0.137411522405     1.195604141802     1.023646444538     1.007825032070
           C          2.118623029921    -0.365866311571     0.494443798483    12.000000000000
           H          2.527644905665    -1.364974233560     0.453684067288     1.007825032070
           H          2.746161594905     0.293453389340    -0.101676801116     1.007825032070
           H          2.138913132208    -0.020674626756     1.525628870325     1.007825032070

  Running in c1 symmetry.

  Rotational constants: A =      0.42282  B =      0.09388  C =      0.08178 [cm^-1]
  Rotational constants: A =  12675.72533  B =   2814.42905  C =   2451.84861 [MHz]
  Nuclear repulsion =  195.034801252919721

  Charge       = 0
  Multiplicity = 1
  Electrons    = 42
  Nalpha       = 21
  Nbeta        = 21

  ==> Algorithm <==

  SCF Algorithm Type is DF.
  DIIS enabled.
  MOM disabled.
  Fractional occupation disabled.
  Guess Type is READ.
  Energy threshold   = 1.00e-08
  Density threshold  = 1.00e-08
  Integral threshold = 0.00e+00

  ==> Primary Basis <==

  Basis Set: CC-PVTZ
    Number of shells: 104
    Number of basis function: 276
    Number of Cartesian functions: 310
    Spherical Harmonics?: true
    Max angular momentum: 3

  ==> Pre-Iterations <==

   -------------------------------------------------------
    Irrep   Nso     Nmo     Nalpha   Nbeta   Ndocc  Nsocc
   -------------------------------------------------------
     A        276     276       0       0       0       0
   -------------------------------------------------------
    Total     276     276      21      21      21       0
   -------------------------------------------------------

 OEINTS: Overlap, kinetic, potential, dipole, and quadrupole integrals
         stored in file 35.

  ==> Integral Setup <==

  ==> DFJK: Density-Fitted J/K Matrices <==

    J tasked:                  Yes
    K tasked:                  Yes
    wK tasked:                  No
    OpenMP threads:              4
    Integrals threads:           4
    Memory (MB):              1430
    Algorithm:                Core
    Integral Cache:           NONE
    Schwarz Cutoff:          1E-12
    Fitting Condition:       1E-12

   => Auxiliary Basis Set <=

  Basis Set: 
    Number of shells: 215
    Number of basis function: 665
    Number of Cartesian functions: 795
    Spherical Harmonics?: true
    Max angular momentum: 4

  Minimum eigenvalue in the overlap matrix is 6.1205345797E-04.
  Using Symmetric Orthogonalization.
  SCF Guess: Reading in previously saved MOs, projecting if necessary.

  Using orbitals from previous SCF, no projection.
  Recomputing DOCC and SOCC from number of alpha and beta electrons from previous calculation.
              A 
    DOCC [    21 ]

  ==> Iterations <==

                           Total Energy        Delta E     RMS |[F,P]|

   @DF-RHF iter   0:  -248.22354278150473   -2.48224e+02   1.96839e-04 
   @DF-RHF iter   1:  -248.22130747565214    2.23531e-03   3.13442e-05 
   @DF-RHF iter   2:  -248.22136540332392   -5.79277e-05   1.08482e-05 DIIS
   @DF-RHF iter   3:  -248.22137297904359   -7.57572e-06   5.05272e-06 DIIS
   @DF-RHF iter   4:  -248.22137414094507   -1.16190e-06   9.43466e-07 DIIS
   @DF-RHF iter   5:  -248.22137421193187   -7.09868e-08   3.81667e-07 DIIS
   @DF-RHF iter   6:  -248.22137422337076   -1.14389e-08   1.19923e-07 DIIS
   @DF-RHF iter   7:  -248.22137422452616   -1.15540e-09   3.23713e-08 DIIS
   @DF-RHF iter   8:  -248.22137422462103   -9.48717e-11   8.42551e-09 DIIS

  ==> Post-Iterations <==

    Orbital Energies (a.u.)
    -----------------------

    Doubly Occupied:                                                      

       1A    -20.550431     2A    -15.522012     3A    -11.265976  
       4A    -11.263532     5A    -11.240630     6A     -1.385201  
       7A     -1.173910     8A     -0.998723     9A     -0.909942  
      10A     -0.814074    11A     -0.684141    12A     -0.677993  
      13A     -0.647854    14A     -0.611425    15A     -0.605421  
      16A     -0.548859    17A     -0.525385    18A     -0.494135  
      19A     -0.474285    20A     -0.421827    21A     -0.378217  

    Virtual:                                                              

      22A      0.142950    23A      0.158318    24A      0.174124  
      25A      0.195224    26A      0.214213    27A      0.219571  
      28A      0.226354    29A      0.245931    30A      0.270764  
      31A      0.275029    32A      0.334590    33A      0.351220  
      34A      0.382747    35A      0.392262    36A      0.403096  
      37A      0.468135    38A      0.496419    39A      0.513021  
      40A      0.532996    41A      0.551408    42A      0.564152  
      43A      0.577924    44A      0.598072    45A      0.624966  
      46A      0.629412    47A      0.636816    48A      0.644997  
      49A      0.649787    50A      0.651878    51A      0.673787  
      52A      0.684512    53A      0.707292    54A      0.730822  
      55A      0.740185    56A      0.748275    57A      0.753948  
      58A      0.795888    59A      0.828585    60A      0.872224  
      61A      0.893783    62A      0.920903    63A      0.924336  
      64A      0.963442    65A      0.994400    66A      1.032963  
      67A      1.055285    68A      1.093340    69A      1.123114  
      70A      1.128524    71A      1.146811    72A      1.171172  
      73A      1.183225    74A      1.193226    75A      1.212236  
      76A      1.248305    77A      1.253300    78A      1.271118  
      79A      1.301003    80A      1.320222    81A      1.337698  
      82A      1.359792    83A      1.375982    84A      1.385293  
      85A      1.415028    86A      1.436200    87A      1.456552  
      88A      1.466602    89A      1.474075    90A      1.494098  
      91A      1.517879    92A      1.538643    93A      1.550925  
      94A      1.568409    95A      1.589641    96A      1.612615  
      97A      1.618643    98A      1.628103    99A      1.656090  
     100A      1.696153   101A      1.760206   102A      1.774048  
     103A      1.798855   104A      1.855351   105A      1.882824  
     106A      1.922856   107A      1.975240   108A      2.005557  
     109A      2.079850   110A      2.104123   111A      2.235385  
     112A      2.275024   113A      2.335190   114A      2.343874  
     115A      2.482358   116A      2.494845   117A      2.551942  
     118A      2.619821   119A      2.627792   120A      2.679885  
     121A      2.699267   122A      2.761473   123A      2.789584  
     124A      2.814657   125A      2.851830   126A      2.856584  
     127A      2.926501   128A      2.978748   129A      3.038387  
     130A      3.060905   131A      3.078816   132A      3.105763  
     133A      3.121336   134A      3.131848   135A      3.166815  
     136A      3.190565   137A      3.210682   138A      3.224576  
     139A      3.244347   140A      3.255346   141A      3.277683  
     142A      3.301666   143A      3.312843   144A      3.316262  
     145A      3.345403   146A      3.358534   147A      3.382456  
     148A      3.402584   149A      3.441533   150A      3.450054  
     151A      3.478157   152A      3.495951   153A      3.507292  
     154A      3.537264   155A      3.574135   156A      3.588004  
     157A      3.619534   158A      3.628273   159A      3.645549  
     160A      3.684035   161A      3.714583   162A      3.718558  
     163A      3.722207   164A      3.749053   165A      3.750873  
     166A      3.772919   167A      3.796115   168A      3.805008  
     169A      3.811056   170A      3.838599   171A      3.852459  
     172A      3.862349   173A      3.895537   174A      3.919861  
     175A      3.934801   176A      3.966162   177A      3.972033  
     178A      3.991961   179A      4.010991   180A      4.062296  
     181A      4.072331   182A      4.089119   183A      4.115590  
     184A      4.148863   185A      4.172176   186A      4.190938  
     187A      4.196078   188A      4.223894   189A      4.245955  
     190A      4.261235   191A      4.291778   192A      4.321508  
     193A      4.343694   194A      4.350359   195A      4.369932  
     196A      4.389616   197A      4.390136   198A      4.425225  
     199A      4.438879   200A      4.447114   201A      4.475911  
     202A      4.493687   203A      4.509297   204A      4.552948  
     205A      4.573800   206A      4.584545   207A      4.606242  
     208A      4.658745   209A      4.677218   210A      4.712159  
     211A      4.742897   212A      4.778019   213A      4.801459  
     214A      4.834227   215A      4.860192   216A      4.869586  
     217A      4.915134   218A      5.033670   219A      5.038730  
     220A      5.064100   221A      5.090367   222A      5.174274  
     223A      5.220159   224A      5.232880   225A      5.247591  
     226A      5.288107   227A      5.313027   228A      5.351377  
     229A      5.385623   230A      5.407014   231A      5.437280  
     232A      5.448433   233A      5.466920   234A      5.516600  
     235A      5.558570   236A      5.568445   237A      5.580701  
     238A      5.611213   239A      5.633289   240A      5.693027  
     241A      5.718123   242A      5.742183   243A      5.798389  
     244A      5.846808   245A      5.876377   246A      5.922327  
     247A      5.943898   248A      5.978509   249A      6.029076  
     250A      6.125731   251A      6.195988   252A      6.226183  
     253A      6.241023   254A      6.254888   255A      6.306469  
     256A      6.330367   257A      6.393700   258A      6.469754  
     259A      6.537972   260A      6.597961   261A      6.637202  
     262A      6.715731   263A      6.742934   264A      6.893623  
     265A      6.968580   266A      7.339024   267A      7.371156  
     268A      7.380240   269A      7.567501   270A      7.899738  
     271A      7.912311   272A     11.330094   273A     12.663670  
     274A     13.629206   275A     13.995866   276A     14.240485  

    Final Occupation by Irrep:
              A 
    DOCC [    21 ]

  Energy converged.

  @DF-RHF Final Energy:  -248.22137422462103

   => Energetics <=

    Nuclear Repulsion Energy =            195.0348012529197206
    One-Electron Energy =                -724.1244007086470447
    Two-Electron Energy =                 280.8682252311064076
    DFT Exchange-Correlation Energy =       0.0000000000000000
    Empirical Dispersion Energy =           0.0000000000000000
    PCM Polarization Energy =               0.0000000000000000
    EFP Energy =                            0.0000000000000000
    Total Energy =                       -248.2213742246209449

    Alert: EFP and PCM quantities not currently incorporated into SCF psivars.

Properties will be evaluated at   0.000000,   0.000000,   0.000000 Bohr
  ==> Properties <==


Properties computed using the SCF density matrix

  Nuclear Dipole Moment: (a.u.)
     X:     0.9193      Y:     1.7036      Z:    -0.0349

  Electronic Dipole Moment: (a.u.)
     X:    -0.6911      Y:    -1.3692      Z:    -0.2800

  Dipole Moment: (a.u.)
     X:     0.2282      Y:     0.3343      Z:    -0.3149     Total:     0.5128

  Dipole Moment: (Debye)
     X:     0.5800      Y:     0.8498      Z:    -0.8003     Total:     1.3034


  Saving occupied orbitals to File 180.

*** tstop() called on cx1-27-2-4 at Fri Sep  9 20:41:34 2016
Module time:
	user time   =      20.23 seconds =       0.34 minutes
	system time =       0.27 seconds =       0.00 minutes
	total time  =          8 seconds =       0.13 minutes
Total time:
	user time   =     170.09 seconds =       2.83 minutes
	system time =       1.78 seconds =       0.03 minutes
	total time  =         50 seconds =       0.83 minutes

*** tstart() called on cx1-27-2-4
*** at Fri Sep  9 20:41:34 2016


         ------------------------------------------------------------
                                   SCF GRAD                          
                          Rob Parrish, Justin Turney,                
                       Andy Simmonett, and Alex Sokolov              
         ------------------------------------------------------------

  ==> Geometry <==

    Molecular point group: c1
    Full point group: C1

    Geometry (in Angstrom), charge = 0, multiplicity = 1:

       Center              X                  Y                   Z               Mass       
    ------------   -----------------  -----------------  -----------------  -----------------
           H         -2.797168992996    -0.685417834506    -0.364401153602     1.007825032070
[...]
           H          0.684764533037     1.534278436792    -0.613896132806     1.007825032070
           H          0.138137811896     1.198598891302     1.023772105651     1.007825032070
           C          2.116781604180    -0.370316205133     0.492795803308    12.000000000000
           H          2.520806798746    -1.371618987731     0.455779484487     1.007825032070
           H          2.746539348948     0.283186555698    -0.107149999075     1.007825032070
           H          2.140572521978    -0.020903802995     1.522486769174     1.007825032070

  Nuclear repulsion =  195.168120589803323

  ==> Basis Set <==

  Basis Set: CC-PVTZ
    Number of shells: 104
    Number of basis function: 276
    Number of Cartesian functions: 310
    Spherical Harmonics?: true
    Max angular momentum: 3

  ==> DFJKGrad: Density-Fitted SCF Gradients <==

    Gradient:                    1
    J tasked:                  Yes
    K tasked:                  Yes
    wK tasked:                  No
    OpenMP threads:              4
    Integrals threads:           4
    Memory (MB):              1430
    Schwarz Cutoff:          0E+00
    Fitting Condition:       1E-12

   => Auxiliary Basis Set <=

  Basis Set: 
    Number of shells: 215
    Number of basis function: 665
    Number of Cartesian functions: 795
    Spherical Harmonics?: true
    Max angular momentum: 4


  -Total Gradient:
     Atom            X                  Y                   Z
    ------   -----------------  -----------------  -----------------
       1       -0.000024788844    -0.000031485762     0.000005588811
       2        0.000002560597    -0.000003949987     0.000008814319
       3        0.001146157515    -0.010737943781     0.000735754323
       4       -0.000005872582    -0.000020751595    -0.000009046696
       5        0.002384264514     0.003446197178    -0.008015450836
       6       -0.001371947111     0.008392765806     0.001029102269
       7       -0.000015226174     0.000033057520    -0.000006281261
       8       -0.002071189183    -0.001115272406     0.006255118761
       9        0.000026846405    -0.000016154323     0.000003590490
      10       -0.000022124752     0.000025147340    -0.000000479183
      11       -0.000022561633     0.000034458408    -0.000000848086
      12       -0.000031153399    -0.000000808638    -0.000010165152
      13        0.000001751471    -0.000003102338    -0.000006926438
      14        0.000003283175    -0.000002157420     0.000011228679


*** tstop() called on cx1-27-2-4 at Fri Sep  9 20:42:26 2016
Module time:
	user time   =      49.34 seconds =       0.82 minutes
	system time =       0.40 seconds =       0.01 minutes
	total time  =         13 seconds =       0.22 minutes
Total time:
	user time   =     357.56 seconds =       5.96 minutes
	system time =       3.52 seconds =       0.06 minutes
	total time  =        102 seconds =       1.70 minutes
CURRENT ENERGY: -248.2213975797

			-----------------------------------------
			 OPTKING 2.0: for geometry optimizations 
			  - R.A. King,  Bethel University        
			-----------------------------------------

	Previous internal coordinate definitions found.
	---Fragment 1 Geometry and Gradient---
	 H          -5.2638552033       -1.3275983746       -0.7105070297
	 N          -3.5317772865       -1.0949774979       -0.0067479485
	 C          -2.3969015518        1.2063915606       -0.9411020836
	 H          -2.4907491432       -2.5911984642       -0.4798113771
	 C           0.2995072640        1.5340846290        0.0123426057
	 H          -2.4373647184        1.4547300625       -2.9867096571
	 H          -3.4747781587        2.7935105891       -0.2108514679
	 O           1.5455413446       -0.7864490960        0.0089185384
	 H           1.2940174330        2.8993660571       -1.1600955650
	 H           0.2610426331        2.2650236477        1.9346489022
	 C           4.0001375150       -0.6997962103        0.9312491077
	 H           4.7636344835       -2.5919842455        0.8612984027
	 H           5.1902071827        0.5351450348       -0.2024841534
	 H           4.0450958341       -0.0395024628        2.8770830347
	            -0.0000247888       -0.0000314858        0.0000055888
	             0.0000025606       -0.0000039500        0.0000088143
	             0.0011461575       -0.0107379438        0.0007357543
	            -0.0000058726       -0.0000207516       -0.0000090467
	             0.0023842645        0.0034461972       -0.0080154508
	            -0.0013719471        0.0083927658        0.0010291023
	            -0.0000152262        0.0000330575       -0.0000062813
	            -0.0020711892       -0.0011152724        0.0062551188
	             0.0000268464       -0.0000161543        0.0000035905
	            -0.0000221248        0.0000251473       -0.0000004792
	            -0.0000225616        0.0000344584       -0.0000008481
	            -0.0000311534       -0.0000008086       -0.0000101652
	             0.0000017515       -0.0000031023       -0.0000069264
	             0.0000032832       -0.0000021574        0.0000112287

	---Fragment 1 Intrafragment Coordinates---
	 - Coordinate -           - BOHR/RAD -       - ANG/DEG -
	 R(1,2)           =         1.884007	       0.996974
	 R(2,3)           =         2.730798	       1.445076
	 R(2,4)           =         1.883137	       0.996513
	 R(3,5)           =         2.878725	       1.523356
	 R(3,6)           =         2.061024	       1.090647
	 R(3,7)           =         2.052810	       1.086301
	 R(5,8)           =         2.633911	       1.393806
	 R(5,9)           =         2.056126	       1.088055
	 R(5,10)          =         2.056943	       1.088487
	 R(8,11)          =         2.623594	       1.388346
	 R(11,12)         =         2.041616	       1.080377
	 R(11,13)         =         2.055893	       1.087932
	 R(11,14)         =         2.055305	       1.087621
	 B(1,2,3)         =         1.937260	     110.996807
	 B(1,2,4)         =         1.892618	     108.439036
	 B(2,3,5)         =         1.951822	     111.831189
	 B(2,3,6)         =         2.018593	     115.656873
	 B(2,3,7)         =         1.887712	     108.157907
	 B(3,2,4)         =         1.932532	     110.725933
	 B(3,5,8)         =         1.920259	     110.022741
	 B(3,5,9)         =         1.917475	     109.863252
	 B(3,5,10)        =         1.909707	     109.418159
	 B(5,3,6)         =         1.910703	     109.475244
	 B(5,3,7)         =         1.860836	     106.618065
	 B(5,8,11)        =         1.996592	     114.396269
	 B(6,3,7)         =         1.823068	     104.454104
	 B(8,5,9)         =         1.934188	     110.820791
	 B(8,5,10)        =         1.899836	     108.852586
	 B(8,11,12)       =         1.883069	     107.891899
	 B(8,11,13)       =         1.947164	     111.564291
	 B(8,11,14)       =         1.943252	     111.340133
	 B(9,5,10)        =         1.881766	     107.817272
	 B(12,11,13)      =         1.897952	     108.744649
	 B(12,11,14)      =         1.898645	     108.784331
	 B(13,11,14)      =         1.892775	     108.447993
	 D(1,2,3,5)       =        -3.093873	    -177.265870
	 D(1,2,3,6)       =        -0.890942	     -51.047234
	 D(1,2,3,7)       =         1.145450	      65.629479
	 D(2,3,5,8)       =         0.689827	      39.524153
	 D(2,3,5,9)       =         2.823826	     161.793319
	 D(2,3,5,10)      =        -1.396651	     -80.022203
	 D(3,5,8,11)      =        -3.105399	    -177.926268
	 D(4,2,3,5)       =        -0.990845	     -56.771223
	 D(4,2,3,6)       =         1.212086	      69.447413
	 D(4,2,3,7)       =        -3.034706	    -173.875873
	 D(5,8,11,12)     =         3.129273	     179.294113
	 D(5,8,11,13)     =        -1.070242	     -61.320371
	 D(5,8,11,14)     =         1.047066	      59.992466
	*D(6,3,5,8)       =        -1.570797	     -90.000030
	 D(6,3,5,9)       =         0.563203	      32.269136
	 D(6,3,5,10)      =         2.625911	     150.453614
	 D(7,3,5,8)       =         2.749810	     157.552523
	 D(7,3,5,9)       =        -1.399376	     -80.178312
	 D(7,3,5,10)      =         0.663333	      38.006166
	 D(9,5,8,11)      =         1.053708	      60.373031
	 D(10,5,8,11)     =        -1.012921	     -58.036121

	Current energy   :      -248.2213975797

	Energy change for the previous step:
		Projected    :        -0.0000058291
		Actual       :        -0.0000009361
	Energy ratio indicates iffy step: Trust radius decreased to 6.250e-02.


	Performing BFGS update.
	Previous computed or guess Hessian on step 1.
	Steps to be used in Hessian update: 4 3
	Taking RFO optimization step.
	Going to follow RFO solution 1.
	Rejecting RFO root 1 because normalization gives large value.
	Rejecting RFO root 2 because normalization gives large value.
	Rejecting RFO root 3 because normalization gives large value.
	Using RFO vector 4.
	Norm of target step-size    0.00434
	Projected energy change by RFO approximation:        -0.0000002906

	Back-transformation to cartesian coordinates...
	Successfully converged to displaced geometry.

	Back-transformation to cartesian coordinates to adjust frozen coordinates...
	Successfully converged to displaced geometry.

	--- Internal Coordinate Step in ANG or DEG, aJ/ANG or AJ/DEG ---
	 ---------------------------------------------------------------------------
	   Coordinate                Previous        Force       Change         New 
	   ----------                --------       ------       ------       ------
	    1 R(1,2)          =      0.996974    -0.000203    -0.000023     0.996950
	    2 R(2,3)          =      1.445076    -0.000501    -0.000088     1.444988
	    3 R(2,4)          =      0.996513    -0.000128    -0.000012     0.996501
	    4 R(3,5)          =      1.523356     0.000515     0.000042     1.523398
	    5 R(3,6)          =      1.090647    -0.000138    -0.000016     1.090631
	    6 R(3,7)          =      1.086301    -0.000258    -0.000025     1.086275
	    7 R(5,8)          =      1.393806     0.000440     0.000048     1.393854
	    8 R(5,9)          =      1.088055    -0.000002    -0.000001     1.088054
	    9 R(5,10)         =      1.088487    -0.000073    -0.000010     1.088477
	   10 R(8,11)         =      1.388346     0.000387     0.000045     1.388391
	   11 R(11,12)        =      1.080377     0.000087     0.000012     1.080389
	   12 R(11,13)        =      1.087932    -0.000024    -0.000005     1.087927
	   13 R(11,14)        =      1.087621    -0.000082    -0.000011     1.087609
	   14 B(1,2,3)        =    110.996807    -0.000004    -0.011570   110.985237
	   15 B(1,2,4)        =    108.439036     0.000002     0.000297   108.439334
	   16 B(2,3,5)        =    111.831189     0.000000    -0.015423   111.815766
	   17 B(2,3,6)        =    115.656873    -0.000001     0.019640   115.676513
	   18 B(2,3,7)        =    108.157907    -0.000001    -0.029705   108.128203
	   19 B(3,2,4)        =    110.725933    -0.000001    -0.009082   110.716852
	   20 B(3,5,8)        =    110.022741     0.000003     0.003762   110.026504
	   21 B(3,5,9)        =    109.863252    -0.000003    -0.007687   109.855565
	   22 B(3,5,10)       =    109.418159     0.000002     0.004684   109.422844
	   23 B(5,3,6)        =    109.475244     0.000001     0.023583   109.498827
	   24 B(5,3,7)        =    106.618065    -0.000000    -0.023988   106.594078
	   25 B(5,8,11)       =    114.396269     0.000001     0.003096   114.399365
	   26 B(6,3,7)        =    104.454104     0.000001     0.023283   104.477387
	   27 B(8,5,9)        =    110.820791     0.000001     0.001722   110.822513
	   28 B(8,5,10)       =    108.852586    -0.000003    -0.003748   108.848838
	   29 B(8,11,12)      =    107.891899     0.000004     0.016743   107.908642
	   30 B(8,11,13)      =    111.564291    -0.000000    -0.002944   111.561347
	   31 B(8,11,14)      =    111.340133    -0.000001    -0.005294   111.334839
	   32 B(9,5,10)       =    107.817272     0.000000     0.001311   107.818583
	   33 B(12,11,13)     =    108.744649    -0.000001    -0.001632   108.743017
	   34 B(12,11,14)     =    108.784331    -0.000001    -0.001330   108.783001
	   35 B(13,11,14)     =    108.447993    -0.000001    -0.005393   108.442600
	   36 D(1,2,3,5)      =   -177.265870    -0.000000    -0.113265  -177.379135
	   37 D(1,2,3,6)      =    -51.047234     0.000000    -0.077369   -51.124604
	   38 D(1,2,3,7)      =     65.629479     0.000000    -0.056832    65.572647
	   39 D(2,3,5,8)      =     39.524153    -0.000000     0.033190    39.557343
	   40 D(2,3,5,9)      =    161.793319     0.000000     0.032751   161.826070
	   41 D(2,3,5,10)     =    -80.022203     0.000000     0.032590   -79.989613
	   42 D(3,5,8,11)     =   -177.926268    -0.000000     0.012984  -177.913284
	   43 D(4,2,3,5)      =    -56.771223    -0.000000    -0.126648   -56.897871
	   44 D(4,2,3,6)      =     69.447413     0.000000    -0.090753    69.356660
	   45 D(4,2,3,7)      =   -173.875873     0.000000    -0.070216  -173.946089
	   46 D(5,8,11,12)    =    179.294113     0.000000     0.010056   179.304169
	   47 D(5,8,11,13)    =    -61.320371     0.000000     0.016945   -61.303426
	   48 D(5,8,11,14)    =     59.992466    -0.000000     0.004272    59.996738
	   49 *D(6,3,5,8)     =    -90.000030    -0.000000    -0.000000   -90.000030
	   50 D(6,3,5,9)      =     32.269136     0.000000    -0.000439    32.268697
	   51 D(6,3,5,10)     =    150.453614     0.000000    -0.000600   150.453014
	   52 D(7,3,5,8)      =    157.552523    -0.000000    -0.025922   157.526601
	   53 D(7,3,5,9)      =    -80.178312     0.000000    -0.026361   -80.204673
	   54 D(7,3,5,10)     =     38.006166    -0.000000    -0.026522    37.979644
	   55 D(9,5,8,11)     =     60.373031     0.000000     0.018989    60.392020
	   56 D(10,5,8,11)    =    -58.036121     0.000000     0.018674   -58.017447
	 ---------------------------------------------------------------------------

  ==> Convergence Check <==

  Measures of convergence in internal coordinates in au.
  Criteria marked as inactive (o), active & met (*), and active & unmet ( ).
  ---------------------------------------------------------------------------------------------
   Step     Total Energy     Delta E     MAX Force     RMS Force      MAX Disp      RMS Disp   
  ---------------------------------------------------------------------------------------------
    Convergence Criteria    1.00e-06 *    3.00e-04 *             o    1.20e-03 *             o
  ---------------------------------------------------------------------------------------------
      5    -248.22139758   -9.36e-07 *    6.26e-05 *    2.28e-05 o    2.21e-03      5.80e-04 o  ~
  ---------------------------------------------------------------------------------------------


  **** Optimization is complete! (in 5 steps) ****

  ==> Optimization Summary <==

  Measures of convergence in internal coordinates in au.
  --------------------------------------------------------------------------------------------------------------- ~
   Step         Total Energy             Delta E       MAX Force       RMS Force        MAX Disp        RMS Disp  ~
  --------------------------------------------------------------------------------------------------------------- ~
      1    -248.220082951649   -248.220082951649      0.01300434      0.00274568      0.12884474      0.04153568  ~
      2    -248.220920040412     -0.000837088763      0.00887645      0.00215250      0.03380787      0.01193424  ~
      3    -248.221374224621     -0.000454184209      0.00146893      0.00036315      0.01865671      0.00567408  ~
      4    -248.221396643577     -0.000022418956      0.00015561      0.00006652      0.00618537      0.00175119  ~
      5    -248.221397579699     -0.000000936121      0.00006256      0.00002278      0.00221043      0.00058026  ~
  --------------------------------------------------------------------------------------------------------------- ~

	Writing optimization data to binary file.
	Final energy is   -248.2213975796987
	Final (previous) structure:
	Cartesian Geometry (in Angstrom)
	    H    -2.7855124156  -0.7025348557  -0.3759841554
	    N    -1.8689361886  -0.5794371801  -0.0035708608
	    C    -1.2683857693   0.6383949673  -0.4980098116
	    H    -1.3180477795  -1.3712032749  -0.2539052646
	    C     0.1584924300   0.8118026837   0.0065314261
	    H    -1.2897979565   0.7698100525  -1.5804987999
	    H    -1.8387735469   1.4782622486  -0.1115777998
	    O     0.8178653169  -0.4161709691   0.0047194876
	    H     0.6847645853   1.5342785540  -0.6138961797
	    H     0.1381378224   1.1985989828   1.0237721838
	    C     2.1167817658  -0.3703162334   0.4927958409
	    H     2.5208069912  -1.3716190925   0.4557795193
	    H     2.7465395587   0.2831865773  -0.1071500073
	    H     2.1405726854  -0.0209038046   1.5224868854
	Saving final (previous) structure.
			--------------------------
			 OPTKING Finished Execution 
			--------------------------

    Final optimized geometry and variables:
    Molecular point group: c1
    Full point group: C1

    Geometry (in Angstrom), charge = 0, multiplicity = 1:

    H           -2.785512202903    -0.702534802010    -0.375984126649
    N           -1.868936045842    -0.579437135815    -0.003570860546
    C           -1.268385672449     0.638394918521    -0.498009773615
    H           -1.318047678897    -1.371203170209    -0.253905245192
    C            0.158492417919     0.811802621730     0.006531425625
    H           -1.289797858010     0.769809993709    -1.580498679234
    H           -1.838773406506     1.478262135685    -0.111577791231
    O            0.817865254485    -0.416170937298     0.004719487237
    H            0.684764533037     1.534278436792    -0.613896132806
    H            0.138137811896     1.198598891302     1.023772105651
    C            2.116781604180    -0.370316205133     0.492795803308
    H            2.520806798746    -1.371618987731     0.455779484487
    H            2.746539348948     0.283186555698    -0.107149999075
    H            2.140572521978    -0.020903802995     1.522486769174

	Cleaning optimization helper files.


Properties will be evaluated at   0.000000,   0.000000,   0.000000 Bohr

Properties computed using the  density matrix

  Nuclear Dipole Moment: (a.u.)
     X:     0.9456      Y:     1.6851      Z:    -0.0384

  Electronic Dipole Moment: (a.u.)
     X:    -0.7042      Y:    -1.3567      Z:    -0.2743

  Dipole Moment: (a.u.)
     X:     0.2414      Y:     0.3284      Z:    -0.3126     Total:     0.5137

  Dipole Moment: (Debye)
     X:     0.6136      Y:     0.8347      Z:    -0.7947     Total:     1.3057

  Quadrupole Moment: (Debye Ang)
    XX:   -28.4564     YY:   -30.8257     ZZ:   -33.3151
    XY:    -0.0997     XZ:     3.5649     YZ:     0.6776

  Traceless Quadrupole Moment: (Debye Ang)
    XX:     2.4093     YY:     0.0400     ZZ:    -2.4494
    XY:    -0.0997     XZ:     3.5649     YZ:     0.6776

  Mulliken Charges: (a.u.)
   Center  Symbol    Alpha    Beta     Spin     Total
       1     H     0.43042  0.43042  0.00000  0.13916
       2     N     3.69084  3.69084  0.00000 -0.38167
       3     C     3.02353  3.02353  0.00000 -0.04705
       4     H     0.42011  0.42011  0.00000  0.15979
       5     C     2.95932  2.95932  0.00000  0.08136
       6     H     0.47008  0.47008  0.00000  0.05984
       7     H     0.46231  0.46231  0.00000  0.07538
       8     O     4.17826  4.17826  0.00000 -0.35652
       9     H     0.47189  0.47189  0.00000  0.05623
      10     H     0.47401  0.47401  0.00000  0.05198
      11     C     3.02991  3.02991  0.00000 -0.05982
      12     H     0.44747  0.44747  0.00000  0.10506
      13     H     0.47135  0.47135  0.00000  0.05730
      14     H     0.47051  0.47051  0.00000  0.05897

   Total alpha = 21.00000, Total beta = 21.00000, Total charge =  0.00000


*** PSI4 exiting successfully. Buy a developer a beer!
