    -----------------------------------------------------------------------
          Psi4: An Open-Source Ab Initio Electronic Structure Package
                              Psi4 1.0.54 Driver

                          Git: Rev {master} 8d4cec3 dirty

    J. M. Turney, A. C. Simmonett, R. M. Parrish, E. G. Hohenstein,
    F. A. Evangelista, J. T. Fermann, B. J. Mintz, L. A. Burns, J. J. Wilke,
    M. L. Abrams, N. J. Russ, M. L. Leininger, C. L. Janssen, E. T. Seidl,
    W. D. Allen, H. F. Schaefer, R. A. King, E. F. Valeev, C. D. Sherrill,
    and T. D. Crawford, WIREs Comput. Mol. Sci. 2, 556-565 (2012)
    (doi: 10.1002/wcms.93)

                         Additional Contributions by
    A. E. DePrince, U. Bozkaya, A. Yu. Sokolov, D. G. A. Smith, R. Di Remigio,
    R. M. Richard, J. F. Gonthier, H. R. McAlexander, M. Saitow, and
    B. P. Pritchard
    -----------------------------------------------------------------------


    Psi4 started on: Sat Sep 10 15:17:49 2016

    Process ID:  32433
    PSI4DATADIR: /export131/home/mjharvey/miniconda3/share/psi4
    Memory level set to 256.000 MB

  ==> Input File <==

--------------------------------------------------------------------------
set {
	reference rhf
	basis cc-pvtz
}


set_num_threads( 4 )
memory 2 gb

molecule MOL {
0 1

H	 -2.823222	 1.440929	 1.866634
O	 -2.134898	 0.865248	 1.589151
C	 -2.302264	 0.528872	 0.237390
C	 -1.175688	 -0.398187	 -0.171891
H	 -3.260809	 0.037772	 0.083166
H	 -2.289294	 1.423368	 -0.381914
C	 0.196029	 0.106276	 0.266738
H	 -1.201873	 -0.515469	 -1.250677
H	 -1.365975	 -1.378728	 0.252664
C	 1.330220	 -0.826136	 -0.155230
H	 0.359542	 1.097229	 -0.145561
H	 0.212134	 0.218135	 1.348778
C	 2.719700	 -0.407669	 0.328325
H	 1.339388	 -0.911200	 -1.239363
H	 1.119001	 -1.821953	 0.224128
C	 3.241564	 0.893452	 -0.276737
H	 3.418299	 -1.204729	 0.093035
H	 2.711776	 -0.323368	 1.411960
H	 3.254204	 0.841071	 -1.360784
H	 2.634460	 1.745075	 0.005842
H	 4.254264	 1.092401	 0.054971

	symmetry c1
}
set optking {
	frozen_dihedral = ("
		2 3 4 8
	")
}

ee,wfn = optimize('scf', return_wfn=True)
oeprop( wfn, 'DIPOLE', 'QUADRUPOLE', 'MULLIKEN_CHARGES')
f=open( 'psi4out.xyz', 'w' )
f.write( "21  " )
f.write( str(ee) + "\n" )
f.write( MOL.save_string_xyz() )
f.close()
--------------------------------------------------------------------------

  Memory set to   2.000 GiB by Python script.
gradient() will perform analytic gradient computation.

*** tstart() called on cx1-27-1-3
*** at Sat Sep 10 15:17:50 2016


         ---------------------------------------------------------
                                   SCF
            by Justin Turney, Rob Parrish, and Andy Simmonett
                              RHF Reference
                        4 Threads,   2000 MiB Core
         ---------------------------------------------------------

  ==> Geometry <==

    Molecular point group: c1
    Full point group: C1

    Geometry (in Angstrom), charge = 0, multiplicity = 1:

       Center              X                  Y                   Z               Mass       
    ------------   -----------------  -----------------  -----------------  -----------------
           H         -3.042551760457     1.300357119998     1.581319463539     1.007825032070
           O         -2.354227760457     0.724676119998     1.303836463539    15.994914619560
           C         -2.521593760457     0.388300119998    -0.047924536461    12.000000000000
           C         -1.395017760457    -0.538758880002    -0.457205536461    12.000000000000
           H         -3.480138760457    -0.102799880002    -0.202148536461     1.007825032070
           H         -2.508623760457     1.282796119998    -0.667228536461     1.007825032070
           C         -0.023300760457    -0.034295880002    -0.018576536461    12.000000000000
           H         -1.421202760457    -0.656040880002    -1.535991536461     1.007825032070
           H         -1.585304760457    -1.519299880002    -0.032650536461     1.007825032070
           C          1.110890239543    -0.966707880002    -0.440544536461    12.000000000000
           H          0.140212239543     0.956657119998    -0.430875536461     1.007825032070
           H         -0.007195760457     0.077563119998     1.063463463539     1.007825032070
           C          2.500370239543    -0.548240880002     0.043010463539    12.000000000000
           H          1.120058239543    -1.051771880002    -1.524677536461     1.007825032070
           H          0.899671239543    -1.962524880002    -0.061186536461     1.007825032070
           C          3.022234239543     0.752880119998    -0.562051536461    12.000000000000
           H          3.198969239543    -1.345300880002    -0.192279536461     1.007825032070
           H          2.492446239543    -0.463939880002     1.126645463539     1.007825032070
           H          3.034874239543     0.700499119998    -1.646098536461     1.007825032070
           H          2.415130239543     1.604503119998    -0.279472536461     1.007825032070
           H          4.034934239543     0.951829119998    -0.230343536461     1.007825032070

  Running in c1 symmetry.

  Rotational constants: A =      0.19233  B =      0.03278  C =      0.03099 [cm^-1]
  Rotational constants: A =   5765.76220  B =    982.66955  C =    928.96161 [MHz]
  Nuclear repulsion =  318.839260044480113

  Charge       = 0
  Multiplicity = 1
  Electrons    = 58
  Nalpha       = 29
  Nbeta        = 29

  ==> Algorithm <==

  SCF Algorithm Type is DF.
  DIIS enabled.
  MOM disabled.
  Fractional occupation disabled.
  Guess Type is SAD.
  Energy threshold   = 1.00e-08
  Density threshold  = 1.00e-08
  Integral threshold = 0.00e+00

  ==> Primary Basis <==

  Basis Set: CC-PVTZ
    Number of shells: 154
    Number of basis function: 406
    Number of Cartesian functions: 455
    Spherical Harmonics?: true
    Max angular momentum: 3

  ==> Pre-Iterations <==

   -------------------------------------------------------
    Irrep   Nso     Nmo     Nalpha   Nbeta   Ndocc  Nsocc
   -------------------------------------------------------
     A        406     406       0       0       0       0
   -------------------------------------------------------
    Total     406     406      29      29      29       0
   -------------------------------------------------------

  ==> Integral Setup <==

  ==> DFJK: Density-Fitted J/K Matrices <==

    J tasked:                  Yes
    K tasked:                  Yes
    wK tasked:                  No
    OpenMP threads:              4
    Integrals threads:           4
    Memory (MB):              1430
    Algorithm:                Core
    Integral Cache:           NONE
    Schwarz Cutoff:          1E-12
    Fitting Condition:       1E-12

   => Auxiliary Basis Set <=

  Basis Set: 
    Number of shells: 315
    Number of basis function: 973
    Number of Cartesian functions: 1162
    Spherical Harmonics?: true
    Max angular momentum: 4

  Minimum eigenvalue in the overlap matrix is 3.1856714396E-04.
  Using Symmetric Orthogonalization.
  SCF Guess: Superposition of Atomic Densities via on-the-fly atomic UHF.

  ==> Iterations <==

                           Total Energy        Delta E     RMS |[F,P]|

   @DF-RHF iter   0:  -313.63229674600592   -3.13632e+02   1.30378e-02 
   @DF-RHF iter   1:  -310.08772763732412    3.54457e+00   1.52411e-03 
   @DF-RHF iter   2:  -310.28706067100399   -1.99333e-01   7.90384e-04 DIIS
   @DF-RHF iter   3:  -310.32562769829070   -3.85670e-02   2.14665e-04 DIIS
   @DF-RHF iter   4:  -310.33101039125205   -5.38269e-03   4.61030e-05 DIIS
   @DF-RHF iter   5:  -310.33136867594766   -3.58285e-04   1.58979e-05 DIIS
   @DF-RHF iter   6:  -310.33140837032016   -3.96944e-05   4.46788e-06 DIIS
   @DF-RHF iter   7:  -310.33141186761173   -3.49729e-06   1.01710e-06 DIIS
   @DF-RHF iter   8:  -310.33141207155421   -2.03942e-07   2.72326e-07 DIIS
   @DF-RHF iter   9:  -310.33141208469902   -1.31448e-08   8.71123e-08 DIIS
   @DF-RHF iter  10:  -310.33141208588523   -1.18621e-09   2.26328e-08 DIIS
   @DF-RHF iter  11:  -310.33141208597959   -9.43601e-11   5.28540e-09 DIIS

  ==> Post-Iterations <==

    Orbital Energies (a.u.)
    -----------------------

    Doubly Occupied:                                                      

       1A    -20.546443     2A    -11.265704     3A    -11.209717  
       4A    -11.208020     5A    -11.205134     6A    -11.202034  
       7A    -11.201670     8A     -1.365277     9A     -1.080883  
      10A     -1.030633    11A     -0.953777    12A     -0.875239  
      13A     -0.801469    14A     -0.772400    15A     -0.706650  
      16A     -0.650152    17A     -0.619424    18A     -0.604021  
      19A     -0.586245    20A     -0.566927    21A     -0.532877  
      22A     -0.526290    23A     -0.502695    24A     -0.491631  
      25A     -0.477829    26A     -0.453761    27A     -0.453191  
      28A     -0.438943    29A     -0.430961  

    Virtual:                                                              

      30A      0.139631    31A      0.150460    32A      0.167154  
      33A      0.171164    34A      0.188001    35A      0.193954  
      36A      0.199607    37A      0.221388    38A      0.224757  
      39A      0.240861    40A      0.252390    41A      0.259609  
      42A      0.276153    43A      0.277682    44A      0.318899  
      45A      0.328003    46A      0.352709    47A      0.357243  
      48A      0.371099    49A      0.391796    50A      0.398334  
      51A      0.413228    52A      0.419304    53A      0.453813  
      54A      0.462931    55A      0.478877    56A      0.500506  
      57A      0.510679    58A      0.544600    59A      0.559898  
      60A      0.566682    61A      0.573594    62A      0.587796  
      63A      0.597832    64A      0.606709    65A      0.620956  
      66A      0.624851    67A      0.634098    68A      0.644447  
      69A      0.649731    70A      0.656607    71A      0.665628  
      72A      0.671127    73A      0.678203    74A      0.680883  
      75A      0.687820    76A      0.701428    77A      0.707611  
      78A      0.721681    79A      0.732887    80A      0.742725  
      81A      0.746058    82A      0.797778    83A      0.803639  
      84A      0.811994    85A      0.844933    86A      0.851243  
      87A      0.871284    88A      0.873243    89A      0.906607  
      90A      0.919078    91A      0.937328    92A      0.948916  
      93A      0.974050    94A      0.998901    95A      1.018145  
      96A      1.033947    97A      1.038243    98A      1.050481  
      99A      1.054949   100A      1.098930   101A      1.117471  
     102A      1.138110   103A      1.144754   104A      1.165114  
     105A      1.188107   106A      1.200555   107A      1.218964  
     108A      1.231784   109A      1.237939   110A      1.250234  
     111A      1.282421   112A      1.285845   113A      1.296173  
     114A      1.302528   115A      1.330138   116A      1.332342  
     117A      1.338309   118A      1.353668   119A      1.357039  
     120A      1.367998   121A      1.378127   122A      1.395792  
     123A      1.400028   124A      1.420470   125A      1.428589  
     126A      1.433622   127A      1.440836   128A      1.453210  
     129A      1.461454   130A      1.468967   131A      1.492162  
     132A      1.501249   133A      1.508933   134A      1.525887  
     135A      1.528686   136A      1.538083   137A      1.556252  
     138A      1.563304   139A      1.576432   140A      1.593314  
     141A      1.598926   142A      1.630196   143A      1.655743  
     144A      1.665308   145A      1.683241   146A      1.695707  
     147A      1.707117   148A      1.711461   149A      1.733387  
     150A      1.754666   151A      1.764452   152A      1.802685  
     153A      1.821971   154A      1.830490   155A      1.838534  
     156A      1.846879   157A      1.858353   158A      1.881649  
     159A      1.917683   160A      1.975943   161A      2.012489  
     162A      2.037890   163A      2.057459   164A      2.151156  
     165A      2.297600   166A      2.304431   167A      2.399728  
     168A      2.419225   169A      2.528111   170A      2.574627  
     171A      2.590629   172A      2.644499   173A      2.647902  
     174A      2.685601   175A      2.701959   176A      2.705522  
     177A      2.715945   178A      2.741517   179A      2.760203  
     180A      2.781637   181A      2.790303   182A      2.803012  
     183A      2.825594   184A      2.854193   185A      2.859834  
     186A      2.868584   187A      2.884374   188A      2.916120  
     189A      2.923673   190A      2.941411   191A      2.961964  
     192A      2.976972   193A      2.992179   194A      3.009317  
     195A      3.026454   196A      3.040585   197A      3.058873  
     198A      3.073069   199A      3.099525   200A      3.129376  
     201A      3.132662   202A      3.151358   203A      3.157847  
     204A      3.188620   205A      3.199524   206A      3.233525  
     207A      3.250827   208A      3.259977   209A      3.271536  
     210A      3.272601   211A      3.287009   212A      3.310522  
     213A      3.319881   214A      3.329628   215A      3.345320  
     216A      3.361296   217A      3.367913   218A      3.381528  
     219A      3.393589   220A      3.407993   221A      3.413242  
     222A      3.424040   223A      3.433458   224A      3.443139  
     225A      3.454955   226A      3.468413   227A      3.474944  
     228A      3.480078   229A      3.490590   230A      3.494024  
     231A      3.504953   232A      3.519420   233A      3.538193  
     234A      3.550614   235A      3.558611   236A      3.573320  
     237A      3.585287   238A      3.589106   239A      3.603281  
     240A      3.624526   241A      3.653309   242A      3.679392  
     243A      3.685625   244A      3.699005   245A      3.715447  
     246A      3.747663   247A      3.753684   248A      3.764232  
     249A      3.776206   250A      3.791844   251A      3.815601  
     252A      3.833731   253A      3.849987   254A      3.859259  
     255A      3.865533   256A      3.873459   257A      3.889873  
     258A      3.902606   259A      3.926504   260A      3.945100  
     261A      3.950085   262A      3.962358   263A      3.986363  
     264A      3.993015   265A      4.028871   266A      4.031887  
     267A      4.038573   268A      4.070320   269A      4.109198  
     270A      4.115477   271A      4.123929   272A      4.134108  
     273A      4.138661   274A      4.149153   275A      4.153129  
     276A      4.162167   277A      4.176137   278A      4.188436  
     279A      4.189509   280A      4.212029   281A      4.223666  
     282A      4.236129   283A      4.242188   284A      4.256563  
     285A      4.272279   286A      4.291670   287A      4.301565  
     288A      4.317327   289A      4.339728   290A      4.345304  
     291A      4.345481   292A      4.369852   293A      4.379329  
     294A      4.397116   295A      4.409231   296A      4.427131  
     297A      4.433161   298A      4.450334   299A      4.463793  
     300A      4.472442   301A      4.481575   302A      4.493045  
     303A      4.508962   304A      4.524178   305A      4.536307  
     306A      4.545089   307A      4.552358   308A      4.563428  
     309A      4.582655   310A      4.619980   311A      4.635248  
     312A      4.642453   313A      4.655085   314A      4.674879  
     315A      4.680136   316A      4.703093   317A      4.712227  
     318A      4.741664   319A      4.753330   320A      4.774445  
     321A      4.783146   322A      4.796827   323A      4.829241  
     324A      4.849380   325A      4.854879   326A      4.864124  
     327A      4.944362   328A      4.967703   329A      4.991567  
     330A      5.041660   331A      5.043862   332A      5.065224  
     333A      5.079891   334A      5.109090   335A      5.126212  
     336A      5.142516   337A      5.161934   338A      5.186452  
     339A      5.197139   340A      5.213676   341A      5.228319  
     342A      5.252686   343A      5.263245   344A      5.271960  
     345A      5.300227   346A      5.322740   347A      5.355572  
     348A      5.363434   349A      5.372290   350A      5.404838  
     351A      5.426096   352A      5.431353   353A      5.464276  
     354A      5.474724   355A      5.514895   356A      5.533847  
     357A      5.575951   358A      5.613428   359A      5.631836  
     360A      5.646008   361A      5.649688   362A      5.736226  
     363A      5.751895   364A      5.760824   365A      5.762168  
     366A      5.789416   367A      5.802307   368A      5.833324  
     369A      5.852211   370A      5.876867   371A      5.889191  
     372A      5.894892   373A      5.929155   374A      5.945071  
     375A      5.954855   376A      5.970159   377A      6.002694  
     378A      6.012815   379A      6.068291   380A      6.092617  
     381A      6.129611   382A      6.258737   383A      6.317319  
     384A      6.336488   385A      6.349479   386A      6.388962  
     387A      6.429975   388A      6.461787   389A      6.495727  
     390A      6.518290   391A      6.696611   392A      7.096743  
     393A      7.173157   394A      7.256550   395A      7.298895  
     396A      7.441409   397A      7.546690   398A      7.735490  
     399A      8.040517   400A     12.863061   401A     13.165818  
     402A     13.298032   403A     13.545481   404A     13.803461  
     405A     13.963924   406A     14.267475  

    Final Occupation by Irrep:
              A 
    DOCC [    29 ]

  Energy converged.

  @DF-RHF Final Energy:  -310.33141208597959

   => Energetics <=

    Nuclear Repulsion Energy =            318.8392600444801133
    One-Electron Energy =               -1052.8213531510164103
    Two-Electron Energy =                 423.6506810205568172
    DFT Exchange-Correlation Energy =       0.0000000000000000
    Empirical Dispersion Energy =           0.0000000000000000
    PCM Polarization Energy =               0.0000000000000000
    EFP Energy =                            0.0000000000000000
    Total Energy =                       -310.3314120859794230


  Saving occupied orbitals to File 180.

*** tstop() called on cx1-27-1-3 at Sat Sep 10 15:18:02 2016
Module time:
	user time   =      42.55 seconds =       0.71 minutes
	system time =       0.83 seconds =       0.01 minutes
	total time  =         12 seconds =       0.20 minutes
Total time:
	user time   =      42.55 seconds =       0.71 minutes
	system time =       0.83 seconds =       0.01 minutes
	total time  =         12 seconds =       0.20 minutes


Properties will be evaluated at   0.000000,   0.000000,   0.000000 Bohr

Properties computed using the SCF density matrix

  Nuclear Dipole Moment: (a.u.)
     X:     4.9491      Y:    -0.2098      Z:    -2.8357

  Electronic Dipole Moment: (a.u.)
     X:    -5.4406      Y:     0.4165      Z:     2.5567

  Dipole Moment: (a.u.)
     X:    -0.4915      Y:     0.2067      Z:    -0.2790     Total:     0.6018

  Dipole Moment: (Debye)
     X:    -1.2493      Y:     0.5254      Z:    -0.7092     Total:     1.5296


*** tstart() called on cx1-27-1-3
*** at Sat Sep 10 15:18:02 2016


         ------------------------------------------------------------
                                   SCF GRAD                          
                          Rob Parrish, Justin Turney,                
                       Andy Simmonett, and Alex Sokolov              
         ------------------------------------------------------------

  ==> Geometry <==

    Molecular point group: c1
    Full point group: C1

    Geometry (in Angstrom), charge = 0, multiplicity = 1:

       Center              X                  Y                   Z               Mass       
    ------------   -----------------  -----------------  -----------------  -----------------
           H         -3.042551760457     1.300357119998     1.581319463539     1.007825032070
           O         -2.354227760457     0.724676119998     1.303836463539    15.994914619560
           C         -2.521593760457     0.388300119998    -0.047924536461    12.000000000000
           C         -1.395017760457    -0.538758880002    -0.457205536461    12.000000000000
           H         -3.480138760457    -0.102799880002    -0.202148536461     1.007825032070
           H         -2.508623760457     1.282796119998    -0.667228536461     1.007825032070
           C         -0.023300760457    -0.034295880002    -0.018576536461    12.000000000000
           H         -1.421202760457    -0.656040880002    -1.535991536461     1.007825032070
           H         -1.585304760457    -1.519299880002    -0.032650536461     1.007825032070
           C          1.110890239543    -0.966707880002    -0.440544536461    12.000000000000
           H          0.140212239543     0.956657119998    -0.430875536461     1.007825032070
           H         -0.007195760457     0.077563119998     1.063463463539     1.007825032070
           C          2.500370239543    -0.548240880002     0.043010463539    12.000000000000
           H          1.120058239543    -1.051771880002    -1.524677536461     1.007825032070
           H          0.899671239543    -1.962524880002    -0.061186536461     1.007825032070
           C          3.022234239543     0.752880119998    -0.562051536461    12.000000000000
           H          3.198969239543    -1.345300880002    -0.192279536461     1.007825032070
           H          2.492446239543    -0.463939880002     1.126645463539     1.007825032070
           H          3.034874239543     0.700499119998    -1.646098536461     1.007825032070
           H          2.415130239543     1.604503119998    -0.279472536461     1.007825032070
           H          4.034934239543     0.951829119998    -0.230343536461     1.007825032070

  Nuclear repulsion =  318.839260044480113

  ==> Basis Set <==

  Basis Set: CC-PVTZ
    Number of shells: 154
    Number of basis function: 406
    Number of Cartesian functions: 455
    Spherical Harmonics?: true
    Max angular momentum: 3

  ==> DFJKGrad: Density-Fitted SCF Gradients <==

    Gradient:                    1
    J tasked:                  Yes
    K tasked:                  Yes
    wK tasked:                  No
    OpenMP threads:              4
    Integrals threads:           4
    Memory (MB):              1430
    Schwarz Cutoff:          0E+00
    Fitting Condition:       1E-12

   => Auxiliary Basis Set <=

  Basis Set: 
    Number of shells: 315
    Number of basis function: 973
    Number of Cartesian functions: 1162
    Spherical Harmonics?: true
    Max angular momentum: 4


  -Total Gradient:
     Atom            X                  Y                   Z
    ------   -----------------  -----------------  -----------------
       1        0.000069534160     0.000321865058     0.000004408939
       2        0.004217111317    -0.000597315608    -0.001533852069
       3        0.000712627558    -0.001640749857     0.000828488654
       4       -0.000374289066     0.000953413023    -0.002010509663
       5       -0.000618034598    -0.000530870878     0.000516195228
       6       -0.000534954315    -0.000783533656    -0.000841554209
       7       -0.004053373253     0.000970189025    -0.002709053083
       8        0.000479063801     0.000338553672     0.000726843454
       9       -0.001907843506     0.000506208277    -0.000950628909
      10        0.001058861422    -0.000368798729     0.001165239166
      11        0.000627720444    -0.000307135368     0.000271430352
      12        0.000950922523     0.000289712865     0.004038364071
      13        0.000171793214     0.000062240003    -0.000147102757
      14       -0.000690832172     0.000463060193     0.000586757183
      15       -0.000096096348     0.000255983290    -0.000142336136
      16        0.000107718831    -0.000076770139    -0.000097743548
      17       -0.000176411045     0.000033409702     0.000062145246
      18        0.000160267129    -0.000068982393     0.000159828482
      19       -0.000022070617     0.000025065515     0.000101351928
      20        0.000007022276     0.000148439839    -0.000033060659
      21       -0.000088737751     0.000006016166     0.000004788330


*** tstop() called on cx1-27-1-3 at Sat Sep 10 15:18:14 2016
Module time:
	user time   =      44.48 seconds =       0.74 minutes
	system time =       0.83 seconds =       0.01 minutes
	total time  =         12 seconds =       0.20 minutes
Total time:
	user time   =      87.20 seconds =       1.45 minutes
	system time =       1.66 seconds =       0.03 minutes
	total time  =         24 seconds =       0.40 minutes

			-----------------------------------------
			 OPTKING 2.0: for geometry optimizations 
			  - R.A. King,  Bethel University        
			-----------------------------------------

	Internal coordinates to be generated automatically.
	Detected frag 1 with atoms:  1 2 3 4 5 6 7 8 9 10 11 12 13 14 15 16 17 18 19 20
	 21
	---Fragment 1 Bond Connectivity---
	 1 : 2
	 2 : 1 3
	 3 : 2 4 5 6
	 4 : 3 7 8 9
	 5 : 3
	 6 : 3
	 7 : 4 10 11 12
	 8 : 4
	 9 : 4
	 10 : 7 13 14 15
	 11 : 7
	 12 : 7
	 13 : 10 16 17 18
	 14 : 10
	 15 : 10
	 16 : 13 19 20 21
	 17 : 13
	 18 : 13
	 19 : 16
	 20 : 16
	 21 : 16

	Assuming in current code that numbering for constraints corresponds to unified fragment.
	Frozen dihedral atom list: 
	     2     3     4     8
	---Fragment 1 Geometry and Gradient---
	 H          -5.7495895724        2.4573188317        2.9882607147
	 O          -4.4488457217        1.3694394018        2.4638938382
	 C          -4.7651216257        0.7337808842       -0.0905642490
	 C          -2.6362015178       -1.0181067349       -0.8639932504
	 H          -6.5765091617       -0.1942636197       -0.3820053721
	 H          -4.7406118777        2.4241333511       -1.2608792020
	 C          -0.0440320560       -0.0648098207       -0.0351045664
	 H          -2.6856839966       -1.2397375952       -2.9026033463
	 H          -2.9957918344       -2.8710606869       -0.0617005720
	 C           2.0992783164       -1.8268131437       -0.8325085233
	 H           0.2649627332        1.8078199599       -0.8142367613
	 H          -0.0135980166        0.1465730548        2.0096546984
	 C           4.7250149836       -1.0360251181        0.0812779969
	 H           2.1166033256       -1.9875608075       -2.8812229849
	 H           1.7001322524       -3.7086345522       -0.1156257969
	 C           5.7111950222        1.4227372377       -1.0621234765
	 H           6.0451757703       -2.5422502295       -0.3633556649
	 H           4.7100407937       -0.8767193153        2.1290513749
	 H           5.7350811605        1.3237514931       -3.1106754217
	 H           4.5639347280        3.0320714762       -0.5281265556
	 H           7.6249206769        1.7986963621       -0.4352862004
	             0.0000695342        0.0003218651        0.0000044089
	             0.0042171113       -0.0005973156       -0.0015338521
	             0.0007126276       -0.0016407499        0.0008284887
	            -0.0003742891        0.0009534130       -0.0020105097
	            -0.0006180346       -0.0005308709        0.0005161952
	            -0.0005349543       -0.0007835337       -0.0008415542
	            -0.0040533733        0.0009701890       -0.0027090531
	             0.0004790638        0.0003385537        0.0007268435
	            -0.0019078435        0.0005062083       -0.0009506289
	             0.0010588614       -0.0003687987        0.0011652392
	             0.0006277204       -0.0003071354        0.0002714304
	             0.0009509225        0.0002897129        0.0040383641
	             0.0001717932        0.0000622400       -0.0001471028
	            -0.0006908322        0.0004630602        0.0005867572
	            -0.0000960963        0.0002559833       -0.0001423361
	             0.0001077188       -0.0000767701       -0.0000977435
	            -0.0001764110        0.0000334097        0.0000621452
	             0.0001602671       -0.0000689824        0.0001598285
	            -0.0000220706        0.0000250655        0.0001013519
	             0.0000070223        0.0001484398       -0.0000330607
	            -0.0000887378        0.0000060162        0.0000047883

	Previous optimization step data not found.  Starting new optimization.

	---Fragment 1 Intrafragment Coordinates---
	 - Coordinate -           - BOHR/RAD -       - ANG/DEG -
	 R(1,2)           =         1.774930	       0.939253
	 R(2,3)           =         2.651292	       1.403003
	 R(3,4)           =         2.863495	       1.515296
	 R(3,5)           =         2.056047	       1.088013
	 R(3,6)           =         2.056096	       1.088039
	 R(4,7)           =         2.883604	       1.525938
	 R(4,8)           =         2.051219	       1.085458
	 R(4,9)           =         2.050955	       1.085319
	 R(7,10)          =         2.886917	       1.527691
	 R(7,11)          =         2.051650	       1.085686
	 R(7,12)          =         2.055882	       1.087926
	 R(10,13)         =         2.890475	       1.529573
	 R(10,14)         =         2.055084	       1.087504
	 R(10,15)         =         2.052922	       1.086360
	 R(13,16)         =         2.885382	       1.526878
	 R(13,17)         =         2.051643	       1.085683
	 R(13,18)         =         2.054015	       1.086938
	 R(16,19)         =         2.051081	       1.085385
	 R(16,20)         =         2.047270	       1.083369
	 R(16,21)         =         2.048564	       1.084054
	 B(1,2,3)         =         1.922147	     110.130931
	 B(2,3,4)         =         1.894655	     108.555745
	 B(2,3,5)         =         1.928246	     110.480342
	 B(2,3,6)         =         1.928235	     110.479723
	 B(3,4,7)         =         1.969727	     112.857049
	 B(3,4,8)         =         1.892948	     108.457934
	 B(3,4,9)         =         1.893074	     108.465161
	 B(4,3,5)         =         1.918312	     109.911207
	 B(4,3,6)         =         1.918107	     109.899456
	 B(4,7,10)        =         1.967323	     112.719327
	 B(4,7,11)        =         1.904951	     109.145677
	 B(4,7,12)        =         1.910483	     109.462633
	 B(5,3,6)         =         1.876434	     107.511775
	 B(7,4,8)         =         1.920998	     110.065073
	 B(7,4,9)         =         1.921800	     110.111042
	 B(7,10,13)       =         2.004377	     114.842345
	 B(7,10,14)       =         1.906418	     109.229711
	 B(7,10,15)       =         1.895123	     108.582530
	 B(8,4,9)         =         1.861815	     106.674166
	 B(10,7,11)       =         1.918113	     109.899760
	 B(10,7,12)       =         1.903376	     109.055429
	 B(10,13,16)      =         2.002410	     114.729650
	 B(10,13,17)      =         1.891425	     108.370687
	 B(10,13,18)      =         1.906859	     109.254979
	 B(11,7,12)       =         1.856287	     106.357383
	 B(13,10,14)      =         1.905934	     109.201947
	 B(13,10,15)      =         1.893369	     108.482040
	 B(13,16,19)      =         1.937608	     111.016744
	 B(13,16,20)      =         1.955158	     112.022309
	 B(13,16,21)      =         1.933091	     110.757979
	 B(14,10,15)      =         1.852568	     106.144307
	 B(16,13,17)      =         1.896314	     108.650780
	 B(16,13,18)      =         1.908658	     109.358053
	 B(17,13,18)      =         1.852188	     106.122567
	 B(19,16,20)      =         1.880708	     107.756651
	 B(19,16,21)      =         1.879254	     107.673296
	 B(20,16,21)      =         1.874884	     107.422933
	 D(1,2,3,4)       =         3.141541	     179.997062
	 D(1,2,3,5)       =        -1.036998	     -59.415624
	 D(1,2,3,6)       =         1.037155	      59.424576
	 D(2,3,4,7)       =        -0.833867	     -47.777078
	*D(2,3,4,8)       =        -2.967060	    -169.999993
	 D(2,3,4,9)       =         1.300434	      74.509368
	 D(3,4,7,10)      =        -3.135192	    -179.633268
	 D(3,4,7,11)      =        -0.998731	     -57.223068
	 D(3,4,7,12)      =         1.026407	      58.808771
	 D(4,7,10,13)     =        -3.083852	    -176.691724
	 D(4,7,10,14)     =         1.051739	      60.260211
	 D(4,7,10,15)     =        -0.961289	     -55.077808
	 D(5,3,4,7)       =        -2.944651	    -168.716101
	 D(5,3,4,8)       =         1.205342	      69.060984
	 D(5,3,4,9)       =        -0.810350	     -46.429656
	 D(6,3,4,7)       =         1.276779	      73.154039
	 D(6,3,4,8)       =        -0.856413	     -49.068876
	 D(6,3,4,9)       =        -2.872105	    -164.559516
	 D(7,10,13,16)    =        -1.155372	     -66.197965
	 D(7,10,13,17)    =         3.005538	     172.204654
	 D(7,10,13,18)    =         0.994735	      56.994122
	 D(8,4,7,10)      =        -1.017828	     -58.317241
	 D(8,4,7,11)      =         1.118633	      64.092959
	 D(8,4,7,12)      =        -3.139415	    -179.875202
	 D(9,4,7,10)      =         1.029893	      59.008508
	 D(9,4,7,11)      =        -3.116832	    -178.581292
	 D(9,4,7,12)      =        -1.091694	     -62.549453
	 D(10,13,16,19)   =        -0.985496	     -56.464784
	 D(10,13,16,20)   =         1.117956	      64.054150
	 D(10,13,16,21)   =        -3.072313	    -176.030593
	 D(11,7,10,13)    =         1.070283	      61.322692
	 D(11,7,10,14)    =        -1.077311	     -61.725372
	 D(11,7,10,15)    =        -3.090339	    -177.063392
	 D(12,7,10,13)    =        -0.958241	     -54.903161
	 D(12,7,10,14)    =        -3.105835	    -177.951226
	 D(12,7,10,15)    =         1.164322	      66.710755
	 D(14,10,13,16)   =         0.992481	      56.864970
	 D(14,10,13,17)   =        -1.129794	     -64.732411
	 D(14,10,13,18)   =        -3.140597	    -179.942944
	 D(15,10,13,16)   =         3.004295	     172.133451
	 D(15,10,13,17)   =         0.882021	      50.536070
	 D(15,10,13,18)   =        -1.128782	     -64.674463
	 D(17,13,16,19)   =         1.134110	      64.979693
	 D(17,13,16,20)   =        -3.045624	    -174.501373
	 D(17,13,16,21)   =        -0.952707	     -54.586117
	 D(18,13,16,19)   =        -3.134640	    -179.601616
	 D(18,13,16,20)   =        -1.031187	     -59.082681
	 D(18,13,16,21)   =         1.061729	      60.832575

	Current energy   :      -310.3314120860

	Generating empirical Hessian (Schlegel '84) for each fragment.
	Taking RFO optimization step.
	Going to follow RFO solution 1.
	Using RFO vector 1.
	Norm of target step-size    0.23377
	Projected energy change by RFO approximation:        -0.0024139266

	Back-transformation to cartesian coordinates...
	Successfully converged to displaced geometry.

	Back-transformation to cartesian coordinates to adjust frozen coordinates...
	Successfully converged to displaced geometry.

	--- Internal Coordinate Step in ANG or DEG, aJ/ANG or AJ/DEG ---
	 ---------------------------------------------------------------------------
	   Coordinate                Previous        Force       Change         New 
	   ----------                --------       ------       ------       ------
	    1 R(1,2)          =      0.939253    -0.001216    -0.000129     0.939123
	    2 R(2,3)          =      1.403003     0.008472     0.001202     1.404205
	    3 R(3,4)          =      1.515296     0.042127     0.008738     1.524034
	    4 R(3,5)          =      1.088013    -0.005857    -0.001069     1.086944
	    5 R(3,6)          =      1.088039     0.001413     0.000258     1.088297
	    6 R(4,7)          =      1.525938     0.003509     0.000753     1.526690
	    7 R(4,8)          =      1.085458     0.006348     0.001149     1.086607
	    8 R(4,9)          =      1.085319     0.004076     0.000737     1.086056
	    9 R(7,10)         =      1.527691     0.003550     0.000766     1.528456
	   10 R(7,11)         =      1.085686     0.002380     0.000431     1.086117
	   11 R(7,12)         =      1.087926    -0.033452    -0.006105     1.081821
	   12 R(10,13)        =      1.529573    -0.001617    -0.000351     1.529223
	   13 R(10,14)        =      1.087504     0.005166     0.000941     1.088445
	   14 R(10,15)        =      1.086360     0.002189     0.000397     1.086757
	   15 R(13,16)        =      1.526878    -0.000813    -0.000175     1.526704
	   16 R(13,17)        =      1.085683     0.001248     0.000226     1.085909
	   17 R(13,18)        =      1.086938    -0.001259    -0.000229     1.086709
	   18 R(16,19)        =      1.085385     0.000846     0.000153     1.085538
	   19 R(16,20)        =      1.083369    -0.000858    -0.000154     1.083215
	   20 R(16,21)        =      1.084054     0.000662     0.000119     1.084173
	   21 B(1,2,3)        =    110.130931    -0.000006    -0.033238   110.097693
	   22 B(2,3,4)        =    108.555745     0.000511     1.890064   110.445809
	   23 B(2,3,5)        =    110.480342    -0.000170    -0.042320   110.438022
	   24 B(2,3,6)        =    110.479723    -0.000180    -1.064271   109.415452
	   25 B(3,4,7)        =    112.857049     0.000471     1.323127   114.180176
	   26 B(3,4,8)        =    108.457934    -0.000169    -1.210611   107.247323
	   27 B(3,4,9)        =    108.465161    -0.000025     1.514641   109.979802
	   28 B(4,3,5)        =    109.911207    -0.000137    -0.179829   109.731377
	   29 B(4,3,6)        =    109.899456    -0.000089    -0.395252   109.504204
	   30 B(4,7,10)       =    112.719327    -0.000076    -0.263536   112.455791
	   31 B(4,7,11)       =    109.145677    -0.000006    -0.369428   108.776250
	   32 B(4,7,12)       =    109.462633    -0.000021    -0.195362   109.267271
	   33 B(5,3,6)        =    107.511775     0.000054    -0.267462   107.244313
	   34 B(7,4,8)        =    110.065073    -0.000239    -2.548558   107.516516
	   35 B(7,4,9)        =    110.111042    -0.000179    -0.107051   110.003991
	   36 B(7,10,13)      =    114.842345    -0.000043    -0.116700   114.725646
	   37 B(7,10,14)      =    109.229711     0.000062     0.488727   109.718438
	   38 B(7,10,15)      =    108.582530     0.000009    -0.040915   108.541616
	   39 B(8,4,9)        =    106.674166     0.000126     0.974308   107.648473
	   40 B(10,7,11)      =    109.899760     0.000032     0.063311   109.963071
	   41 B(10,7,12)      =    109.055429     0.000082     0.654469   109.709898
	   42 B(10,13,16)     =    114.729650    -0.000002    -0.044852   114.684799
	   43 B(10,13,17)     =    108.370687     0.000009     0.106507   108.477193
	   44 B(10,13,18)     =    109.254979    -0.000007    -0.091256   109.163723
	   45 B(11,7,12)      =    106.357383    -0.000008     0.127706   106.485090
	   46 B(13,10,14)     =    109.201947    -0.000021    -0.127767   109.074180
	   47 B(13,10,15)     =    108.482040     0.000006    -0.179277   108.302763
	   48 B(13,16,19)     =    111.016744     0.000001     0.035146   111.051890
	   49 B(13,16,20)     =    112.022309    -0.000012    -0.069178   111.953130
	   50 B(13,16,21)     =    110.757979     0.000002    -0.014305   110.743674
	   51 B(14,10,15)     =    106.144307    -0.000011    -0.024917   106.119390
	   52 B(16,13,17)     =    108.650780    -0.000005    -0.012035   108.638745
	   53 B(16,13,18)     =    109.358053     0.000003    -0.003281   109.354771
	   54 B(17,13,18)     =    106.122567     0.000004     0.054491   106.177057
	   55 B(19,16,20)     =    107.756651     0.000006     0.015306   107.771956
	   56 B(19,16,21)     =    107.673296    -0.000001    -0.013233   107.660063
	   57 B(20,16,21)     =    107.422933     0.000005     0.049225   107.472159
	   58 D(1,2,3,4)      =    179.997062     0.000007     1.241584   181.238646
	   59 D(1,2,3,5)      =    -59.415624     0.000018     2.217659   -57.197965
	   60 D(1,2,3,6)      =     59.424576    -0.000017     1.203032    60.627608
	   61 D(2,3,4,7)      =    -47.777078    -0.000026    -3.219752   -50.996830
	   62 *D(2,3,4,8)     =   -169.999993     0.000000    -0.000000  -169.999993
	   63 D(2,3,4,9)      =     74.509368    -0.000010    -1.295006    73.214362
	   64 D(3,4,7,10)     =   -179.633268     0.000024     5.058811  -174.574457
	   65 D(3,4,7,11)     =    -57.223068     0.000021     4.701525   -52.521543
	   66 D(3,4,7,12)     =     58.808771     0.000015     4.539978    63.348749
	   67 D(4,7,10,13)    =   -176.691724    -0.000001     0.322138  -176.369586
	   68 D(4,7,10,14)    =     60.260211     0.000002     0.192784    60.452995
	   69 D(4,7,10,15)    =    -55.077808    -0.000004    -0.018966   -55.096774
	   70 D(5,3,4,7)      =   -168.716101    -0.000032    -4.261302  -172.977403
	   71 D(5,3,4,8)      =     69.060984    -0.000006    -1.041550    68.019434
	   72 D(5,3,4,9)      =    -46.429656    -0.000017    -2.336556   -48.766212
	   73 D(6,3,4,7)      =     73.154039    -0.000016    -3.592888    69.561151
	   74 D(6,3,4,8)      =    -49.068876     0.000010    -0.373136   -49.442012
	   75 D(6,3,4,9)      =   -164.559516    -0.000000    -1.668142  -166.227658
	   76 D(7,10,13,16)   =    -66.197965    -0.000004    -0.282352   -66.480317
	   77 D(7,10,13,17)   =    172.204654    -0.000003    -0.315951   171.888703
	   78 D(7,10,13,18)   =     56.994122    -0.000004    -0.389697    56.604424
	   79 D(8,4,7,10)     =    -58.317241     0.000009     2.593468   -55.723773
	   80 D(8,4,7,11)     =     64.092959     0.000006     2.236181    66.329141
	   81 D(8,4,7,12)     =   -179.875202     0.000000     2.074634  -177.800568
	   82 D(9,4,7,10)     =     59.008508    -0.000013     2.218791    61.227299
	   83 D(9,4,7,11)     =   -178.581292    -0.000016     1.861505  -176.719787
	   84 D(9,4,7,12)     =    -62.549453    -0.000022     1.699958   -60.849495
	   85 D(10,13,16,19)  =    -56.464784    -0.000001    -0.027865   -56.492650
	   86 D(10,13,16,20)  =     64.054150    -0.000001    -0.031221    64.022929
	   87 D(10,13,16,21)  =   -176.030593    -0.000001    -0.024834  -176.055428
	   88 D(11,7,10,13)   =     61.322692     0.000008     0.929988    62.252681
	   89 D(11,7,10,14)   =    -61.725372     0.000010     0.800633   -60.924739
	   90 D(11,7,10,15)   =   -177.063392     0.000004     0.588884  -176.474508
	   91 D(12,7,10,13)   =    -54.903161    -0.000005     0.359211   -54.543950
	   92 D(12,7,10,14)   =   -177.951226    -0.000003     0.229857  -177.721369
	   93 D(12,7,10,15)   =     66.710755    -0.000008     0.018107    66.728862
	   94 D(14,10,13,16)  =     56.864970     0.000004     0.176802    57.041772
	   95 D(14,10,13,17)  =    -64.732411     0.000005     0.143203   -64.589208
	   96 D(14,10,13,18)  =   -179.942944     0.000003     0.069457  -179.873487
	   97 D(15,10,13,16)  =    172.133451    -0.000000    -0.017234   172.116216
	   98 D(15,10,13,17)  =     50.536070    -0.000000    -0.050833    50.485237
	   99 D(15,10,13,18)  =    -64.674463    -0.000001    -0.124580   -64.799043
	  100 D(17,13,16,19)  =     64.979693     0.000000     0.070432    65.050125
	  101 D(17,13,16,20)  =   -174.501373     0.000000     0.067076  -174.434297
	  102 D(17,13,16,21)  =    -54.586117     0.000000     0.073464   -54.512653
	  103 D(18,13,16,19)  =   -179.601616     0.000001     0.126882  -179.474733
	  104 D(18,13,16,20)  =    -59.082681     0.000001     0.123526   -58.959155
	  105 D(18,13,16,21)  =     60.832575     0.000001     0.129914    60.962489
	 ---------------------------------------------------------------------------
	Successfully symmetrized geometry.

  ==> Convergence Check <==

  Measures of convergence in internal coordinates in au.
  Criteria marked as inactive (o), active & met (*), and active & unmet ( ).
  --------------------------------------------------------------------------------------------- ~
   Step     Total Energy     Delta E     MAX Force     RMS Force      MAX Disp      RMS Disp    ~
  --------------------------------------------------------------------------------------------- ~
    Convergence Criteria    1.00e-06 *    3.00e-04 *             o    1.20e-03 *             o  ~
  --------------------------------------------------------------------------------------------- ~
      1    -310.33141209   -3.10e+02      6.71e-03      1.35e-03 o    8.83e-02      2.28e-02 o  ~
  ---------------------------------------------------------------------------------------------

	Writing optimization data to binary file.
	Structure for next step:
	Cartesian Geometry (in Angstrom)
	    H    -3.1739668113   1.2922321770   1.5583716715
	    O    -2.4512497059   0.7338557824   1.3396299999
	    C    -2.5319495435   0.3455668857  -0.0074080698
	    C    -1.3792121445  -0.5858056333  -0.3629671344
	    H    -3.4787686067  -0.1510725326  -0.2031890042
	    H    -2.4939690438   1.2292234439  -0.6415206866
	    C    -0.0026478709  -0.0554045871   0.0301346991
	    H    -1.3860500647  -0.7093313376  -1.4425088943
	    H    -1.5414429887  -1.5634473530   0.0813477718
	    C     1.1315573230  -0.9546549528  -0.4608903424
	    H     0.1153615434   0.9451958507  -0.3754804619
	    H     0.0485331607   0.0416181809   1.1063797006
	    C     2.5297233293  -0.5185222395  -0.0210700599
	    H     1.1045309900  -1.0198580057  -1.5470444850
	    H     0.9571564765  -1.9625165884  -0.0936843268
	    C     3.0021455987   0.8047582930  -0.6182046065
	    H     3.2356708395  -1.2958497886  -0.2978327885
	    H     2.5589768626  -0.4551168104   1.0633931369
	    H     2.9750512222   0.7748016311  -1.7029913613
	    H     2.3885629842   1.6368696016  -0.2950004330
	    H     4.0226194801   1.0178375028  -0.3204445908
			--------------------------
			 OPTKING Finished Execution 
			--------------------------

    Structure for next step:
    Molecular point group: c1
    Full point group: C1

    Geometry (in Angstrom), charge = 0, multiplicity = 1:

    H           -3.165758176589     1.292740648157     1.548500809327
    O           -2.443041071168     0.734364253534     1.329759137749
    C           -2.523740908842     0.346075356846    -0.017278931963
    C           -1.371003509774    -0.585297162091    -0.372837996562
    H           -3.470559972008    -0.150564061477    -0.213059866348
    H           -2.485760409144     1.229731915045    -0.651391548694
    C            0.005560763797    -0.054896115913     0.020263836910
    H           -1.377841430003    -0.708822866459    -1.452379756468
    H           -1.533234353972    -1.562938881837     0.071476909674
    C            1.139765957717    -0.954146481659    -0.470761204578
    H            0.123570178139     0.945704321890    -0.385351324038
    H            0.056741795438     0.042126652100     1.096508838467
    C            2.537931963973    -0.518013768364    -0.030940922015
    H            1.112739624720    -1.019349534547    -1.556915347176
    H            0.965365111199    -1.962008117235    -0.103555188909
    C            3.010354233395     0.805266764157    -0.628075468622
    H            3.243879474146    -1.295341317478    -0.307703650644
    H            2.567185497262    -0.454608339273     1.053522274776
    H            2.983259856888     0.775310102290    -1.712862223491
    H            2.396771618905     1.637378072794    -0.304871295113
    H            4.030828114836     1.018345973938    -0.330315452982

gradient() will perform analytic gradient computation.

*** tstart() called on cx1-27-1-3
*** at Sat Sep 10 15:18:15 2016


         ---------------------------------------------------------
                                   SCF
            by Justin Turney, Rob Parrish, and Andy Simmonett
                              RHF Reference
                        4 Threads,   2000 MiB Core
         ---------------------------------------------------------

  ==> Geometry <==

    Molecular point group: c1
    Full point group: C1

    Geometry (in Angstrom), charge = 0, multiplicity = 1:

       Center              X                  Y                   Z               Mass       
    ------------   -----------------  -----------------  -----------------  -----------------
           H         -3.165758176589     1.292740648157     1.548500809327     1.007825032070
           O         -2.443041071168     0.734364253534     1.329759137749    15.994914619560
           C         -2.523740908842     0.346075356846    -0.017278931963    12.000000000000
           C         -1.371003509774    -0.585297162091    -0.372837996562    12.000000000000
           H         -3.470559972008    -0.150564061477    -0.213059866348     1.007825032070
           H         -2.485760409144     1.229731915045    -0.651391548694     1.007825032070
           C          0.005560763797    -0.054896115913     0.020263836910    12.000000000000
           H         -1.377841430003    -0.708822866459    -1.452379756468     1.007825032070
           H         -1.533234353972    -1.562938881837     0.071476909674     1.007825032070
           C          1.139765957717    -0.954146481659    -0.470761204578    12.000000000000
           H          0.123570178139     0.945704321890    -0.385351324038     1.007825032070
           H          0.056741795438     0.042126652100     1.096508838467     1.007825032070
           C          2.537931963973    -0.518013768364    -0.030940922015    12.000000000000
           H          1.112739624720    -1.019349534547    -1.556915347176     1.007825032070
           H          0.965365111199    -1.962008117235    -0.103555188909     1.007825032070
           C          3.010354233395     0.805266764157    -0.628075468622    12.000000000000
           H          3.243879474146    -1.295341317478    -0.307703650644     1.007825032070
           H          2.567185497262    -0.454608339273     1.053522274776     1.007825032070
           H          2.983259856888     0.775310102290    -1.712862223491     1.007825032070
           H          2.396771618905     1.637378072794    -0.304871295113     1.007825032070
           H          4.030828114836     1.018345973938    -0.330315452982     1.007825032070

  Running in c1 symmetry.

  Rotational constants: A =      0.19416  B =      0.03208  C =      0.03029 [cm^-1]
  Rotational constants: A =   5820.70460  B =    961.86016  C =    908.01218 [MHz]
  Nuclear repulsion =  317.464461414445736

  Charge       = 0
  Multiplicity = 1
  Electrons    = 58
  Nalpha       = 29
  Nbeta        = 29

  ==> Algorithm <==

  SCF Algorithm Type is DF.
  DIIS enabled.
  MOM disabled.
  Fractional occupation disabled.
  Guess Type is READ.
  Energy threshold   = 1.00e-08
  Density threshold  = 1.00e-08
  Integral threshold = 0.00e+00

  ==> Primary Basis <==

  Basis Set: CC-PVTZ
    Number of shells: 154
    Number of basis function: 406
    Number of Cartesian functions: 455
    Spherical Harmonics?: true
    Max angular momentum: 3

  ==> Pre-Iterations <==

   -------------------------------------------------------
    Irrep   Nso     Nmo     Nalpha   Nbeta   Ndocc  Nsocc
   -------------------------------------------------------
     A        406     406       0       0       0       0
   -------------------------------------------------------
    Total     406     406      29      29      29       0
   -------------------------------------------------------

  ==> Integral Setup <==

  ==> DFJK: Density-Fitted J/K Matrices <==

    J tasked:                  Yes
    K tasked:                  Yes
    wK tasked:                  No
    OpenMP threads:              4
    Integrals threads:           4
    Memory (MB):              1430
    Algorithm:                Core
    Integral Cache:           NONE
    Schwarz Cutoff:          1E-12
    Fitting Condition:       1E-12

   => Auxiliary Basis Set <=

  Basis Set: 
    Number of shells: 315
    Number of basis function: 973
    Number of Cartesian functions: 1162
    Spherical Harmonics?: true
    Max angular momentum: 4

  Minimum eigenvalue in the overlap matrix is 3.2432269794E-04.
  Using Symmetric Orthogonalization.
  SCF Guess: Reading in previously saved MOs, projecting if necessary.

  Using orbitals from previous SCF, no projection.
  Recomputing DOCC and SOCC from number of alpha and beta electrons from previous calculation.
              A 
    DOCC [    29 ]

  ==> Iterations <==

                           Total Energy        Delta E     RMS |[F,P]|

   @DF-RHF iter   0:  -310.32016347691376   -3.10320e+02   3.31712e-04 
   @DF-RHF iter   1:  -310.33123741695692   -1.10739e-02   5.88519e-05 
   @DF-RHF iter   2:  -310.33170981186584   -4.72395e-04   1.90112e-05 DIIS
   @DF-RHF iter   3:  -310.33177018926006   -6.03774e-05   5.48555e-06 DIIS
   @DF-RHF iter   4:  -310.33177368176814   -3.49251e-06   1.19480e-06 DIIS
   @DF-RHF iter   5:  -310.33177394069412   -2.58926e-07   3.54404e-07 DIIS
   @DF-RHF iter   6:  -310.33177396655867   -2.58646e-08   1.26140e-07 DIIS
   @DF-RHF iter   7:  -310.33177396874214   -2.18347e-09   4.26953e-08 DIIS
   @DF-RHF iter   8:  -310.33177396904523   -3.03089e-10   1.06629e-08 DIIS
   @DF-RHF iter   9:  -310.33177396906774   -2.25100e-11   3.41264e-09 DIIS

  ==> Post-Iterations <==

    Orbital Energies (a.u.)
    -----------------------

    Doubly Occupied:                                                      

       1A    -20.545904     2A    -11.266726     3A    -11.211624  
       4A    -11.208808     5A    -11.206834     6A    -11.203308  
       7A    -11.202249     8A     -1.363734     9A     -1.081916  
      10A     -1.030434    11A     -0.953710    12A     -0.876497  
      13A     -0.801827    14A     -0.773208    15A     -0.704574  
      16A     -0.650789    17A     -0.620005    18A     -0.605320  
      19A     -0.586035    20A     -0.569286    21A     -0.532519  
      22A     -0.527593    23A     -0.502221    24A     -0.491105  
      25A     -0.478725    26A     -0.455978    27A     -0.453687  
      28A     -0.439778    29A     -0.430771  

    Virtual:                                                              

      30A      0.139362    31A      0.149833    32A      0.166836  
      33A      0.171018    34A      0.186554    35A      0.194251  
      36A      0.200039    37A      0.221668    38A      0.224880  
      39A      0.240657    40A      0.250232    41A      0.260861  
      42A      0.272614    43A      0.278138    44A      0.316337  
      45A      0.328534    46A      0.352071    47A      0.356620  
      48A      0.371517    49A      0.391433    50A      0.398969  
      51A      0.413838    52A      0.419488    53A      0.452649  
      54A      0.464131    55A      0.477630    56A      0.495796  
      57A      0.506581    58A      0.544430    59A      0.558781  
      60A      0.568076    61A      0.570999    62A      0.589380  
      63A      0.597711    64A      0.605539    65A      0.620312  
      66A      0.624812    67A      0.633226    68A      0.646640  
      69A      0.649169    70A      0.657238    71A      0.666964  
      72A      0.667965    73A      0.677063    74A      0.678655  
      75A      0.688245    76A      0.700499    77A      0.705058  
      78A      0.721224    79A      0.730872    80A      0.738297  
      81A      0.743630    82A      0.790919    83A      0.802158  
      84A      0.812638    85A      0.843148    86A      0.847962  
      87A      0.869348    88A      0.873297    89A      0.906732  
      90A      0.916099    91A      0.935736    92A      0.950730  
      93A      0.969584    94A      0.997430    95A      1.013894  
      96A      1.025103    97A      1.039086    98A      1.047020  
      99A      1.051168   100A      1.098181   101A      1.115711  
     102A      1.132353   103A      1.141306   104A      1.155942  
     105A      1.185288   106A      1.199923   107A      1.218321  
     108A      1.234469   109A      1.239017   110A      1.250888  
     111A      1.280247   112A      1.285940   113A      1.298682  
     114A      1.301122   115A      1.327586   116A      1.331572  
     117A      1.333140   118A      1.355211   119A      1.361107  
     120A      1.366111   121A      1.380250   122A      1.390089  
     123A      1.397919   124A      1.415458   125A      1.425168  
     126A      1.433420   127A      1.438716   128A      1.452537  
     129A      1.462692   130A      1.464380   131A      1.489021  
     132A      1.500591   133A      1.506885   134A      1.521801  
     135A      1.525531   136A      1.536388   137A      1.551083  
     138A      1.566690   139A      1.575112   140A      1.594637  
     141A      1.597477   142A      1.627934   143A      1.649627  
     144A      1.667437   145A      1.683610   146A      1.694700  
     147A      1.706208   148A      1.714345   149A      1.730134  
     150A      1.751101   151A      1.763981   152A      1.802069  
     153A      1.819668   154A      1.830668   155A      1.834641  
     156A      1.845521   157A      1.854041   158A      1.876631  
     159A      1.910394   160A      1.985155   161A      1.999164  
     162A      2.035091   163A      2.057765   164A      2.154835  
     165A      2.294720   166A      2.311057   167A      2.394157  
     168A      2.413176   169A      2.527040   170A      2.572210  
     171A      2.594404   172A      2.639495   173A      2.645396  
     174A      2.686361   175A      2.693097   176A      2.704840  
     177A      2.721867   178A      2.742047   179A      2.752105  
     180A      2.780920   181A      2.785934   182A      2.801271  
     183A      2.828909   184A      2.854417   185A      2.857928  
     186A      2.861870   187A      2.876944   188A      2.915337  
     189A      2.916551   190A      2.944651   191A      2.955392  
     192A      2.971717   193A      2.990143   194A      3.007905  
     195A      3.025918   196A      3.043302   197A      3.056831  
     198A      3.070467   199A      3.091905   200A      3.127681  
     201A      3.134763   202A      3.149962   203A      3.157385  
     204A      3.176761   205A      3.196496   206A      3.233411  
     207A      3.251188   208A      3.257206   209A      3.269834  
     210A      3.272794   211A      3.287863   212A      3.311158  
     213A      3.316210   214A      3.325620   215A      3.339590  
     216A      3.360222   217A      3.369527   218A      3.376219  
     219A      3.391244   220A      3.404312   221A      3.414770  
     222A      3.423678   223A      3.430768   224A      3.440554  
     225A      3.457215   226A      3.461727   227A      3.475403  
     228A      3.477539   229A      3.490474   230A      3.494915  
     231A      3.505054   232A      3.520157   233A      3.535690  
     234A      3.547943   235A      3.558154   236A      3.567873  
     237A      3.583776   238A      3.591656   239A      3.603771  
     240A      3.629890   241A      3.648849   242A      3.665756  
     243A      3.683526   244A      3.692916   245A      3.713662  
     246A      3.745585   247A      3.751178   248A      3.761498  
     249A      3.776581   250A      3.790693   251A      3.810369  
     252A      3.829292   253A      3.847192   254A      3.857638  
     255A      3.860061   256A      3.875983   257A      3.887184  
     258A      3.894917   259A      3.932029   260A      3.943188  
     261A      3.945859   262A      3.964936   263A      3.983613  
     264A      3.989254   265A      4.020946   266A      4.035520  
     267A      4.035969   268A      4.065002   269A      4.105766  
     270A      4.116621   271A      4.124977   272A      4.134669  
     273A      4.137263   274A      4.145965   275A      4.152761  
     276A      4.163405   277A      4.175442   278A      4.186455  
     279A      4.197879   280A      4.213851   281A      4.221580  
     282A      4.232916   283A      4.241238   284A      4.256006  
     285A      4.269422   286A      4.290671   287A      4.298476  
     288A      4.311037   289A      4.340210   290A      4.344114  
     291A      4.354385   292A      4.366979   293A      4.379179  
     294A      4.393888   295A      4.406443   296A      4.421868  
     297A      4.430475   298A      4.444295   299A      4.453889  
     300A      4.468290   301A      4.480031   302A      4.486204  
     303A      4.505830   304A      4.523952   305A      4.527340  
     306A      4.542408   307A      4.550125   308A      4.558446  
     309A      4.577890   310A      4.622939   311A      4.635213  
     312A      4.637206   313A      4.655123   314A      4.668742  
     315A      4.680699   316A      4.701609   317A      4.712843  
     318A      4.738440   319A      4.750700   320A      4.771191  
     321A      4.784695   322A      4.791768   323A      4.832022  
     324A      4.841077   325A      4.848628   326A      4.862662  
     327A      4.941998   328A      4.968949   329A      4.989267  
     330A      5.040663   331A      5.052595   332A      5.068539  
     333A      5.077696   334A      5.107787   335A      5.121597  
     336A      5.137810   337A      5.160129   338A      5.187177  
     339A      5.191811   340A      5.212267   341A      5.221441  
     342A      5.250848   343A      5.261328   344A      5.272153  
     345A      5.300247   346A      5.315070   347A      5.351871  
     348A      5.353443   349A      5.370049   350A      5.405873  
     351A      5.417789   352A      5.425218   353A      5.460020  
     354A      5.482554   355A      5.511001   356A      5.535087  
     357A      5.576515   358A      5.609190   359A      5.628955  
     360A      5.644784   361A      5.652499   362A      5.730903  
     363A      5.753496   364A      5.760671   365A      5.762493  
     366A      5.788162   367A      5.801771   368A      5.836408  
     369A      5.848729   370A      5.871089   371A      5.884724  
     372A      5.895544   373A      5.927851   374A      5.942918  
     375A      5.961017   376A      5.969060   377A      6.002407  
     378A      6.016975   379A      6.060795   380A      6.095391  
     381A      6.128693   382A      6.257536   383A      6.315645  
     384A      6.332274   385A      6.347781   386A      6.382743  
     387A      6.428746   388A      6.454325   389A      6.487548  
     390A      6.515214   391A      6.695341   392A      7.089712  
     393A      7.174127   394A      7.251083   395A      7.293359  
     396A      7.442856   397A      7.546122   398A      7.726331  
     399A      8.033065   400A     12.754971   401A     13.153629  
     402A     13.317361   403A     13.580235   404A     13.754716  
     405A     13.940461   406A     14.269387  

    Final Occupation by Irrep:
              A 
    DOCC [    29 ]

  Energy converged.

  @DF-RHF Final Energy:  -310.33177396906774

   => Energetics <=

    Nuclear Repulsion Energy =            317.4644614144457364
    One-Electron Energy =               -1050.0421391303548262
    Two-Electron Energy =                 422.2459037468415204
    DFT Exchange-Correlation Energy =       0.0000000000000000
    Empirical Dispersion Energy =           0.0000000000000000
    PCM Polarization Energy =               0.0000000000000000
    EFP Energy =                            0.0000000000000000
    Total Energy =                       -310.3317739690675694


  Saving occupied orbitals to File 180.

*** tstop() called on cx1-27-1-3 at Sat Sep 10 15:18:26 2016
Module time:
	user time   =      35.84 seconds =       0.60 minutes
	system time =       0.65 seconds =       0.01 minutes
	total time  =         11 seconds =       0.18 minutes
Total time:
	user time   =     125.11 seconds =       2.09 minutes
	system time =       2.39 seconds =       0.04 minutes
	total time  =         36 seconds =       0.60 minutes


Properties will be evaluated at   0.000000,   0.000000,   0.000000 Bohr

Properties computed using the SCF density matrix

  Nuclear Dipole Moment: (a.u.)
     X:     5.0948      Y:    -0.1955      Z:    -3.0389

  Electronic Dipole Moment: (a.u.)
     X:    -5.5552      Y:     0.3661      Z:     2.7115

  Dipole Moment: (a.u.)
     X:    -0.4604      Y:     0.1706      Z:    -0.3274     Total:     0.5901

  Dipole Moment: (Debye)
     X:    -1.1702      Y:     0.4337      Z:    -0.8321     Total:     1.5000


*** tstart() called on cx1-27-1-3
*** at Sat Sep 10 15:18:26 2016


         ------------------------------------------------------------
                                   SCF GRAD                          
                          Rob Parrish, Justin Turney,                
                       Andy Simmonett, and Alex Sokolov              
         ------------------------------------------------------------

  ==> Geometry <==

    Molecular point group: c1
    Full point group: C1

    Geometry (in Angstrom), charge = 0, multiplicity = 1:

       Center              X                  Y                   Z               Mass       
    ------------   -----------------  -----------------  -----------------  -----------------
           H         -3.165758176589     1.292740648157     1.548500809327     1.007825032070
           O         -2.443041071168     0.734364253534     1.329759137749    15.994914619560
           C         -2.523740908842     0.346075356846    -0.017278931963    12.000000000000
           C         -1.371003509774    -0.585297162091    -0.372837996562    12.000000000000
           H         -3.470559972008    -0.150564061477    -0.213059866348     1.007825032070
           H         -2.485760409144     1.229731915045    -0.651391548694     1.007825032070
           C          0.005560763797    -0.054896115913     0.020263836910    12.000000000000
           H         -1.377841430003    -0.708822866459    -1.452379756468     1.007825032070
           H         -1.533234353972    -1.562938881837     0.071476909674     1.007825032070
           C          1.139765957717    -0.954146481659    -0.470761204578    12.000000000000
           H          0.123570178139     0.945704321890    -0.385351324038     1.007825032070
           H          0.056741795438     0.042126652100     1.096508838467     1.007825032070
           C          2.537931963973    -0.518013768364    -0.030940922015    12.000000000000
           H          1.112739624720    -1.019349534547    -1.556915347176     1.007825032070
           H          0.965365111199    -1.962008117235    -0.103555188909     1.007825032070
           C          3.010354233395     0.805266764157    -0.628075468622    12.000000000000
           H          3.243879474146    -1.295341317478    -0.307703650644     1.007825032070
           H          2.567185497262    -0.454608339273     1.053522274776     1.007825032070
           H          2.983259856888     0.775310102290    -1.712862223491     1.007825032070
           H          2.396771618905     1.637378072794    -0.304871295113     1.007825032070
           H          4.030828114836     1.018345973938    -0.330315452982     1.007825032070

  Nuclear repulsion =  317.464461414445736

  ==> Basis Set <==

  Basis Set: CC-PVTZ
    Number of shells: 154
    Number of basis function: 406
    Number of Cartesian functions: 455
    Spherical Harmonics?: true
    Max angular momentum: 3

  ==> DFJKGrad: Density-Fitted SCF Gradients <==

    Gradient:                    1
    J tasked:                  Yes
    K tasked:                  Yes
    wK tasked:                  No
    OpenMP threads:              4
    Integrals threads:           4
    Memory (MB):              1430
    Schwarz Cutoff:          0E+00
    Fitting Condition:       1E-12

   => Auxiliary Basis Set <=

  Basis Set: 
    Number of shells: 315
    Number of basis function: 973
    Number of Cartesian functions: 1162
    Spherical Harmonics?: true
    Max angular momentum: 4


  -Total Gradient:
     Atom            X                  Y                   Z
    ------   -----------------  -----------------  -----------------
       1       -0.000024188509     0.000202843568     0.000404076111
       2       -0.000521231402     0.003715042452    -0.001028622314
       3       -0.001341895247    -0.002490235025     0.001157578970
       4       -0.000721179181    -0.003893005988     0.000861770727
       5       -0.000430765964     0.000754133263     0.000220963421
       6       -0.000916833314     0.000480752135     0.000803042299
       7       -0.000055771038    -0.000905958339    -0.000023009960
       8        0.003656986973     0.003198160577     0.000010949316
       9        0.000182063267    -0.000884302350    -0.000190461310
      10        0.000517940099     0.000451274825    -0.000604408839
      11        0.000113757649     0.000021704023    -0.000144235681
      12       -0.000649515709    -0.000336583750    -0.001172431308
      13       -0.000165696149    -0.000110157886    -0.000143441786
      14        0.000362812160    -0.000257413216    -0.000267975200
      15        0.000038308238     0.000180539099     0.000129086452
      16       -0.000047239413    -0.000085612429    -0.000087213764
      17        0.000070627881     0.000008550298     0.000021463176
      18       -0.000076705933    -0.000032827103     0.000043507683
      19        0.000007042426     0.000058797149    -0.000004844511
      20       -0.000027394769    -0.000019395947    -0.000003692820
      21        0.000028877930    -0.000056305355     0.000017899338


*** tstop() called on cx1-27-1-3 at Sat Sep 10 15:18:38 2016
Module time:
	user time   =      44.50 seconds =       0.74 minutes
	system time =       0.83 seconds =       0.01 minutes
	total time  =         12 seconds =       0.20 minutes
Total time:
	user time   =     169.71 seconds =       2.83 minutes
	system time =       3.22 seconds =       0.05 minutes
	total time  =         48 seconds =       0.80 minutes

			-----------------------------------------
			 OPTKING 2.0: for geometry optimizations 
			  - R.A. King,  Bethel University        
			-----------------------------------------

	Previous internal coordinate definitions found.
	---Fragment 1 Geometry and Gradient---
	 H          -5.9824159567        2.4429257859        2.9262424462
	 O          -4.6166785559        1.3877473210        2.5128805930
	 C          -4.7691791481        0.6539876458       -0.0326524493
	 C          -2.5908211607       -1.1060513427       -0.7045617054
	 H          -6.5584078749       -0.2845248416       -0.4026247973
	 H          -4.6974064053        2.3238565363       -1.2309516323
	 C           0.0105083207       -0.1037386248        0.0382931022
	 H          -2.6037429572       -1.3394810943       -2.7445999807
	 H          -2.8973930265       -2.9535264491        0.1350717841
	 C           2.1538455157       -1.8030755410       -0.8896097506
	 H           0.2335137949        1.7871221711       -0.7282084674
	 H           0.1072264537        0.0796078354        2.0721014070
	 C           4.7959963558       -0.9789041553       -0.0584698689
	 H           2.1027731479       -1.9262914540       -2.9421436182
	 H           1.8242756784       -3.7076580121       -0.1956909467
	 C           5.6887450641        1.5217336482       -1.1868906265
	 H           6.1300438142       -2.4478403386       -0.5814756298
	 H           4.8512775221       -0.8590852590        1.9908685742
	 H           5.6375441128        1.4651237614       -3.2368405058
	 H           4.5292419628        3.0941961336       -0.5761232535
	 H           7.6171612258        1.9243949993       -0.6242057436
	            -0.0000241885        0.0002028436        0.0004040761
	            -0.0005212314        0.0037150425       -0.0010286223
	            -0.0013418952       -0.0024902350        0.0011575790
	            -0.0007211792       -0.0038930060        0.0008617707
	            -0.0004307660        0.0007541333        0.0002209634
	            -0.0009168333        0.0004807521        0.0008030423
	            -0.0000557710       -0.0009059583       -0.0000230100
	             0.0036569870        0.0031981606        0.0000109493
	             0.0001820633       -0.0008843024       -0.0001904613
	             0.0005179401        0.0004512748       -0.0006044088
	             0.0001137576        0.0000217040       -0.0001442357
	            -0.0006495157       -0.0003365838       -0.0011724313
	            -0.0001656961       -0.0001101579       -0.0001434418
	             0.0003628122       -0.0002574132       -0.0002679752
	             0.0000383082        0.0001805391        0.0001290865
	            -0.0000472394       -0.0000856124       -0.0000872138
	             0.0000706279        0.0000085503        0.0000214632
	            -0.0000767059       -0.0000328271        0.0000435077
	             0.0000070424        0.0000587971       -0.0000048445
	            -0.0000273948       -0.0000193959       -0.0000036928
	             0.0000288779       -0.0000563054        0.0000178993

	---Fragment 1 Intrafragment Coordinates---
	 - Coordinate -           - BOHR/RAD -       - ANG/DEG -
	 R(1,2)           =         1.774685	       0.939123
	 R(2,3)           =         2.653563	       1.404205
	 R(3,4)           =         2.880007	       1.524034
	 R(3,5)           =         2.054026	       1.086944
	 R(3,6)           =         2.056583	       1.088297
	 R(4,7)           =         2.885027	       1.526690
	 R(4,8)           =         2.053391	       1.086607
	 R(4,9)           =         2.052349	       1.086056
	 R(7,10)          =         2.888364	       1.528456
	 R(7,11)          =         2.052465	       1.086117
	 R(7,12)          =         2.044345	       1.081821
	 R(10,13)         =         2.889812	       1.529223
	 R(10,14)         =         2.056863	       1.088445
	 R(10,15)         =         2.053673	       1.086757
	 R(13,16)         =         2.885052	       1.526704
	 R(13,17)         =         2.052070	       1.085909
	 R(13,18)         =         2.053582	       1.086709
	 R(16,19)         =         2.051370	       1.085538
	 R(16,20)         =         2.046979	       1.083215
	 R(16,21)         =         2.048790	       1.084173
	 B(1,2,3)         =         1.921567	     110.097693
	 B(2,3,4)         =         1.927643	     110.445809
	 B(2,3,5)         =         1.927507	     110.438022
	 B(2,3,6)         =         1.909660	     109.415452
	 B(3,4,7)         =         1.992820	     114.180176
	 B(3,4,8)         =         1.871819	     107.247323
	 B(3,4,9)         =         1.919510	     109.979802
	 B(4,3,5)         =         1.915174	     109.731377
	 B(4,3,6)         =         1.911209	     109.504204
	 B(4,7,10)        =         1.962724	     112.455791
	 B(4,7,11)        =         1.898504	     108.776250
	 B(4,7,12)        =         1.907074	     109.267271
	 B(5,3,6)         =         1.871766	     107.244313
	 B(7,4,8)         =         1.876517	     107.516516
	 B(7,4,9)         =         1.919932	     110.003991
	 B(7,10,13)       =         2.002340	     114.725646
	 B(7,10,14)       =         1.914948	     109.718438
	 B(7,10,15)       =         1.894409	     108.541616
	 B(8,4,9)         =         1.878820	     107.648473
	 B(10,7,11)       =         1.919218	     109.963071
	 B(10,7,12)       =         1.914799	     109.709898
	 B(10,13,16)      =         2.001627	     114.684799
	 B(10,13,17)      =         1.893284	     108.477193
	 B(10,13,18)      =         1.905266	     109.163723
	 B(11,7,12)       =         1.858515	     106.485090
	 B(13,10,14)      =         1.903704	     109.074180
	 B(13,10,15)      =         1.890240	     108.302763
	 B(13,16,19)      =         1.938221	     111.051890
	 B(13,16,20)      =         1.953951	     111.953130
	 B(13,16,21)      =         1.932842	     110.743674
	 B(14,10,15)      =         1.852133	     106.119390
	 B(16,13,17)      =         1.896104	     108.638745
	 B(16,13,18)      =         1.908601	     109.354771
	 B(17,13,18)      =         1.853139	     106.177057
	 B(19,16,20)      =         1.880975	     107.771956
	 B(19,16,21)      =         1.879023	     107.660063
	 B(20,16,21)      =         1.875743	     107.472159
	 D(1,2,3,4)       =        -3.119974	    -178.761354
	 D(1,2,3,5)       =        -0.998293	     -57.197965
	 D(1,2,3,6)       =         1.058151	      60.627608
	 D(2,3,4,7)       =        -0.890063	     -50.996830
	*D(2,3,4,8)       =        -2.967060	    -169.999993
	 D(2,3,4,9)       =         1.277832	      73.214362
	 D(3,4,7,10)      =        -3.046899	    -174.574457
	 D(3,4,7,11)      =        -0.916674	     -52.521543
	 D(3,4,7,12)      =         1.105644	      63.348749
	 D(4,7,10,13)     =        -3.078230	    -176.369586
	 D(4,7,10,14)     =         1.055104	      60.452995
	 D(4,7,10,15)     =        -0.961620	     -55.096774
	 D(5,3,4,7)       =        -3.019025	    -172.977403
	 D(5,3,4,8)       =         1.187163	      68.019434
	 D(5,3,4,9)       =        -0.851131	     -48.766212
	 D(6,3,4,7)       =         1.214071	      69.561151
	 D(6,3,4,8)       =        -0.862926	     -49.442012
	 D(6,3,4,9)       =        -2.901220	    -166.227658
	 D(7,10,13,16)    =        -1.160300	     -66.480317
	 D(7,10,13,17)    =         3.000024	     171.888703
	 D(7,10,13,18)    =         0.987934	      56.604424
	 D(8,4,7,10)      =        -0.972563	     -55.723773
	 D(8,4,7,11)      =         1.157662	      66.329141
	 D(8,4,7,12)      =        -3.103205	    -177.800568
	 D(9,4,7,10)      =         1.068618	      61.227299
	 D(9,4,7,11)      =        -3.084342	    -176.719787
	 D(9,4,7,12)      =        -1.062024	     -60.849495
	 D(10,13,16,19)   =        -0.985983	     -56.492650
	 D(10,13,16,20)   =         1.117411	      64.022929
	 D(10,13,16,21)   =        -3.072747	    -176.055428
	 D(11,7,10,13)    =         1.086514	      62.252681
	 D(11,7,10,14)    =        -1.063337	     -60.924739
	 D(11,7,10,15)    =        -3.080061	    -176.474508
	 D(12,7,10,13)    =        -0.951972	     -54.543950
	 D(12,7,10,14)    =        -3.101823	    -177.721369
	 D(12,7,10,15)    =         1.164638	      66.728862
	 D(14,10,13,16)   =         0.995567	      57.041772
	 D(14,10,13,17)   =        -1.127294	     -64.589208
	 D(14,10,13,18)   =        -3.139385	    -179.873487
	 D(15,10,13,16)   =         3.003995	     172.116216
	 D(15,10,13,17)   =         0.881134	      50.485237
	 D(15,10,13,18)   =        -1.130957	     -64.799043
	 D(17,13,16,19)   =         1.135339	      65.050125
	 D(17,13,16,20)   =        -3.044453	    -174.434297
	 D(17,13,16,21)   =        -0.951425	     -54.512653
	 D(18,13,16,19)   =        -3.132425	    -179.474733
	 D(18,13,16,20)   =        -1.029031	     -58.959155
	 D(18,13,16,21)   =         1.063996	      60.962489

	Current energy   :      -310.3317739691

	Energy change for the previous step:
		Projected    :        -0.0024139266
		Actual       :        -0.0003618831
	Energy ratio indicates iffy step: Trust radius decreased to 1.250e-01.


	Performing BFGS update.
	Previous computed or guess Hessian on step 1.
	Steps to be used in Hessian update: 1
	Taking RFO optimization step.
	Going to follow RFO solution 1.
	Using RFO vector 1.
	Norm of target step-size    0.09843
	Projected energy change by RFO approximation:        -0.0003471640

	Back-transformation to cartesian coordinates...
	Successfully converged to displaced geometry.

	Back-transformation to cartesian coordinates to adjust frozen coordinates...
	Successfully converged to displaced geometry.

	--- Internal Coordinate Step in ANG or DEG, aJ/ANG or AJ/DEG ---
	 ---------------------------------------------------------------------------
	   Coordinate                Previous        Force       Change         New 
	   ----------                --------       ------       ------       ------
	    1 R(1,2)          =      0.939123    -0.001922    -0.000149     0.938974
	    2 R(2,3)          =      1.404205    -0.003731    -0.000314     1.403891
	    3 R(3,4)          =      1.524034    -0.036557    -0.004900     1.519134
	    4 R(3,5)          =      1.086944     0.000075    -0.000041     1.086903
	    5 R(3,6)          =      1.088297     0.000903     0.000128     1.088425
	    6 R(4,7)          =      1.526690     0.006982     0.001086     1.527776
[...]
	 B(17,13,18)      =         1.853212	     106.181208
	 B(19,16,20)      =         1.881151	     107.781987
	 B(19,16,21)      =         1.879037	     107.660873
	 B(20,16,21)      =         1.875463	     107.456118
	 D(1,2,3,4)       =        -3.104363	    -177.866886
	 D(1,2,3,5)       =        -0.989086	     -56.670453
	 D(1,2,3,6)       =         1.080785	      61.924435
	 D(2,3,4,7)       =        -0.876263	     -50.206169
	*D(2,3,4,8)       =        -2.967060	    -169.999993
	 D(2,3,4,9)       =         1.276732	      73.151364
	 D(3,4,7,10)      =        -3.083704	    -176.683251
	 D(3,4,7,11)      =        -0.951511	     -54.517574
	 D(3,4,7,12)      =         1.071346	      61.383601
	 D(4,7,10,13)     =        -3.070410	    -175.921522
	 D(4,7,10,14)     =         1.064137	      60.970541
	 D(4,7,10,15)     =        -0.951314	     -54.506306
	 D(5,3,4,7)       =        -3.001902	    -171.996295
	 D(5,3,4,8)       =         1.190487	      68.209882
	 D(5,3,4,9)       =        -0.848907	     -48.638761
	 D(6,3,4,7)       =         1.226737	      70.286856
	 D(6,3,4,8)       =        -0.864060	     -49.506967
	 D(6,3,4,9)       =        -2.903453	    -166.355610
	 D(7,10,13,16)    =        -1.156687	     -66.273255
	 D(7,10,13,17)    =         3.003636	     172.095644
	 D(7,10,13,18)    =         0.991505	      56.809060
	 D(8,4,7,10)      =        -1.001230	     -57.366229
	 D(8,4,7,11)      =         1.130964	      64.799448
	 D(8,4,7,12)      =        -3.129364	    -179.299378
	 D(9,4,7,10)      =         1.048014	      60.046790
	 D(9,4,7,11)      =        -3.102978	    -177.787533
	 D(9,4,7,12)      =        -1.080121	     -61.886359
	 D(10,13,16,19)   =        -0.985209	     -56.448318
	 D(10,13,16,20)   =         1.118155	      64.065571
	 D(10,13,16,21)   =        -3.071980	    -176.011487
	 D(11,7,10,13)    =         1.093194	      62.635379
	 D(11,7,10,14)    =        -1.055445	     -60.472558
	 D(11,7,10,15)    =        -3.070896	    -175.949405
	 D(12,7,10,13)    =        -0.944417	     -54.111126
	 D(12,7,10,14)    =        -3.093056	    -177.219063
	 D(12,7,10,15)    =         1.174678	      67.304090
	 D(14,10,13,16)   =         0.995740	      57.051722
	 D(14,10,13,17)   =        -1.127123	     -64.579380
	 D(14,10,13,18)   =        -3.139253	    -179.865964
	 D(15,10,13,16)   =         3.005023	     172.175158
	 D(15,10,13,17)   =         0.882160	      50.544057
	 D(15,10,13,18)   =        -1.129970	     -64.742527
	 D(17,13,16,19)   =         1.135745	      65.073396
	 D(17,13,16,20)   =        -3.044076	    -174.412716
	 D(17,13,16,21)   =        -0.951026	     -54.489774
	 D(18,13,16,19)   =        -3.131982	    -179.449322
	 D(18,13,16,20)   =        -1.028617	     -58.935433
	 D(18,13,16,21)   =         1.064433	      60.987509

	Current energy   :      -310.3319044861

	Energy change for the previous step:
		Projected    :        -0.0000024506
		Actual       :        -0.0000000341
	Energy ratio indicates iffy step: Trust radius decreased to 7.812e-03.


	Performing BFGS update.
	Previous computed or guess Hessian on step 1.
	Steps to be used in Hessian update: 4 3
	Taking RFO optimization step.
	Going to follow RFO solution 1.
	Using RFO vector 1.

	Determining step-restricting scale parameter for RS-RFO.
	Maximum step size allowed    0.00781

	 Iter      |step|        alpha        rfo_root  
	------------------------------------------------
	    0     0.01678       1.00000           1
	    1     0.01208    1007.04828           1
	    2     0.00932    2603.04603           1
	    3     0.00810    3903.16854           1
	    4     0.00783    4289.51680           1
	    5     0.00781    4311.43244           1
	------------------------------------------------
	Norm of target step-size    0.00781
	Projected energy change by RFO approximation:        -0.0000013748

	Back-transformation to cartesian coordinates...
	Successfully converged to displaced geometry.

	Back-transformation to cartesian coordinates to adjust frozen coordinates...
	Successfully converged to displaced geometry.

	--- Internal Coordinate Step in ANG or DEG, aJ/ANG or AJ/DEG ---
	 ---------------------------------------------------------------------------
	   Coordinate                Previous        Force       Change         New 
	   ----------                --------       ------       ------       ------
	    1 R(1,2)          =      0.939062    -0.000240    -0.000021     0.939040
	    2 R(2,3)          =      1.403722     0.000418     0.000040     1.403762
	    3 R(3,4)          =      1.519094    -0.000201    -0.000031     1.519062
	    4 R(3,5)          =      1.086822     0.000077     0.000010     1.086832
	    5 R(3,6)          =      1.088436    -0.000014    -0.000004     1.088432
	    6 R(4,7)          =      1.528135     0.000079     0.000015     1.528150
	    7 R(4,8)          =      1.086962    -0.000014    -0.000012     1.086950
	    8 R(4,9)          =      1.085199     0.000070     0.000011     1.085210
	    9 R(7,10)         =      1.527555    -0.000061    -0.000014     1.527541
	   10 R(7,11)         =      1.086038     0.000141     0.000012     1.086050
	   11 R(7,12)         =      1.083167    -0.000367    -0.000052     1.083115
	   12 R(10,13)        =      1.529675    -0.000311    -0.000041     1.529634
	   13 R(10,14)        =      1.088149     0.000046     0.000004     1.088153
	   14 R(10,15)        =      1.086809     0.000098     0.000013     1.086821
	   15 R(13,16)        =      1.526808    -0.000115    -0.000015     1.526793
	   16 R(13,17)        =      1.085877    -0.000001    -0.000002     1.085876
	   17 R(13,18)        =      1.086670    -0.000071    -0.000008     1.086662
	   18 R(16,19)        =      1.085554    -0.000076    -0.000010     1.085543
	   19 R(16,20)        =      1.083197     0.000205     0.000021     1.083219
	   20 R(16,21)        =      1.084145     0.000028     0.000002     1.084147
	   21 B(1,2,3)        =    110.018384    -0.000004    -0.013257   110.005127
	   22 B(2,3,4)        =    109.741596    -0.000001    -0.003731   109.737866
	   23 B(2,3,5)        =    110.675719     0.000003     0.021017   110.696737
	   24 B(2,3,6)        =    109.805093     0.000002     0.005018   109.810110
	   25 B(3,4,7)        =    113.739909     0.000004     0.006438   113.746347
	   26 B(3,4,8)        =    107.424851    -0.000003    -0.017202   107.407649
	   27 B(3,4,9)        =    109.639670    -0.000000     0.005436   109.645106
	   28 B(4,3,5)        =    109.686158    -0.000002    -0.007414   109.678744
	   29 B(4,3,6)        =    109.336763    -0.000002    -0.012869   109.323894
	   30 B(4,7,10)       =    112.333003    -0.000001    -0.002112   112.330891
	   31 B(4,7,11)       =    108.822234    -0.000001    -0.007391   108.814842
	   32 B(4,7,12)       =    109.382373     0.000002     0.010019   109.392392
	   33 B(5,3,6)        =    107.557989     0.000000    -0.002371   107.555618
	   34 B(7,4,8)        =    108.264692    -0.000000    -0.005280   108.259412
	   35 B(7,4,9)        =    109.800241    -0.000001     0.004564   109.804805
	   36 B(7,10,13)      =    114.752323    -0.000008    -0.016615   114.735709
	   37 B(7,10,14)      =    109.526208     0.000002    -0.004212   109.521996
	   38 B(7,10,15)      =    108.609703     0.000003     0.014413   108.624116
	   39 B(8,4,9)        =    107.769826     0.000001     0.005450   107.775277
	   40 B(10,7,11)      =    110.090641     0.000000    -0.003383   110.087258
	   41 B(10,7,12)      =    109.598020    -0.000000     0.003295   109.601315
	   42 B(10,13,16)     =    114.690329    -0.000005    -0.010972   114.679356
	   43 B(10,13,17)     =    108.450824     0.000002     0.008358   108.459183
	   44 B(10,13,18)     =    109.185623     0.000001    -0.004072   109.181550
	   45 B(11,7,12)      =    106.436671    -0.000000    -0.000305   106.436366
	   46 B(13,10,14)     =    109.120923     0.000001    -0.007551   109.113373
	   47 B(13,10,15)     =    108.359888     0.000003     0.013648   108.373535
	   48 B(13,16,19)     =    111.025050    -0.000001    -0.003145   111.021905
	   49 B(13,16,20)     =    111.959191    -0.000001    -0.003156   111.956035
	   50 B(13,16,21)     =    110.769431     0.000001     0.004553   110.773984
	   51 B(14,10,15)     =    106.113981    -0.000001     0.002033   106.116013
	   52 B(16,13,17)     =    108.651172     0.000002     0.009998   108.661170
	   53 B(16,13,18)     =    109.336974     0.000001    -0.005471   109.331503
	   54 B(17,13,18)     =    106.181208    -0.000001     0.003442   106.184650
	   55 B(19,16,20)     =    107.781987     0.000000    -0.001417   107.780570
	   56 B(19,16,21)     =    107.660873     0.000000     0.001275   107.662148
	   57 B(20,16,21)     =    107.456118     0.000000     0.002063   107.458181
	   58 D(1,2,3,4)      =   -177.866886     0.000000     0.024357  -177.842529
	   59 D(1,2,3,5)      =    -56.670453    -0.000000     0.026254   -56.644199
	   60 D(1,2,3,6)      =     61.924435     0.000001     0.039422    61.963857
	   61 D(2,3,4,7)      =    -50.206169    -0.000000    -0.014474   -50.220643
	   62 *D(2,3,4,8)     =   -169.999993    -0.000000    -0.000000  -169.999993
	   63 D(2,3,4,9)      =     73.151364     0.000000     0.000246    73.151611
	   64 D(3,4,7,10)     =   -176.683251     0.000000     0.049231  -176.634019
	   65 D(3,4,7,11)     =    -54.517574     0.000000     0.038379   -54.479195
	   66 D(3,4,7,12)     =     61.383601     0.000000     0.039408    61.423009
	   67 D(4,7,10,13)    =   -175.921522    -0.000001    -0.097814  -176.019336
	   68 D(4,7,10,14)    =     60.970541    -0.000000    -0.072551    60.897991
	   69 D(4,7,10,15)    =    -54.506306    -0.000000    -0.080665   -54.586970
	   70 D(5,3,4,7)      =   -171.996295    -0.000000    -0.033404  -172.029699
	   71 D(5,3,4,8)      =     68.209882    -0.000000    -0.018930    68.190951
	   72 D(5,3,4,9)      =    -48.638761    -0.000000    -0.018684   -48.657445
	   73 D(6,3,4,7)      =     70.286856     0.000000    -0.018630    70.268226
	   74 D(6,3,4,8)      =    -49.506967     0.000000    -0.004156   -49.511123
	   75 D(6,3,4,9)      =   -166.355610     0.000000    -0.003910  -166.359520
	   76 D(7,10,13,16)   =    -66.273255     0.000001     0.136041   -66.137214
	   77 D(7,10,13,17)   =    172.095644     0.000000     0.124309   172.219953
	   78 D(7,10,13,18)   =     56.809060     0.000000     0.117867    56.926926
	   79 D(8,4,7,10)     =    -57.366229     0.000000     0.027963   -57.338267
	   80 D(8,4,7,11)     =     64.799448    -0.000000     0.017110    64.816558
	   81 D(8,4,7,12)     =   -179.299378    -0.000000     0.018139  -179.281239
	   82 D(9,4,7,10)     =     60.046790     0.000000     0.034010    60.080800
	   83 D(9,4,7,11)     =   -177.787533    -0.000000     0.023158  -177.764375
	   84 D(9,4,7,12)     =    -61.886359    -0.000000     0.024187   -61.862172
	   85 D(10,13,16,19)  =    -56.448318    -0.000000    -0.048636   -56.496954
	   86 D(10,13,16,20)  =     64.065571    -0.000000    -0.054788    64.010783
	   87 D(10,13,16,21)  =   -176.011487    -0.000000    -0.051171  -176.062658
	   88 D(11,7,10,13)   =     62.635379    -0.000000    -0.084555    62.550824
	   89 D(11,7,10,14)   =    -60.472558     0.000000    -0.059291   -60.531849
	   90 D(11,7,10,15)   =   -175.949405    -0.000000    -0.067405  -176.016810
	   91 D(12,7,10,13)   =    -54.111126    -0.000000    -0.084153   -54.195279
	   92 D(12,7,10,14)   =   -177.219063     0.000000    -0.058889  -177.277952
	   93 D(12,7,10,15)   =     67.304090    -0.000000    -0.067003    67.237087
	   94 D(14,10,13,16)  =     57.051722     0.000000     0.112697    57.164418
	   95 D(14,10,13,17)  =    -64.579380     0.000000     0.100965   -64.478415
	   96 D(14,10,13,18)  =   -179.865964    -0.000000     0.094522  -179.771442
	   97 D(15,10,13,16)  =    172.175158     0.000000     0.118456   172.293614
	   98 D(15,10,13,17)  =     50.544057     0.000000     0.106724    50.650781
	   99 D(15,10,13,18)  =    -64.742527     0.000000     0.100281   -64.642246
	  100 D(17,13,16,19)  =     65.073396    -0.000000    -0.037810    65.035586
	  101 D(17,13,16,20)  =   -174.412716    -0.000000    -0.043961  -174.456677
	  102 D(17,13,16,21)  =    -54.489774    -0.000000    -0.040344   -54.530118
	  103 D(18,13,16,19)  =   -179.449322     0.000000    -0.031180  -179.480501
	  104 D(18,13,16,20)  =    -58.935433     0.000000    -0.037331   -58.972764
	  105 D(18,13,16,21)  =     60.987509     0.000000    -0.033715    60.953794
	 ---------------------------------------------------------------------------
	Successfully symmetrized geometry.

  ==> Convergence Check <==

  Measures of convergence in internal coordinates in au.
  Criteria marked as inactive (o), active & met (*), and active & unmet ( ).
  ---------------------------------------------------------------------------------------------
   Step     Total Energy     Delta E     MAX Force     RMS Force      MAX Disp      RMS Disp   
  ---------------------------------------------------------------------------------------------
    Convergence Criteria    1.00e-06 *    3.00e-04 *             o    1.20e-03 *             o
  ---------------------------------------------------------------------------------------------
      5    -310.33190449   -3.41e-08 *    9.89e-05 *    2.27e-05 o    2.37e-03      7.62e-04 o  ~
  ---------------------------------------------------------------------------------------------


  **** Optimization is complete! (in 5 steps) ****

  ==> Optimization Summary <==

  Measures of convergence in internal coordinates in au.
  --------------------------------------------------------------------------------------------------------------- ~
   Step         Total Energy             Delta E       MAX Force       RMS Force        MAX Disp        RMS Disp  ~
  --------------------------------------------------------------------------------------------------------------- ~
      1    -310.331412085980   -310.331412085980      0.00671108      0.00134871      0.08829292      0.02279640  ~
      2    -310.331773969068     -0.000361883088      0.00443720      0.00076264      0.03358558      0.00960162  ~
      3    -310.331901147000     -0.000127177932      0.00040116      0.00008650      0.01061911      0.00339494  ~
      4    -310.331904452011     -0.000003305011      0.00011778      0.00002448      0.00710494      0.00240550  ~
      5    -310.331904486143     -0.000000034132      0.00009893      0.00002273      0.00237437      0.00076243  ~
  --------------------------------------------------------------------------------------------------------------- ~

	Writing optimization data to binary file.
	Final energy is   -310.3319044861428
	Final (previous) structure:
	Cartesian Geometry (in Angstrom)
	    H    -3.1226011765   1.2645775471   1.6021023958
	    O    -2.4012859324   0.7195182970   1.3482295742
	    C    -2.5243448217   0.3579329693  -0.0025283160
	    C    -1.3833017431  -0.5660131402  -0.3923865690
	    H    -3.4746342143  -0.1379790933  -0.1819822456
	    H    -2.4959325982   1.2490258183  -0.6268999412
	    C    -0.0036395846  -0.0395389019   0.0007466949
	    H    -1.4099130664  -0.6779718105  -1.4732399172
	    H    -1.5414436012  -1.5460078915   0.0460863249
	    C     1.1238871294  -0.9526189065  -0.4771584849
	    H     0.1222463707   0.9566369133  -0.4130953908
	    H     0.0469700765   0.0672260600   1.0774505960
	    C     2.5240072046  -0.5295760415  -0.0292702994
	    H     1.1020848771  -1.0196624599  -1.5630212600
	    H     0.9358228879  -1.9577447493  -0.1090459931
	    C     3.0133815920   0.7880767925  -0.6254634586
	    H     3.2234819737  -1.3145591784  -0.3006856955
	    H     2.5476163079  -0.4645967066   1.0551984339
	    H     2.9917897187   0.7565172193  -1.7103435417
	    H     2.4067003617   1.6269431941  -0.3067823750
	    H     4.0343052483   0.9914214644  -0.3225829810
	Saving final (previous) structure.
			--------------------------
			 OPTKING Finished Execution 
			--------------------------

    Final optimized geometry and variables:
    Molecular point group: c1
    Full point group: C1

    Geometry (in Angstrom), charge = 0, multiplicity = 1:

    H           -3.122601176520     1.264577547123     1.602102395796
    O           -2.401285932399     0.719518296982     1.348229574207
    C           -2.524344821681     0.357932969335    -0.002528316045
    C           -1.383301743091    -0.566013140169    -0.392386569011
    H           -3.474634214316    -0.137979093340    -0.181982245591
    H           -2.495932598248     1.249025818250    -0.626899941201
    C           -0.003639584647    -0.039538901858     0.000746694876
    H           -1.409913066394    -0.677971810452    -1.473239917166
    H           -1.541443601190    -1.546007891549     0.046086324871
    C            1.123887129355    -0.952618906538    -0.477158484936
    H            0.122246370717     0.956636913349    -0.413095390846
    H            0.046970076542     0.067226060013     1.077450596039
    C            2.524007204636    -0.529576041501    -0.029270299375
    H            1.102084877119    -1.019662459925    -1.563021259962
    H            0.935822887865    -1.957744749251    -0.109045993119
    C            3.013381591996     0.788076792487    -0.625463458631
    H            3.223481973713    -1.314559178375    -0.300685695532
    H            2.547616307900    -0.464596706575     1.055198433872
    H            2.991789718740     0.756517219293    -1.710343541707
    H            2.406700361712     1.626943194116    -0.306782375039
    H            4.034305248286     0.991421464410    -0.322582981020

	Cleaning optimization helper files.


Properties will be evaluated at   0.000000,   0.000000,   0.000000 Bohr

Properties computed using the  density matrix

  Nuclear Dipole Moment: (a.u.)
     X:     5.0194      Y:    -0.1898      Z:    -3.0186

  Electronic Dipole Moment: (a.u.)
     X:    -5.5024      Y:     0.3640      Z:     2.7169

  Dipole Moment: (a.u.)
     X:    -0.4830      Y:     0.1742      Z:    -0.3017     Total:     0.5956

  Dipole Moment: (Debye)
     X:    -1.2277      Y:     0.4427      Z:    -0.7669     Total:     1.5137

  Quadrupole Moment: (Debye Ang)
    XX:   -40.6638     YY:   -45.8355     ZZ:   -47.8937
    XY:    -3.2312     XZ:     0.1349     YZ:     0.6860

  Traceless Quadrupole Moment: (Debye Ang)
    XX:     4.1339     YY:    -1.0379     ZZ:    -3.0960
    XY:    -3.2312     XZ:     0.1349     YZ:     0.6860

  Mulliken Charges: (a.u.)
   Center  Symbol    Alpha    Beta     Spin     Total
       1     H     0.39612  0.39612  0.00000  0.20777
       2     O     4.19724  4.19724  0.00000 -0.39448
       3     C     2.97415  2.97415  0.00000  0.05171
       4     C     3.09202  3.09202  0.00000 -0.18405
       5     H     0.46554  0.46554  0.00000  0.06891
       6     H     0.47348  0.47348  0.00000  0.05303
       7     C     3.09010  3.09010  0.00000 -0.18020
       8     H     0.45586  0.45586  0.00000  0.08828
       9     H     0.45241  0.45241  0.00000  0.09517
      10     C     3.09477  3.09477  0.00000 -0.18954
      11     H     0.45694  0.45694  0.00000  0.08612
      12     H     0.44237  0.44237  0.00000  0.11527
      13     C     3.08935  3.08935  0.00000 -0.17871
      14     H     0.45625  0.45625  0.00000  0.08750
      15     H     0.45058  0.45058  0.00000  0.09884
      16     C     3.15260  3.15260  0.00000 -0.30519
      17     H     0.44975  0.44975  0.00000  0.10049
      18     H     0.45435  0.45435  0.00000  0.09131
      19     H     0.45609  0.45609  0.00000  0.08782
      20     H     0.45293  0.45293  0.00000  0.09415
      21     H     0.44709  0.44709  0.00000  0.10581

   Total alpha = 29.00000, Total beta = 29.00000, Total charge =  0.00000


*** Psi4 exiting successfully. Buy a developer a beer!
