    -----------------------------------------------------------------------
          Psi4: An Open-Source Ab Initio Electronic Structure Package
                              Psi4 1.0.54 Driver

                          Git: Rev {master} 8d4cec3 dirty

    J. M. Turney, A. C. Simmonett, R. M. Parrish, E. G. Hohenstein,
    F. A. Evangelista, J. T. Fermann, B. J. Mintz, L. A. Burns, J. J. Wilke,
    M. L. Abrams, N. J. Russ, M. L. Leininger, C. L. Janssen, E. T. Seidl,
    W. D. Allen, H. F. Schaefer, R. A. King, E. F. Valeev, C. D. Sherrill,
    and T. D. Crawford, WIREs Comput. Mol. Sci. 2, 556-565 (2012)
    (doi: 10.1002/wcms.93)

                         Additional Contributions by
    A. E. DePrince, U. Bozkaya, A. Yu. Sokolov, D. G. A. Smith, R. Di Remigio,
    R. M. Richard, J. F. Gonthier, H. R. McAlexander, M. Saitow, and
    B. P. Pritchard
    -----------------------------------------------------------------------


    Psi4 started on: Sat Sep 10 15:27:32 2016

    Process ID:  36306
    PSI4DATADIR: /export131/home/mjharvey/miniconda3/share/psi4
    Memory level set to 256.000 MB

  ==> Input File <==

--------------------------------------------------------------------------
set {
	reference rhf
	basis cc-pvtz
}


set_num_threads( 4 )
memory 2 gb

molecule MOL {
0 1

H	 -0.000342	 -0.223902	 -3.352295
C	 -0.027146	 0.371068	 -2.446756
C	 0.024493	 -0.518541	 -1.216015
H	 -0.932586	 0.964979	 -2.449855
H	 0.819708	 1.049865	 -2.473332
N	 -0.042516	 0.263377	 0.000000
H	 -0.822211	 -1.197105	 -1.225584
H	 0.921114	 -1.142847	 -1.255206
C	 0.024493	 -0.518541	 1.216015
H	 0.682568	 0.950412	 0.000000
C	 -1.094508	 -0.145063	 2.173692
H	 -0.065609	 -1.565845	 0.946785
H	 0.987756	 -0.411420	 1.721853
H	 -2.060367	 -0.288907	 1.705732
H	 -1.050805	 -0.751558	 3.070889
H	 -1.019098	 0.895155	 2.475179

	symmetry c1
}
set optking {
	frozen_dihedral = ("
		12 9 6 3
	")
}

ee,wfn = optimize('scf', return_wfn=True)
oeprop( wfn, 'DIPOLE', 'QUADRUPOLE', 'MULLIKEN_CHARGES')
f=open( 'psi4out.xyz', 'w' )
f.write( "16  " )
f.write( str(ee) + "\n" )
f.write( MOL.save_string_xyz() )
f.close()
--------------------------------------------------------------------------

  Memory set to   2.000 GiB by Python script.
gradient() will perform analytic gradient computation.

*** tstart() called on cx1-27-1-1
*** at Sat Sep 10 15:27:33 2016


         ---------------------------------------------------------
                                   SCF
            by Justin Turney, Rob Parrish, and Andy Simmonett
                              RHF Reference
                        4 Threads,   2000 MiB Core
         ---------------------------------------------------------

  ==> Geometry <==

    Molecular point group: c1
    Full point group: C1

    Geometry (in Angstrom), charge = 0, multiplicity = 1:

       Center              X                  Y                   Z               Mass       
    ------------   -----------------  -----------------  -----------------  -----------------
           H          0.218939759538    -0.117463798432    -3.295937216881     1.007825032070
           C          0.192135759538     0.477506201568    -2.390398216881    12.000000000000
           C          0.243774759538    -0.412102798432    -1.159657216881    12.000000000000
           H         -0.713304240462     1.071417201568    -2.393497216881     1.007825032070
           H          1.038989759538     1.156303201568    -2.416974216881     1.007825032070
           N          0.176765759538     0.369815201568     0.056357783119    14.003074004780
           H         -0.602929240462    -1.090666798432    -1.169226216881     1.007825032070
           H          1.140395759538    -1.036408798432    -1.198848216881     1.007825032070
           C          0.243774759538    -0.412102798432     1.272372783119    12.000000000000
           H          0.901849759538     1.056850201568     0.056357783119     1.007825032070
           C         -0.875226240462    -0.038624798432     2.230049783119    12.000000000000
           H          0.153672759538    -1.459406798432     1.003142783119     1.007825032070
           H          1.207037759538    -0.304981798432     1.778210783119     1.007825032070
           H         -1.841085240462    -0.182468798432     1.762089783119     1.007825032070
           H         -0.831523240462    -0.645119798432     3.127246783119     1.007825032070
           H         -0.799816240462     1.001593201568     2.531536783119     1.007825032070

  Running in c1 symmetry.

  Rotational constants: A =      0.52921  B =      0.07202  C =      0.07010 [cm^-1]
  Rotational constants: A =  15865.17572  B =   2158.97477  C =   2101.55144 [MHz]
  Nuclear repulsion =  189.950863326550234

  Charge       = 0
  Multiplicity = 1
  Electrons    = 42
  Nalpha       = 21
  Nbeta        = 21

  ==> Algorithm <==

  SCF Algorithm Type is DF.
  DIIS enabled.
  MOM disabled.
  Fractional occupation disabled.
  Guess Type is SAD.
  Energy threshold   = 1.00e-08
  Density threshold  = 1.00e-08
  Integral threshold = 0.00e+00

  ==> Primary Basis <==

  Basis Set: CC-PVTZ
    Number of shells: 116
    Number of basis function: 304
    Number of Cartesian functions: 340
    Spherical Harmonics?: true
    Max angular momentum: 3

  ==> Pre-Iterations <==

   -------------------------------------------------------
    Irrep   Nso     Nmo     Nalpha   Nbeta   Ndocc  Nsocc
   -------------------------------------------------------
     A        304     304       0       0       0       0
   -------------------------------------------------------
    Total     304     304      21      21      21       0
   -------------------------------------------------------

  ==> Integral Setup <==

  ==> DFJK: Density-Fitted J/K Matrices <==

    J tasked:                  Yes
    K tasked:                  Yes
    wK tasked:                  No
    OpenMP threads:              4
    Integrals threads:           4
    Memory (MB):              1430
    Algorithm:                Core
    Integral Cache:           NONE
    Schwarz Cutoff:          1E-12
    Fitting Condition:       1E-12

   => Auxiliary Basis Set <=

  Basis Set: 
    Number of shells: 235
    Number of basis function: 725
    Number of Cartesian functions: 865
    Spherical Harmonics?: true
    Max angular momentum: 4

  Minimum eigenvalue in the overlap matrix is 6.6154864977E-04.
  Using Symmetric Orthogonalization.
  SCF Guess: Superposition of Atomic Densities via on-the-fly atomic UHF.

  ==> Iterations <==

                           Total Energy        Delta E     RMS |[F,P]|

   @DF-RHF iter   0:  -214.12138479814917   -2.14121e+02   1.39666e-02 
   @DF-RHF iter   1:  -212.22808333192847    1.89330e+00   1.62596e-03 
   @DF-RHF iter   2:  -212.35949214160826   -1.31409e-01   7.75528e-04 DIIS
   @DF-RHF iter   3:  -212.38579438057394   -2.63022e-02   2.37564e-04 DIIS
   @DF-RHF iter   4:  -212.38971613763943   -3.92176e-03   4.11008e-05 DIIS
   @DF-RHF iter   5:  -212.38986474889327   -1.48611e-04   1.36246e-05 DIIS
   @DF-RHF iter   6:  -212.38987966447303   -1.49156e-05   3.05261e-06 DIIS
   @DF-RHF iter   7:  -212.38988072702011   -1.06255e-06   7.66374e-07 DIIS
   @DF-RHF iter   8:  -212.38988079227238   -6.52523e-08   2.66415e-07 DIIS
   @DF-RHF iter   9:  -212.38988079925264   -6.98026e-09   8.21244e-08 DIIS
   @DF-RHF iter  10:  -212.38988080007664   -8.24002e-10   2.07756e-08 DIIS
   @DF-RHF iter  11:  -212.38988080014281   -6.61657e-11   5.37761e-09 DIIS

  ==> Post-Iterations <==

    Orbital Energies (a.u.)
    -----------------------

    Doubly Occupied:                                                      

       1A    -15.527048     2A    -11.240152     3A    -11.238469  
       4A    -11.206568     5A    -11.199043     6A     -1.207174  
       7A     -1.026690     8A     -0.963943     9A     -0.835491  
      10A     -0.815549    11A     -0.667223    12A     -0.626282  
      13A     -0.609620    14A     -0.565116    15A     -0.560285  
      16A     -0.525860    17A     -0.505271    18A     -0.490420  
      19A     -0.483037    20A     -0.470492    21A     -0.359446  

    Virtual:                                                              

      22A      0.141180    23A      0.158501    24A      0.167422  
      25A      0.177039    26A      0.208890    27A      0.218589  
      28A      0.221706    29A      0.235864    30A      0.244449  
      31A      0.251976    32A      0.256087    33A      0.314459  
      34A      0.326316    35A      0.353557    36A      0.359464  
      37A      0.376884    38A      0.406288    39A      0.412304  
      40A      0.437586    41A      0.463341    42A      0.491660  
      43A      0.502279    44A      0.513382    45A      0.574709  
      46A      0.583833    47A      0.600408    48A      0.605233  
      49A      0.610321    50A      0.614119    51A      0.645409  
      52A      0.646639    53A      0.658267    54A      0.664079  
      55A      0.666648    56A      0.671240    57A      0.692389  
      58A      0.698843    59A      0.711854    60A      0.743037  
      61A      0.758918    62A      0.765485    63A      0.798792  
      64A      0.803590    65A      0.827224    66A      0.873472  
      67A      0.876732    68A      0.928227    69A      0.945625  
      70A      0.951445    71A      1.002388    72A      1.037857  
      73A      1.065037    74A      1.074317    75A      1.083670  
      76A      1.125537    77A      1.156602    78A      1.168434  
      79A      1.173846    80A      1.196781    81A      1.206090  
      82A      1.233094    83A      1.243576    84A      1.267070  
      85A      1.271467    86A      1.292168    87A      1.301972  
      88A      1.316057    89A      1.323596    90A      1.341755  
      91A      1.357826    92A      1.361404    93A      1.378998  
      94A      1.390941    95A      1.399166    96A      1.416968  
      97A      1.443254    98A      1.481332    99A      1.501352  
     100A      1.510706   101A      1.518953   102A      1.523471  
     103A      1.542510   104A      1.552731   105A      1.592443  
     106A      1.598105   107A      1.613286   108A      1.635501  
     109A      1.662599   110A      1.666684   111A      1.675440  
     112A      1.706258   113A      1.730729   114A      1.766558  
     115A      1.782010   116A      1.798827   117A      1.816855  
     118A      1.843985   119A      1.865564   120A      1.929456  
     121A      1.999104   122A      2.039076   123A      2.122891  
     124A      2.182228   125A      2.236190   126A      2.522223  
     127A      2.527277   128A      2.590281   129A      2.601364  
     130A      2.626887   131A      2.642301   132A      2.677618  
     133A      2.708483   134A      2.745925   135A      2.748600  
     136A      2.778495   137A      2.791562   138A      2.828517  
     139A      2.869945   140A      2.887348   141A      2.925093  
     142A      2.943436   143A      2.966642   144A      3.021704  
     145A      3.053247   146A      3.088878   147A      3.104343  
     148A      3.115476   149A      3.123894   150A      3.129554  
     151A      3.145756   152A      3.153988   153A      3.184197  
     154A      3.210702   155A      3.219905   156A      3.227276  
     157A      3.254069   158A      3.270727   159A      3.309101  
     160A      3.324653   161A      3.331908   162A      3.341715  
     163A      3.368703   164A      3.382736   165A      3.398206  
     166A      3.413931   167A      3.415744   168A      3.431412  
     169A      3.436451   170A      3.445762   171A      3.466830  
     172A      3.486737   173A      3.504282   174A      3.525264  
     175A      3.537976   176A      3.542895   177A      3.572811  
     178A      3.589652   179A      3.610367   180A      3.625252  
     181A      3.644616   182A      3.662561   183A      3.692060  
     184A      3.743043   185A      3.762025   186A      3.771565  
     187A      3.779976   188A      3.796999   189A      3.797715  
     190A      3.815097   191A      3.839315   192A      3.846798  
     193A      3.863827   194A      3.885311   195A      3.901504  
     196A      3.914112   197A      3.934194   198A      3.971624  
     199A      3.984270   200A      4.007537   201A      4.048917  
     202A      4.071348   203A      4.095708   204A      4.117214  
     205A      4.134655   206A      4.145957   207A      4.149744  
     208A      4.174846   209A      4.183214   210A      4.197180  
     211A      4.210588   212A      4.216583   213A      4.250464  
     214A      4.260773   215A      4.283959   216A      4.295165  
     217A      4.334332   218A      4.351349   219A      4.357252  
     220A      4.372006   221A      4.389551   222A      4.394218  
     223A      4.410514   224A      4.417798   225A      4.439524  
     226A      4.449380   227A      4.457876   228A      4.488042  
     229A      4.496892   230A      4.509115   231A      4.513755  
     232A      4.559824   233A      4.571812   234A      4.602276  
     235A      4.631863   236A      4.654832   237A      4.661657  
     238A      4.695044   239A      4.716046   240A      4.738160  
     241A      4.754267   242A      4.759715   243A      4.817233  
     244A      4.848383   245A      4.877229   246A      4.916419  
     247A      5.002051   248A      5.067865   249A      5.100398  
     250A      5.117358   251A      5.144296   252A      5.190094  
     253A      5.202973   254A      5.213011   255A      5.232321  
     256A      5.245704   257A      5.268644   258A      5.279522  
     259A      5.286193   260A      5.297005   261A      5.342401  
     262A      5.368349   263A      5.415802   264A      5.453217  
     265A      5.467696   266A      5.499546   267A      5.506810  
     268A      5.517601   269A      5.572687   270A      5.674682  
     271A      5.694325   272A      5.709379   273A      5.719239  
     274A      5.735091   275A      5.743095   276A      5.749738  
     277A      5.763071   278A      5.787004   279A      5.805672  
     280A      5.858024   281A      5.895046   282A      5.896698  
     283A      5.913446   284A      5.948037   285A      5.958897  
     286A      6.016278   287A      6.145669   288A      6.171307  
     289A      6.246407   290A      6.302445   291A      6.309461  
     292A      6.317050   293A      6.320639   294A      6.347576  
     295A      6.384533   296A      6.453062   297A      6.549589  
     298A      6.592383   299A      7.062294   300A     12.328350  
     301A     13.643484   302A     13.704985   303A     14.248405  
     304A     14.335478  

    Final Occupation by Irrep:
              A 
    DOCC [    21 ]

  Energy converged.

  @DF-RHF Final Energy:  -212.38988080014281

   => Energetics <=

    Nuclear Repulsion Energy =            189.9508633265502340
    One-Electron Energy =                -662.4351317777509394
    Two-Electron Energy =                 260.0943876510580708
    DFT Exchange-Correlation Energy =       0.0000000000000000
    Empirical Dispersion Energy =           0.0000000000000000
    PCM Polarization Energy =               0.0000000000000000
    EFP Energy =                            0.0000000000000000
    Total Energy =                       -212.3898808001426346


  Saving occupied orbitals to File 180.

*** tstop() called on cx1-27-1-1 at Sat Sep 10 15:27:38 2016
Module time:
	user time   =      19.74 seconds =       0.33 minutes
	system time =       0.56 seconds =       0.01 minutes
	total time  =          5 seconds =       0.08 minutes
Total time:
	user time   =      19.74 seconds =       0.33 minutes
	system time =       0.56 seconds =       0.01 minutes
	total time  =          5 seconds =       0.08 minutes


Properties will be evaluated at   0.000000,   0.000000,   0.000000 Bohr

Properties computed using the SCF density matrix

  Nuclear Dipole Moment: (a.u.)
     X:    -0.1203      Y:    -0.5170      Z:    -0.2026

  Electronic Dipole Moment: (a.u.)
     X:     0.5038      Y:     0.3683      Z:     0.1598

  Dipole Moment: (a.u.)
     X:     0.3835      Y:    -0.1487      Z:    -0.0427     Total:     0.4136

  Dipole Moment: (Debye)
     X:     0.9748      Y:    -0.3781      Z:    -0.1086     Total:     1.0512


*** tstart() called on cx1-27-1-1
*** at Sat Sep 10 15:27:39 2016


         ------------------------------------------------------------
                                   SCF GRAD                          
                          Rob Parrish, Justin Turney,                
                       Andy Simmonett, and Alex Sokolov              
         ------------------------------------------------------------

  ==> Geometry <==

    Molecular point group: c1
    Full point group: C1

    Geometry (in Angstrom), charge = 0, multiplicity = 1:

       Center              X                  Y                   Z               Mass       
    ------------   -----------------  -----------------  -----------------  -----------------
           H          0.218939759538    -0.117463798432    -3.295937216881     1.007825032070
           C          0.192135759538     0.477506201568    -2.390398216881    12.000000000000
           C          0.243774759538    -0.412102798432    -1.159657216881    12.000000000000
           H         -0.713304240462     1.071417201568    -2.393497216881     1.007825032070
           H          1.038989759538     1.156303201568    -2.416974216881     1.007825032070
           N          0.176765759538     0.369815201568     0.056357783119    14.003074004780
           H         -0.602929240462    -1.090666798432    -1.169226216881     1.007825032070
           H          1.140395759538    -1.036408798432    -1.198848216881     1.007825032070
           C          0.243774759538    -0.412102798432     1.272372783119    12.000000000000
           H          0.901849759538     1.056850201568     0.056357783119     1.007825032070
           C         -0.875226240462    -0.038624798432     2.230049783119    12.000000000000
           H          0.153672759538    -1.459406798432     1.003142783119     1.007825032070
           H          1.207037759538    -0.304981798432     1.778210783119     1.007825032070
           H         -1.841085240462    -0.182468798432     1.762089783119     1.007825032070
           H         -0.831523240462    -0.645119798432     3.127246783119     1.007825032070
           H         -0.799816240462     1.001593201568     2.531536783119     1.007825032070

  Nuclear repulsion =  189.950863326550234

  ==> Basis Set <==

  Basis Set: CC-PVTZ
    Number of shells: 116
    Number of basis function: 304
    Number of Cartesian functions: 340
    Spherical Harmonics?: true
    Max angular momentum: 3

  ==> DFJKGrad: Density-Fitted SCF Gradients <==

    Gradient:                    1
    J tasked:                  Yes
    K tasked:                  Yes
    wK tasked:                  No
    OpenMP threads:              4
    Integrals threads:           4
    Memory (MB):              1430
    Schwarz Cutoff:          0E+00
    Fitting Condition:       1E-12

   => Auxiliary Basis Set <=

  Basis Set: 
    Number of shells: 235
    Number of basis function: 725
    Number of Cartesian functions: 865
    Spherical Harmonics?: true
    Max angular momentum: 4


  -Total Gradient:
     Atom            X                  Y                   Z
    ------   -----------------  -----------------  -----------------
       1       -0.000003312137     0.000037035948     0.000017138721
       2       -0.000010686720     0.000256653958    -0.000095890428
       3       -0.001193771012    -0.000683666679     0.002489559097
       4        0.000017820283    -0.000055546131    -0.000059990171
       5        0.000004857570    -0.000002578518    -0.000022026859
       6       -0.005727060945    -0.004284442863     0.004101122644
       7       -0.000040036011    -0.000450587102     0.000213949127
       8        0.000115986651    -0.000110621745     0.000603544368
       9        0.001874495293     0.003316254884    -0.004746722456
      10        0.002716434952    -0.000048734999     0.001591245113
      11       -0.000863130004    -0.000284604009    -0.004050382071
      12       -0.000286316584     0.000651209959    -0.003450285367
      13        0.002642397673     0.000200663347     0.003015620163
      14        0.000021190017    -0.000187265786     0.000274745828
      15        0.000681139864     0.001001870013    -0.001316715989
      16        0.000049991110     0.000644359724     0.001435088281


*** tstop() called on cx1-27-1-1 at Sat Sep 10 15:27:44 2016
Module time:
	user time   =      21.69 seconds =       0.36 minutes
	system time =       0.51 seconds =       0.01 minutes
	total time  =          5 seconds =       0.08 minutes
Total time:
	user time   =      41.49 seconds =       0.69 minutes
	system time =       1.07 seconds =       0.02 minutes
	total time  =         11 seconds =       0.18 minutes

			-----------------------------------------
			 OPTKING 2.0: for geometry optimizations 
			  - R.A. King,  Bethel University        
			-----------------------------------------

	Internal coordinates to be generated automatically.
	Detected frag 1 with atoms:  1 2 3 4 5 6 7 8 9 10 11 12 13 14 15 16
	---Fragment 1 Bond Connectivity---
	 1 : 2
	 2 : 1 3 4 5
	 3 : 2 6 7 8
	 4 : 2
	 5 : 2
	 6 : 3 9 10
	 7 : 3
	 8 : 3
	 9 : 6 11 12 13
	 10 : 6
	 11 : 9 14 15 16
	 12 : 9
	 13 : 9
	 14 : 11
	 15 : 11
	 16 : 11

	Assuming in current code that numbering for constraints corresponds to unified fragment.
	Frozen dihedral atom list: 
	    12     9     6     3
	---Fragment 1 Geometry and Gradient---
	 H           0.4137361851       -0.2219744096       -6.2284186911
	 C           0.3630839659        0.9023559477       -4.5171979784
	 C           0.4606675336       -0.7787614276       -2.1914345479
	 H          -1.3479496639        2.0246850850       -4.5230542397
	 H           1.9634061004        2.1850963775       -4.5674193402
	 N           0.3340388752        0.6988494507        0.1065007756
	 H          -1.1393711420       -2.0610615513       -2.2095173373
	 H           2.1550356686       -1.9585287907       -2.2654948048
	 C           0.4606675336       -0.7787614276        2.4044360990
	 H           1.7042490585        1.9971574444        0.1065007756
	 C          -1.6539378988       -0.0729902910        4.2141833528
	 H           0.2903994296       -2.7578791655        1.8956651323
	 H           2.2809707976       -0.5763320746        3.3603313866
	 H          -3.4791468918       -0.3448160568        3.3298671117
	 H          -1.5713511976       -1.2190997419        5.9096399700
	 H          -1.5114336511        1.8927368475        4.7839112154
	            -0.0000033121        0.0000370359        0.0000171387
	            -0.0000106867        0.0002566540       -0.0000958904
	            -0.0011937710       -0.0006836667        0.0024895591
	             0.0000178203       -0.0000555461       -0.0000599902
	             0.0000048576       -0.0000025785       -0.0000220269
	            -0.0057270609       -0.0042844429        0.0041011226
	            -0.0000400360       -0.0004505871        0.0002139491
	             0.0001159867       -0.0001106217        0.0006035444
	             0.0018744953        0.0033162549       -0.0047467225
	             0.0027164350       -0.0000487350        0.0015912451
	            -0.0008631300       -0.0002846040       -0.0040503821
	            -0.0002863166        0.0006512100       -0.0034502854
	             0.0026423977        0.0002006633        0.0030156202
	             0.0000211900       -0.0001872658        0.0002747458
	             0.0006811399        0.0010018700       -0.0013167160
	             0.0000499911        0.0006443597        0.0014350883

	Previous optimization step data not found.  Starting new optimization.

	---Fragment 1 Intrafragment Coordinates---
	 - Coordinate -           - BOHR/RAD -       - ANG/DEG -
	 R(1,2)           =         2.048160	       1.083840
	 R(2,3)           =         2.871385	       1.519472
	 R(2,4)           =         2.046288	       1.082849
	 R(2,5)           =         2.051579	       1.085649
	 R(3,6)           =         2.734936	       1.447266
	 R(3,7)           =         2.050547	       1.085103
	 R(3,8)           =         2.065967	       1.093263
	 R(6,9)           =         2.734936	       1.447266
	 R(6,10)          =         1.887612	       0.998881
	 R(9,11)          =         2.871385	       1.519472
	 R(9,12)          =         2.050548	       1.085103
	 R(9,13)          =         2.065966	       1.093262
	 R(11,14)         =         2.046287	       1.082849
	 R(11,15)         =         2.048160	       1.083840
	 R(11,16)         =         2.051580	       1.085649
	 B(1,2,3)         =         1.933173	     110.762653
	 B(1,2,4)         =         1.895860	     108.624763
	 B(1,2,5)         =         1.879142	     107.666922
	 B(2,3,6)         =         1.941927	     111.264199
	 B(2,3,7)         =         1.909709	     109.418240
	 B(2,3,8)         =         1.910459	     109.461259
	 B(3,2,4)         =         1.930343	     110.600490
	 B(3,2,5)         =         1.938402	     111.062259
	 B(3,6,9)         =         1.995361	     114.325736
	 B(3,6,10)        =         1.915579	     109.754617
	 B(4,2,5)         =         1.885197	     108.013824
	 B(6,3,7)         =         1.885083	     108.007303
	 B(6,3,8)         =         1.956935	     112.124113
	 B(6,9,11)        =         1.941926	     111.264180
	 B(6,9,12)        =         1.885083	     108.007292
	 B(6,9,13)        =         1.956935	     112.124096
	 B(7,3,8)         =         1.857227	     106.411259
	 B(9,6,10)        =         1.915579	     109.754617
	 B(9,11,14)       =         1.930344	     110.600545
	 B(9,11,15)       =         1.933173	     110.762635
	 B(9,11,16)       =         1.938402	     111.062264
	 B(11,9,12)       =         1.909708	     109.418214
	 B(11,9,13)       =         1.910460	     109.461286
	 B(12,9,13)       =         1.857228	     106.411307
	 B(14,11,15)      =         1.895860	     108.624775
	 B(14,11,16)      =         1.885197	     108.013831
	 B(15,11,16)      =         1.879141	     107.666860
	 D(1,2,3,6)       =        -3.117971	    -178.646606
	 D(1,2,3,7)       =        -1.036329	     -59.377272
	 D(1,2,3,8)       =         0.992614	      56.872577
	 D(2,3,6,9)       =        -3.124283	    -179.008252
	 D(2,3,6,10)      =        -0.963362	     -55.196591
	 D(3,6,9,11)      =        -2.270807	    -130.107638
	*D(3,6,9,12)      =        -0.174534	     -10.000042
	 D(3,6,9,13)      =         1.866220	     106.926516
	 D(4,2,3,6)       =        -1.015025	     -58.156665
	 D(4,2,3,7)       =         1.066617	      61.112668
	 D(4,2,3,8)       =         3.095560	     177.362517
	 D(5,2,3,6)       =         1.077963	      61.762739
	 D(5,2,3,7)       =        -3.123580	    -178.967928
	 D(5,2,3,8)       =        -1.094637	     -62.718079
	 D(6,9,11,14)     =         1.015025	      58.156662
	 D(6,9,11,15)     =         3.117972	     178.646642
	 D(6,9,11,16)     =        -1.077964	     -61.762789
	 D(7,3,6,9)       =         1.062628	      60.884102
	 D(7,3,6,10)      =        -3.059636	    -175.304237
	 D(8,3,6,9)       =        -0.978125	     -56.042415
	 D(8,3,6,10)      =         1.182796	      67.769246
	 D(10,6,9,11)     =         1.851458	     106.080701
	 D(10,6,9,12)     =        -2.335455	    -133.811703
	 D(10,6,9,13)     =        -0.294701	     -16.885145
	 D(12,9,11,14)    =        -1.066617	     -61.112629
	 D(12,9,11,15)    =         1.036330	      59.377351
	 D(12,9,11,16)    =         3.123579	     178.967920
	 D(13,9,11,14)    =        -3.095560	    -177.362536
	 D(13,9,11,15)    =        -0.992613	     -56.872556
	 D(13,9,11,16)    =         1.094636	      62.718013

	Current energy   :      -212.3898808001

	Generating empirical Hessian (Schlegel '84) for each fragment.
	Taking RFO optimization step.
	Going to follow RFO solution 1.
	Using RFO vector 1.
	Norm of target step-size    0.17341
	Projected energy change by RFO approximation:        -0.0024992272

	Back-transformation to cartesian coordinates...
	Could not converge backtransformation.
	Using first guess instead.

	Back-transformation to cartesian coordinates to adjust frozen coordinates...
	Successfully converged to displaced geometry.

	--- Internal Coordinate Step in ANG or DEG, aJ/ANG or AJ/DEG ---
	 ---------------------------------------------------------------------------
	   Coordinate                Previous        Force       Change         New 
	   ----------                --------       ------       ------       ------
	    1 R(1,2)          =      1.083840     0.000286     0.023701     1.107541
	    2 R(2,3)          =      1.519472    -0.002207     0.005555     1.525027
	    3 R(2,4)          =      1.082849     0.000372     0.021679     1.104527
	    4 R(2,5)          =      1.085649    -0.000022     0.012928     1.098577
	    5 R(3,6)          =      1.447266     0.017710     0.034609     1.481875
	    6 R(3,7)          =      1.085103    -0.002563     0.013113     1.098216
	    7 R(3,8)          =      1.093263    -0.001126     0.021694     1.114956
	    8 R(6,9)          =      1.447266     0.083393     0.021390     1.468655
	    9 R(6,10)         =      0.998881    -0.015969     0.009060     1.007942
	   10 R(9,11)         =      1.519472     0.015940     0.034928     1.554399
	   11 R(9,12)         =      1.085103    -0.002071     0.012062     1.097165
	   12 R(9,13)         =      1.093262    -0.030839     0.017945     1.111207
	   13 R(11,14)        =      1.082849     0.000929     0.023792     1.106641
	   14 R(11,15)        =      1.083840     0.013373     0.008629     1.092469
	   15 R(11,16)        =      1.085649    -0.008399     0.011620     1.097270
	   16 B(1,2,3)        =    110.762653    -0.000001     0.375080   111.137733
	   17 B(1,2,4)        =    108.624763     0.000003     0.074945   108.699708
	   18 B(1,2,5)        =    107.666922     0.000002     0.193950   107.860872
	   19 B(2,3,6)        =    111.264199    -0.000015     0.271048   111.535247
	   20 B(2,3,7)        =    109.418240    -0.000011    -1.195135   108.223105
	   21 B(2,3,8)        =    109.461259    -0.000028    -0.453115   109.008144
	   22 B(3,2,4)        =    110.600490    -0.000003    -0.286278   110.314212
	   23 B(3,2,5)        =    111.062259    -0.000001    -1.015995   110.046264
	   24 B(3,6,9)        =    114.325736     0.000395     2.132811   116.458548
	   25 B(3,6,10)       =    109.754617    -0.000212     0.303761   110.058378
	   26 B(4,2,5)        =    108.013824     0.000000     0.695155   108.708980
	   27 B(6,3,7)        =    108.007303     0.000003     0.175185   108.182488
	   28 B(6,3,8)        =    112.124113     0.000043     0.417842   112.541956
	   29 B(6,9,11)       =    111.264180     0.000281     1.067840   112.332020
	   30 B(6,9,12)       =    108.007292     0.000139     0.951205   108.958497
	   31 B(6,9,13)       =    112.124096    -0.000226    -1.346197   110.777899
	   32 B(7,3,8)        =    106.411259     0.000009     0.753090   107.164349
	   33 B(9,6,10)       =    109.754617     0.000014     0.248680   110.003297
	   34 B(9,11,14)      =    110.600545    -0.000031    -0.318566   110.281979
	   35 B(9,11,15)      =    110.762635     0.000092     0.474054   111.236688
	   36 B(9,11,16)      =    111.062264    -0.000086     0.225615   111.287879
	   37 B(11,9,12)      =    109.418214    -0.000171     0.694256   110.112470
	   38 B(11,9,13)      =    109.461286    -0.000030    -0.622109   108.839177
	   39 B(12,9,13)      =    106.411307    -0.000006    -0.805918   105.605389
	   40 B(14,11,15)     =    108.624775    -0.000022     0.412421   109.037196
	   41 B(14,11,16)     =    108.013831     0.000011    -0.178509   107.835322
	   42 B(15,11,16)     =    107.666860     0.000036    -0.631978   107.034883
	   43 D(1,2,3,6)      =   -178.646606     0.000003     0.299747  -178.346858
	   44 D(1,2,3,7)      =    -59.377272     0.000000    -0.081721   -59.458993
	   45 D(1,2,3,8)      =     56.872577    -0.000003    -0.098079    56.774498
	   46 D(2,3,6,9)      =   -179.008252    -0.000016    -1.432797  -180.441049
	   47 D(2,3,6,10)     =    -55.196591     0.000017     0.805040   -54.391551
	   48 D(3,6,9,11)     =   -130.107638    -0.000011    -2.180682  -132.288319
	   49 *D(3,6,9,12)    =    -10.000042     0.000000    -0.000000   -10.000042
	   50 D(3,6,9,13)     =    106.926516    -0.000012    -1.168962   105.757554
	   51 D(4,2,3,6)      =    -58.156665     0.000003     0.450938   -57.705727
	   52 D(4,2,3,7)      =     61.112668     0.000000     0.069469    61.182137
	   53 D(4,2,3,8)      =    177.362517    -0.000002     0.053112   177.415629
	   54 D(5,2,3,6)      =     61.762739     0.000003     0.476712    62.239451
	   55 D(5,2,3,7)      =   -178.967928    -0.000000     0.095244  -178.872684
	   56 D(5,2,3,8)      =    -62.718079    -0.000003     0.078886   -62.639193
	   57 D(6,9,11,14)    =     58.156662     0.000022     1.528542    59.685204
	   58 D(6,9,11,15)    =    178.646642     0.000025     2.149068   180.795710
	   59 D(6,9,11,16)    =    -61.762789     0.000036     1.815716   -59.947073
	   60 D(7,3,6,9)      =     60.884102    -0.000011    -0.237211    60.646891
	   61 D(7,3,6,10)     =   -175.304237     0.000021     2.000626  -173.303611
	   62 D(8,3,6,9)      =    -56.042415    -0.000020    -1.516950   -57.559365
	   63 D(8,3,6,10)     =     67.769246     0.000013     0.720887    68.490133
	   64 D(10,6,9,11)    =    106.080701    -0.000016    -4.446094   101.634607
	   65 D(10,6,9,12)    =   -133.811703    -0.000005    -2.265413  -136.077116
	   66 D(10,6,9,13)    =    -16.885145    -0.000017    -3.434375   -20.319519
	   67 D(12,9,11,14)   =    -61.112629    -0.000032    -0.834161   -61.946789
	   68 D(12,9,11,15)   =     59.377351    -0.000030    -0.213635    59.163716
	   69 D(12,9,11,16)   =    178.967920    -0.000018    -0.546986   178.420934
	   70 D(13,9,11,14)   =   -177.362536    -0.000005     0.097972  -177.264564
	   71 D(13,9,11,15)   =    -56.872556    -0.000002     0.718498   -56.154058
	   72 D(13,9,11,16)   =     62.718013     0.000010     0.385146    63.103159
	 ---------------------------------------------------------------------------
	Successfully symmetrized geometry.

  ==> Convergence Check <==

  Measures of convergence in internal coordinates in au.
  Criteria marked as inactive (o), active & met (*), and active & unmet ( ).
  --------------------------------------------------------------------------------------------- ~
   Step     Total Energy     Delta E     MAX Force     RMS Force      MAX Disp      RMS Disp    ~
  --------------------------------------------------------------------------------------------- ~
    Convergence Criteria    1.00e-06 *    3.00e-04 *             o    1.20e-03 *             o  ~
  --------------------------------------------------------------------------------------------- ~
      1    -212.38988080   -2.12e+02      1.01e-02      1.77e-03 o    7.76e-02      2.53e-02 o  ~
  ---------------------------------------------------------------------------------------------

	Writing optimization data to binary file.
	Structure for next step:
	Cartesian Geometry (in Angstrom)
	    H     0.8136088854  -0.1905567392  -3.2744505053
	    C     0.5570394493   0.4195430850  -2.3864203388
	    C     0.5086050339  -0.4373484712  -1.1258263407
	    H    -0.4209651131   0.9028409252  -2.5593683094
	    H     1.3224503826   1.2005942310  -2.2816516436
	    N     0.1274118735   0.3630122232   0.0616364682
	    H    -0.2497116301  -1.2184502634  -1.2704449238
	    H     1.4898803992  -0.9510449990  -0.9979899936
	    C     0.0379040589  -0.3600326981   1.3368395786
	    H     0.7433985762   1.1551177918   0.1569032825
	    C    -1.2726061002  -0.0374575884   2.1079852173
	    H     0.1050186637  -1.4375146203   1.1411391105
	    H     0.9057530612  -0.1198464720   1.9879388554
	    H    -2.1541277114  -0.3142007240   1.4988984153
	    H    -1.3142021117  -0.5733199447   3.0590949672
	    H    -1.3460055648   1.0328024892   2.3385426901
			--------------------------
			 OPTKING Finished Execution 
			--------------------------

    Structure for next step:
    Molecular point group: c1
    Full point group: C1

    Geometry (in Angstrom), charge = 0, multiplicity = 1:

    H            0.818401058071    -0.184839636935    -3.272412904675
    C            0.561831622059     0.425260187254    -2.384382738101
    C            0.513397206648    -0.431631369012    -1.123788740009
    H           -0.416172940347     0.908558027445    -2.557330708690
    H            1.327242555292     1.206311333193    -2.279614042943
    N            0.132204046239     0.368729325470     0.063674068883
    H           -0.244919457376    -1.212733161207    -1.268407323178
    H            1.494672571901    -0.945327896812    -0.995952392930
    C            0.042696231622    -0.354315595915     1.338877179225
    H            0.748190748900     1.160834894051     0.158940883214
    C           -1.267813927439    -0.031740486167     2.110022818002
    H            0.109810836390    -1.431797518057     1.143176711124
    H            0.910545233890    -0.114129369795     1.989976456063
    H           -2.149335538686    -0.308483621824     1.500936015963
    H           -1.309409938978    -0.567602842459     3.061132567903
    H           -1.341213392117     1.038519591464     2.340580290784

gradient() will perform analytic gradient computation.

*** tstart() called on cx1-27-1-1
*** at Sat Sep 10 15:27:46 2016


         ---------------------------------------------------------
                                   SCF
            by Justin Turney, Rob Parrish, and Andy Simmonett
                              RHF Reference
                        4 Threads,   2000 MiB Core
         ---------------------------------------------------------

  ==> Geometry <==

    Molecular point group: c1
    Full point group: C1

    Geometry (in Angstrom), charge = 0, multiplicity = 1:

       Center              X                  Y                   Z               Mass       
    ------------   -----------------  -----------------  -----------------  -----------------
           H          0.818401058071    -0.184839636935    -3.272412904675     1.007825032070
           C          0.561831622059     0.425260187254    -2.384382738101    12.000000000000
           C          0.513397206648    -0.431631369012    -1.123788740009    12.000000000000
           H         -0.416172940347     0.908558027445    -2.557330708690     1.007825032070
           H          1.327242555292     1.206311333193    -2.279614042943     1.007825032070
           N          0.132204046239     0.368729325470     0.063674068883    14.003074004780
           H         -0.244919457376    -1.212733161207    -1.268407323178     1.007825032070
           H          1.494672571901    -0.945327896812    -0.995952392930     1.007825032070
           C          0.042696231622    -0.354315595915     1.338877179225    12.000000000000
           H          0.748190748900     1.160834894051     0.158940883214     1.007825032070
           C         -1.267813927439    -0.031740486167     2.110022818002    12.000000000000
           H          0.109810836390    -1.431797518057     1.143176711124     1.007825032070
           H          0.910545233890    -0.114129369795     1.989976456063     1.007825032070
           H         -2.149335538686    -0.308483621824     1.500936015963     1.007825032070
           H         -1.309409938978    -0.567602842459     3.061132567903     1.007825032070
           H         -1.341213392117     1.038519591464     2.340580290784     1.007825032070

  Running in c1 symmetry.

  Rotational constants: A =      0.51618  B =      0.06891  C =      0.06686 [cm^-1]
  Rotational constants: A =  15474.61666  B =   2065.75568  C =   2004.33951 [MHz]
  Nuclear repulsion =  186.456550066954122

  Charge       = 0
  Multiplicity = 1
  Electrons    = 42
  Nalpha       = 21
  Nbeta        = 21

  ==> Algorithm <==

  SCF Algorithm Type is DF.
  DIIS enabled.
  MOM disabled.
  Fractional occupation disabled.
  Guess Type is READ.
  Energy threshold   = 1.00e-08
  Density threshold  = 1.00e-08
  Integral threshold = 0.00e+00

  ==> Primary Basis <==

  Basis Set: CC-PVTZ
    Number of shells: 116
    Number of basis function: 304
    Number of Cartesian functions: 340
    Spherical Harmonics?: true
    Max angular momentum: 3

  ==> Pre-Iterations <==

   -------------------------------------------------------
    Irrep   Nso     Nmo     Nalpha   Nbeta   Ndocc  Nsocc
   -------------------------------------------------------
     A        304     304       0       0       0       0
   -------------------------------------------------------
    Total     304     304      21      21      21       0
   -------------------------------------------------------

  ==> Integral Setup <==

  ==> DFJK: Density-Fitted J/K Matrices <==

    J tasked:                  Yes
    K tasked:                  Yes
    wK tasked:                  No
    OpenMP threads:              4
    Integrals threads:           4
    Memory (MB):              1430
    Algorithm:                Core
    Integral Cache:           NONE
    Schwarz Cutoff:          1E-12
    Fitting Condition:       1E-12

   => Auxiliary Basis Set <=

  Basis Set: 
    Number of shells: 235
    Number of basis function: 725
    Number of Cartesian functions: 865
    Spherical Harmonics?: true
    Max angular momentum: 4

  Minimum eigenvalue in the overlap matrix is 7.5137581165E-04.
  Using Symmetric Orthogonalization.
  SCF Guess: Reading in previously saved MOs, projecting if necessary.

  Using orbitals from previous SCF, no projection.
  Recomputing DOCC and SOCC from number of alpha and beta electrons from previous calculation.
              A 
    DOCC [    21 ]

  ==> Iterations <==

                           Total Energy        Delta E     RMS |[F,P]|

   @DF-RHF iter   0:  -212.13283447731575   -2.12133e+02   1.39009e-03 
   @DF-RHF iter   1:  -212.37615094765087   -2.43316e-01   3.78382e-04 
   @DF-RHF iter   2:  -212.38431744158905   -8.16649e-03   1.90312e-04 DIIS
   @DF-RHF iter   3:  -212.38600654388014   -1.68910e-03   5.24611e-05 DIIS
   @DF-RHF iter   4:  -212.38626453903660   -2.57995e-04   1.32947e-05 DIIS
   @DF-RHF iter   5:  -212.38627724298348   -1.27039e-05   3.75571e-06 DIIS
   @DF-RHF iter   6:  -212.38627895572412   -1.71274e-06   1.02323e-06 DIIS
   @DF-RHF iter   7:  -212.38627912400139   -1.68277e-07   2.96873e-07 DIIS
   @DF-RHF iter   8:  -212.38627913786300   -1.38616e-08   8.11824e-08 DIIS
   @DF-RHF iter   9:  -212.38627913877301   -9.10006e-10   2.24885e-08 DIIS
   @DF-RHF iter  10:  -212.38627913882650   -5.34897e-11   5.97529e-09 DIIS

  ==> Post-Iterations <==

    Orbital Energies (a.u.)
    -----------------------

    Doubly Occupied:                                                      

       1A    -15.532286     2A    -11.249298     3A    -11.248728  
       4A    -11.215683     5A    -11.209100     6A     -1.189667  
       7A     -1.018287     8A     -0.957430     9A     -0.829810  
      10A     -0.809047    11A     -0.655557    12A     -0.617681  
      13A     -0.602623    14A     -0.559837    15A     -0.556069  
      16A     -0.520073    17A     -0.500975    18A     -0.486223  
      19A     -0.481807    20A     -0.470943    21A     -0.357653  

    Virtual:                                                              

      22A      0.140326    23A      0.156856    24A      0.168067  
      25A      0.175557    26A      0.208131    27A      0.215791  
      28A      0.220563    29A      0.232620    30A      0.241859  
      31A      0.248590    32A      0.252585    33A      0.311877  
      34A      0.322497    35A      0.350139    36A      0.355798  
      37A      0.378427    38A      0.404561    39A      0.411215  
      40A      0.435450    41A      0.460685    42A      0.480938  
      43A      0.493199    44A      0.510539    45A      0.569339  
      46A      0.582880    47A      0.592370    48A      0.601715  
      49A      0.605363    50A      0.611511    51A      0.640173  
      52A      0.641666    53A      0.643900    54A      0.654020  
      55A      0.658042    56A      0.663726    57A      0.683311  
      58A      0.688235    59A      0.699598    60A      0.737068  
      61A      0.751113    62A      0.757972    63A      0.789412  
      64A      0.797536    65A      0.814059    66A      0.866001  
      67A      0.869728    68A      0.918685    69A      0.940083  
      70A      0.956069    71A      0.989749    72A      1.032299  
      73A      1.053949    74A      1.064030    75A      1.070267  
      76A      1.117894    77A      1.143545    78A      1.158169  
      79A      1.172495    80A      1.186067    81A      1.199702  
      82A      1.231310    83A      1.234731    84A      1.255100  
      85A      1.264339    86A      1.282627    87A      1.290666  
      88A      1.312275    89A      1.318562    90A      1.329675  
      91A      1.351353    92A      1.358607    93A      1.365248  
      94A      1.378769    95A      1.383930    96A      1.407083  
      97A      1.434682    98A      1.464202    99A      1.485756  
     100A      1.500036   101A      1.511124   102A      1.518089  
     103A      1.522104   104A      1.533041   105A      1.581144  
     106A      1.589265   107A      1.602717   108A      1.619328  
     109A      1.641947   110A      1.656114   111A      1.663787  
     112A      1.692101   113A      1.712203   114A      1.744115  
     115A      1.755811   116A      1.773756   117A      1.794699  
     118A      1.817129   119A      1.845526   120A      1.908841  
     121A      1.989812   122A      2.029301   123A      2.112197  
     124A      2.171414   125A      2.217610   126A      2.529041  
     127A      2.535857   128A      2.580885   129A      2.605876  
     130A      2.625738   131A      2.641585   132A      2.670152  
     133A      2.704820   134A      2.739639   135A      2.752141  
     136A      2.769151   137A      2.790005   138A      2.821978  
     139A      2.863677   140A      2.868312   141A      2.901983  
     142A      2.917104   143A      2.949855   144A      3.004360  
     145A      3.030956   146A      3.069613   147A      3.083518  
     148A      3.099625   149A      3.105826   150A      3.118567  
     151A      3.127608   152A      3.146387   153A      3.171094  
     154A      3.199019   155A      3.209888   156A      3.221192  
     157A      3.244558   158A      3.264306   159A      3.294329  
     160A      3.314421   161A      3.317973   162A      3.329482  
     163A      3.353512   164A      3.371662   165A      3.390472  
     166A      3.400102   167A      3.403333   168A      3.412487  
     169A      3.421035   170A      3.430057   171A      3.451220  
     172A      3.463862   173A      3.490893   174A      3.505946  
     175A      3.514806   176A      3.531944   177A      3.552679  
     178A      3.573223   179A      3.593909   180A      3.598187  
     181A      3.619930   182A      3.644921   183A      3.670003  
     184A      3.717198   185A      3.737915   186A      3.748499  
     187A      3.758492   188A      3.763571   189A      3.771712  
     190A      3.794036   191A      3.796106   192A      3.817768  
     193A      3.831650   194A      3.847775   195A      3.865066  
     196A      3.879533   197A      3.909397   198A      3.946589  
     199A      3.956293   200A      3.973665   201A      4.009138  
     202A      4.048242   203A      4.067166   204A      4.104241  
     205A      4.109995   206A      4.114024   207A      4.125107  
     208A      4.139418   209A      4.159140   210A      4.176438  
     211A      4.186508   212A      4.192494   213A      4.222954  
     214A      4.242303   215A      4.250942   216A      4.259144  
     217A      4.308896   218A      4.311881   219A      4.319613  
     220A      4.341911   221A      4.353932   222A      4.364533  
     223A      4.373619   224A      4.393681   225A      4.396871  
     226A      4.409225   227A      4.427157   228A      4.447817  
     229A      4.457990   230A      4.471217   231A      4.491128  
     232A      4.524402   233A      4.529635   234A      4.566856  
     235A      4.589005   236A      4.613861   237A      4.619643  
     238A      4.646720   239A      4.670468   240A      4.691684  
     241A      4.706836   242A      4.717758   243A      4.759704  
     244A      4.795408   245A      4.812194   246A      4.860791  
     247A      4.935383   248A      5.006586   249A      5.047830  
     250A      5.060387   251A      5.078541   252A      5.136117  
     253A      5.150680   254A      5.165367   255A      5.177888  
     256A      5.190192   257A      5.210817   258A      5.217056  
     259A      5.228106   260A      5.246483   261A      5.298298  
     262A      5.327281   263A      5.362031   264A      5.383744  
     265A      5.418586   266A      5.428737   267A      5.443227  
     268A      5.467484   269A      5.497599   270A      5.602218  
     271A      5.623484   272A      5.636153   273A      5.647029  
     274A      5.659377   275A      5.673100   276A      5.685550  
     277A      5.695545   278A      5.721076   279A      5.754455  
     280A      5.795030   281A      5.812696   282A      5.829304  
     283A      5.853060   284A      5.892295   285A      5.907354  
     286A      5.958973   287A      6.102761   288A      6.137525  
     289A      6.197851   290A      6.246458   291A      6.268706  
     292A      6.272753   293A      6.281937   294A      6.304390  
     295A      6.337811   296A      6.384402   297A      6.473024  
     298A      6.541668   299A      6.975241   300A     12.008318  
     301A     13.157368   302A     13.221518   303A     13.772162  
     304A     13.954114  

    Final Occupation by Irrep:
              A 
    DOCC [    21 ]

  Energy converged.

  @DF-RHF Final Energy:  -212.38627913882650

   => Energetics <=

    Nuclear Repulsion Energy =            186.4565500669541223
    One-Electron Energy =                -655.5481024465747169
    Two-Electron Energy =                 256.7052732407939857
    DFT Exchange-Correlation Energy =       0.0000000000000000
    Empirical Dispersion Energy =           0.0000000000000000
    PCM Polarization Energy =               0.0000000000000000
    EFP Energy =                            0.0000000000000000
    Total Energy =                       -212.3862791388265805


  Saving occupied orbitals to File 180.

*** tstop() called on cx1-27-1-1 at Sat Sep 10 15:27:51 2016
Module time:
	user time   =      18.83 seconds =       0.31 minutes
	system time =       0.43 seconds =       0.01 minutes
	total time  =          5 seconds =       0.08 minutes
Total time:
	user time   =      62.60 seconds =       1.04 minutes
	system time =       1.57 seconds =       0.03 minutes
	total time  =         18 seconds =       0.30 minutes


Properties will be evaluated at   0.000000,   0.000000,   0.000000 Bohr

Properties computed using the SCF density matrix

  Nuclear Dipole Moment: (a.u.)
     X:    -0.0493      Y:    -0.4236      Z:    -0.1680

  Electronic Dipole Moment: (a.u.)
     X:     0.4331      Y:     0.3217      Z:     0.1962

  Dipole Moment: (a.u.)
     X:     0.3837      Y:    -0.1018      Z:     0.0282     Total:     0.3980

  Dipole Moment: (Debye)
     X:     0.9754      Y:    -0.2589      Z:     0.0717     Total:     1.0117


*** tstart() called on cx1-27-1-1
*** at Sat Sep 10 15:27:51 2016


         ------------------------------------------------------------
                                   SCF GRAD                          
                          Rob Parrish, Justin Turney,                
                       Andy Simmonett, and Alex Sokolov              
         ------------------------------------------------------------

  ==> Geometry <==

    Molecular point group: c1
    Full point group: C1

    Geometry (in Angstrom), charge = 0, multiplicity = 1:

       Center              X                  Y                   Z               Mass       
    ------------   -----------------  -----------------  -----------------  -----------------
           H          0.818401058071    -0.184839636935    -3.272412904675     1.007825032070
           C          0.561831622059     0.425260187254    -2.384382738101    12.000000000000
           C          0.513397206648    -0.431631369012    -1.123788740009    12.000000000000
           H         -0.416172940347     0.908558027445    -2.557330708690     1.007825032070
           H          1.327242555292     1.206311333193    -2.279614042943     1.007825032070
           N          0.132204046239     0.368729325470     0.063674068883    14.003074004780
           H         -0.244919457376    -1.212733161207    -1.268407323178     1.007825032070
           H          1.494672571901    -0.945327896812    -0.995952392930     1.007825032070
           C          0.042696231622    -0.354315595915     1.338877179225    12.000000000000
           H          0.748190748900     1.160834894051     0.158940883214     1.007825032070
           C         -1.267813927439    -0.031740486167     2.110022818002    12.000000000000
           H          0.109810836390    -1.431797518057     1.143176711124     1.007825032070
           H          0.910545233890    -0.114129369795     1.989976456063     1.007825032070
           H         -2.149335538686    -0.308483621824     1.500936015963     1.007825032070
           H         -1.309409938978    -0.567602842459     3.061132567903     1.007825032070
           H         -1.341213392117     1.038519591464     2.340580290784     1.007825032070

  Nuclear repulsion =  186.456550066954122

  ==> Basis Set <==

  Basis Set: CC-PVTZ
    Number of shells: 116
    Number of basis function: 304
    Number of Cartesian functions: 340
    Spherical Harmonics?: true
    Max angular momentum: 3

  ==> DFJKGrad: Density-Fitted SCF Gradients <==

    Gradient:                    1
    J tasked:                  Yes
    K tasked:                  Yes
    wK tasked:                  No
    OpenMP threads:              4
    Integrals threads:           4
    Memory (MB):              1430
    Schwarz Cutoff:          0E+00
    Fitting Condition:       1E-12

   => Auxiliary Basis Set <=

  Basis Set: 
    Number of shells: 235
    Number of basis function: 725
    Number of Cartesian functions: 865
    Spherical Harmonics?: true
    Max angular momentum: 4


  -Total Gradient:
     Atom            X                  Y                   Z
    ------   -----------------  -----------------  -----------------
       1        0.003591721574    -0.008003586183    -0.013214135635
       2        0.001992223500    -0.004427400433     0.005472080813
       3       -0.001273294340     0.003030513629    -0.011123404026
       4       -0.013403092671     0.005462085929    -0.001695362997
       5        0.007070116683     0.005046541733     0.003058077583
       6       -0.007641329825     0.004781059848     0.008515533614
       7       -0.007050388552    -0.005947809033    -0.004530290371
       8        0.013349444446    -0.006277460212     0.000297082140
       9       -0.002321660196    -0.001901011238    -0.006632873695
      10        0.006475614200     0.008695361899     0.002515267304
      11       -0.000881571049     0.000612728196     0.009944891987
      12        0.003282500129    -0.008514949783    -0.002380465368
      13        0.011565588760     0.003311961175     0.008648564810
      14       -0.012238938725    -0.003656197873    -0.008746152606
      15       -0.000665835930    -0.000446216231     0.005616909224
      16       -0.001851098003     0.008234378577     0.004254277218


*** tstop() called on cx1-27-1-1 at Sat Sep 10 15:27:57 2016
Module time:
	user time   =      21.54 seconds =       0.36 minutes
	system time =       0.49 seconds =       0.01 minutes
	total time  =          6 seconds =       0.10 minutes
Total time:
	user time   =      84.25 seconds =       1.40 minutes
	system time =       2.06 seconds =       0.03 minutes
	total time  =         24 seconds =       0.40 minutes

			-----------------------------------------
			 OPTKING 2.0: for geometry optimizations 
			  - R.A. King,  Bethel University        
			-----------------------------------------

	Previous internal coordinate definitions found.
	---Fragment 1 Geometry and Gradient---
	 H           1.5465538666       -0.3492962923       -6.1839641836
	 C           1.0617078985        0.8036252891       -4.5058303710
	 C           0.9701801180       -0.8156650778       -2.1236529498
	 H          -0.7864528812        1.7169258477       -4.8326546706
	 H           2.5081249414        2.2795980507       -4.3078462298
	 N           0.2498294411        0.6967974423        0.1203265520
	 H          -0.4628306991       -2.2917335469       -2.3969424658
	 H           2.8245218192       -1.7864108308       -1.8820772640
	 C           0.0806841847       -0.6695594409        2.5301111943
	 H           1.4138756106        2.1936600353        0.3003547406
	 C          -2.3958211103       -0.0599808262        3.9873652602
	 H           0.2075124072       -2.7057051869        2.1602909055
	 H           1.7206811237       -0.2156732526        3.7605105128
	 H          -4.0616555358       -0.5829495617        2.8363580132
	 H          -2.4744261803       -1.0726139245        5.7847022098
	 H          -2.5345259969        1.9625176115        4.4230557416
	             0.0035917216       -0.0080035862       -0.0132141356
	             0.0019922235       -0.0044274004        0.0054720808
	            -0.0012732943        0.0030305136       -0.0111234040
	            -0.0134030927        0.0054620859       -0.0016953630
	             0.0070701167        0.0050465417        0.0030580776
	            -0.0076413298        0.0047810598        0.0085155336
	            -0.0070503886       -0.0059478090       -0.0045302904
	             0.0133494444       -0.0062774602        0.0002970821
	            -0.0023216602       -0.0019010112       -0.0066328737
	             0.0064756142        0.0086953619        0.0025152673
	            -0.0008815710        0.0006127282        0.0099448920
	             0.0032825001       -0.0085149498       -0.0023804654
	             0.0115655888        0.0033119612        0.0086485648
	            -0.0122389387       -0.0036561979       -0.0087461526
	            -0.0006658359       -0.0004462162        0.0056169092
	            -0.0018510980        0.0082343786        0.0042542772

	---Fragment 1 Intrafragment Coordinates---
	 - Coordinate -           - BOHR/RAD -       - ANG/DEG -
	 R(1,2)           =         2.092949	       1.107541
	 R(2,3)           =         2.881883	       1.525027
	 R(2,4)           =         2.087254	       1.104527
	 R(2,5)           =         2.076010	       1.098577
	 R(3,6)           =         2.800338	       1.481875
	 R(3,7)           =         2.075328	       1.098216
	 R(3,8)           =         2.106962	       1.114956
	 R(6,9)           =         2.775356	       1.468655
	 R(6,10)          =         1.904734	       1.007942
	 R(9,11)          =         2.937389	       1.554399
	 R(9,12)          =         2.073341	       1.097165
	 R(9,13)          =         2.099877	       1.111207
	 R(11,14)         =         2.091248	       1.106641
	 R(11,15)         =         2.064467	       1.092469
	 R(11,16)         =         2.073539	       1.097270
	 B(1,2,3)         =         1.939719	     111.137733
	 B(1,2,4)         =         1.897168	     108.699708
	 B(1,2,5)         =         1.882527	     107.860872
	 B(2,3,6)         =         1.946657	     111.535247
	 B(2,3,7)         =         1.888850	     108.223105
	 B(2,3,8)         =         1.902551	     109.008144
	 B(3,2,4)         =         1.925346	     110.314212
	 B(3,2,5)         =         1.920670	     110.046264
	 B(3,6,9)         =         2.032585	     116.458548
	 B(3,6,10)        =         1.920881	     110.058378
	 B(4,2,5)         =         1.897330	     108.708980
	 B(6,3,7)         =         1.888141	     108.182488
	 B(6,3,8)         =         1.964228	     112.541956
	 B(6,9,11)        =         1.960564	     112.332020
	 B(6,9,12)        =         1.901685	     108.958497
	 B(6,9,13)        =         1.933439	     110.777899
	 B(7,3,8)         =         1.870371	     107.164349
	 B(9,6,10)        =         1.919920	     110.003297
	 B(9,11,14)       =         1.924784	     110.281979
	 B(9,11,15)       =         1.941446	     111.236688
	 B(9,11,16)       =         1.942340	     111.287879
	 B(11,9,12)       =         1.921825	     110.112470
	 B(11,9,13)       =         1.899602	     108.839177
	 B(12,9,13)       =         1.843162	     105.605389
	 B(14,11,15)      =         1.903058	     109.037196
	 B(14,11,16)      =         1.882081	     107.835322
	 B(15,11,16)      =         1.868111	     107.034883
	 D(1,2,3,6)       =        -3.112740	    -178.346858
	 D(1,2,3,7)       =        -1.037755	     -59.458993
	 D(1,2,3,8)       =         0.990902	      56.774498
	 D(2,3,6,9)       =         3.133895	     179.558951
	 D(2,3,6,10)      =        -0.949312	     -54.391551
	 D(3,6,9,11)      =        -2.308867	    -132.288319
	*D(3,6,9,12)      =        -0.174534	     -10.000042
	 D(3,6,9,13)      =         1.845818	     105.757554
	 D(4,2,3,6)       =        -1.007155	     -57.705727
	 D(4,2,3,7)       =         1.067830	      61.182137
	 D(4,2,3,8)       =         3.096487	     177.415629
	 D(5,2,3,6)       =         1.086283	      62.239451
	 D(5,2,3,7)       =        -3.121917	    -178.872684
	 D(5,2,3,8)       =        -1.093260	     -62.639193
	 D(6,9,11,14)     =         1.041703	      59.685204
	 D(6,9,11,15)     =        -3.127705	    -179.204290
	 D(6,9,11,16)     =        -1.046274	     -59.947073
	 D(7,3,6,9)       =         1.058488	      60.646891
	 D(7,3,6,10)      =        -3.024719	    -173.303611
	 D(8,3,6,9)       =        -1.004600	     -57.559365
	 D(8,3,6,10)      =         1.195378	      68.490133
	 D(10,6,9,11)     =         1.773859	     101.634607
	 D(10,6,9,12)     =        -2.374994	    -136.077116
	 D(10,6,9,13)     =        -0.354643	     -20.319519
	 D(12,9,11,14)    =        -1.081175	     -61.946789
	 D(12,9,11,15)    =         1.032602	      59.163716
	 D(12,9,11,16)    =         3.114033	     178.420934
	 D(13,9,11,14)    =        -3.093850	    -177.264564
	 D(13,9,11,15)    =        -0.980073	     -56.154058
	 D(13,9,11,16)    =         1.101358	      63.103159

	Current energy   :      -212.3862791388

	Energy change for the previous step:
		Projected    :        -0.0024992272
		Actual       :         0.0036016613

	Performing BFGS update.
	Previous computed or guess Hessian on step 1.
	Steps to be used in Hessian update: 1
	Taking RFO optimization step.
	Going to follow RFO solution 1.
	Using RFO vector 1.
	Norm of target step-size    0.15729
	Projected energy change by RFO approximation:        -0.0074512956

	Back-transformation to cartesian coordinates...
	Could not converge backtransformation.
	Using first guess instead.

	Back-transformation to cartesian coordinates to adjust frozen coordinates...
	Successfully converged to displaced geometry.

	--- Internal Coordinate Step in ANG or DEG, aJ/ANG or AJ/DEG ---
	 ---------------------------------------------------------------------------
	   Coordinate                Previous        Force       Change         New 
	   ----------                --------       ------       ------       ------
	    1 R(1,2)          =      1.107541    -0.130469    -0.024041     1.083500
	    2 R(2,3)          =      1.525027    -0.034349    -0.006272     1.518755
	    3 R(2,4)          =      1.104527    -0.119653    -0.021973     1.082555
	    4 R(2,5)          =      1.098577    -0.072546    -0.013069     1.085508
	    5 R(3,6)          =      1.481875    -0.202030    -0.032670     1.449205
	    6 R(3,7)          =      1.098216    -0.079876    -0.013794     1.084422
	    7 R(3,8)          =      1.114956    -0.120905    -0.022337     1.092619
	    8 R(6,9)          =      1.468655    -0.087711    -0.009326     1.459329
	    9 R(6,10)         =      1.007942    -0.090861    -0.011432     0.996509
	   10 R(9,11)         =      1.554399    -0.161976    -0.032580     1.521819
	   11 R(9,12)         =      1.097165    -0.074046    -0.012700     1.084465
	   12 R(9,13)         =      1.111207    -0.122066    -0.023747     1.087461
	   13 R(11,14)        =      1.106641    -0.127514    -0.023974     1.082667
	   14 R(11,15)        =      1.092469    -0.042300    -0.006639     1.085830
	   15 R(11,16)        =      1.097270    -0.074556    -0.013249     1.084021
	   16 B(1,2,3)        =    111.137733    -0.000167    -0.454819   110.682914
	   17 B(1,2,4)        =    108.699708     0.000010    -0.056933   108.642775
	   18 B(1,2,5)        =    107.860872    -0.000060    -0.192072   107.668799
	   19 B(2,3,6)        =    111.535247    -0.000324    -0.486181   111.049066
	   20 B(2,3,7)        =    108.223105     0.000300     1.123187   109.346291
	   21 B(2,3,8)        =    109.008144     0.000151     0.372298   109.380443
	   22 B(3,2,4)        =    110.314212     0.000085     0.297794   110.612006
	   23 B(3,2,5)        =    110.046264     0.000297     1.081116   111.127380
	   24 B(3,6,9)        =    116.458548    -0.000382    -0.643966   115.814581
	   25 B(3,6,10)       =    110.058378     0.000071    -0.230877   109.827501
	   26 B(4,2,5)        =    108.708980    -0.000174    -0.711446   107.997533
	   27 B(6,3,7)        =    108.182488    -0.000052    -0.274762   107.907726
	   28 B(6,3,8)        =    112.541956     0.000041    -0.113163   112.428792
	   29 B(6,9,11)       =    112.332020    -0.000152     0.008171   112.340191
	   30 B(6,9,12)       =    108.958497     0.000104     0.903038   109.861535
	   31 B(6,9,13)       =    110.777899     0.000032    -0.246105   110.531794
	   32 B(7,3,8)        =    107.164349    -0.000097    -0.581204   106.583145
	   33 B(9,6,10)       =    110.003297     0.000202     1.033394   111.036691
	   34 B(9,11,14)      =    110.281979     0.000055     0.068858   110.350837
	   35 B(9,11,15)      =    111.236688    -0.000116     0.014441   111.251130
	   36 B(9,11,16)      =    111.287879    -0.000209    -0.697280   110.590599
	   37 B(11,9,12)      =    110.112470    -0.000009    -0.629435   109.483034
	   38 B(11,9,13)      =    108.839177     0.000075     0.065982   108.905159
	   39 B(12,9,13)      =    105.605389    -0.000044    -0.121394   105.483995
	   40 B(14,11,15)     =    109.037196     0.000004    -0.382901   108.654295
	   41 B(14,11,16)     =    107.835322     0.000055    -0.052730   107.782592
	   42 B(15,11,16)     =    107.034883     0.000223     1.070424   108.105306
	   43 D(1,2,3,6)      =   -178.346858     0.000004     0.031226  -178.315633
	   44 D(1,2,3,7)      =    -59.458993    -0.000011     0.110461   -59.348532
	   45 D(1,2,3,8)      =     56.774498     0.000019     0.246860    57.021358
	   46 D(2,3,6,9)      =    179.558951     0.000009     0.025489   179.584439
	   47 D(2,3,6,10)     =    -54.391551     0.000016     0.724547   -53.667005
	   48 D(3,6,9,11)     =   -132.288319     0.000009     0.157860  -132.130460
	   49 *D(3,6,9,12)    =    -10.000042    -0.000000    -0.000000   -10.000042
	   50 D(3,6,9,13)     =    105.757554     0.000006     0.244051   106.001606
	   51 D(4,2,3,6)      =    -57.705727    -0.000005    -0.142283   -57.848010
	   52 D(4,2,3,7)      =     61.182137    -0.000020    -0.063047    61.119090
	   53 D(4,2,3,8)      =    177.415629     0.000010     0.073352   177.488980
	   54 D(5,2,3,6)      =     62.239451     0.000001    -0.138189    62.101262
	   55 D(5,2,3,7)      =   -178.872684    -0.000014    -0.058954  -178.931638
	   56 D(5,2,3,8)      =    -62.639193     0.000016     0.077445   -62.561748
	   57 D(6,9,11,14)    =     59.685204     0.000003     0.366225    60.051429
	   58 D(6,9,11,15)    =   -179.204290    -0.000006    -0.060881  -179.265172
	   59 D(6,9,11,16)    =    -59.947073     0.000010     0.834064   -59.113009
	   60 D(7,3,6,9)      =     60.646891    -0.000024    -0.890205    59.756686
	   61 D(7,3,6,10)     =   -173.303611    -0.000017    -0.191147  -173.494758
	   62 D(8,3,6,9)      =    -57.559365     0.000005     0.066818   -57.492547
	   63 D(8,3,6,10)     =     68.490133     0.000013     0.765876    69.256009
	   64 D(10,6,9,11)    =    101.634607     0.000017     0.096419   101.731026
	   65 D(10,6,9,12)    =   -136.077116     0.000008    -0.061441  -136.138557
	   66 D(10,6,9,13)    =    -20.319519     0.000014     0.182610   -20.136909
	   67 D(12,9,11,14)   =    -61.946789    -0.000003    -0.346764   -62.293554
	   68 D(12,9,11,15)   =     59.163716    -0.000011    -0.773871    58.389845
	   69 D(12,9,11,16)   =    178.420934     0.000004     0.121074   178.542008
	   70 D(13,9,11,14)   =   -177.264564     0.000001     0.105187  -177.159377
	   71 D(13,9,11,15)   =    -56.154058    -0.000007    -0.321920   -56.475978
	   72 D(13,9,11,16)   =     63.103159     0.000008     0.573026    63.676185
	 ---------------------------------------------------------------------------
	Successfully symmetrized geometry.

  ==> Convergence Check <==

  Measures of convergence in internal coordinates in au.
  Criteria marked as inactive (o), active & met (*), and active & unmet ( ).
  ---------------------------------------------------------------------------------------------
   Step     Total Energy     Delta E     MAX Force     RMS Force      MAX Disp      RMS Disp   
  ---------------------------------------------------------------------------------------------
    Convergence Criteria    1.00e-06 *    3.00e-04 *             o    1.20e-03 *             o
  ---------------------------------------------------------------------------------------------
      2    -212.38627914    3.60e-03      2.45e-02      6.32e-03 o    6.17e-02      1.85e-02 o  ~
  ---------------------------------------------------------------------------------------------

	Writing optimization data to binary file.
	Structure for next step:
	Cartesian Geometry (in Angstrom)
	    H     0.8043204621  -0.1785484696  -3.2166466824
	    C     0.5556057486   0.4266263457  -2.3530052248
	    C     0.5017840590  -0.4265472072  -1.0976905996
	    H    -0.3990276117   0.9056574401  -2.5294399823
	    H     1.3094659008   1.2028591986  -2.2664911893
	    N     0.1310722283   0.3680219962   0.0561839039
	    H    -0.2455882631  -1.2023437838  -1.2223690635
	    H     1.4595737484  -0.9349183867  -0.9634759297
	    C     0.0387630660  -0.3533414226   1.3213937268
	    H     0.7396511285   1.1531046202   0.1356068007
	    C    -1.2448753632  -0.0371666823   2.0752102222
	    H     0.0991913876  -1.4211508068   1.1419626478
	    H     0.8883601888  -0.1173621090   1.9578442766
	    H    -2.1075829923  -0.3104555031   1.4808908197
	    H    -1.2893225621  -0.5727626141   3.0187075364
	    H    -1.3112642096   1.0239392450   2.2867468780
			--------------------------
			 OPTKING Finished Execution 
			--------------------------

    Structure for next step:
    Molecular point group: c1
    Full point group: C1

    Geometry (in Angstrom), charge = 0, multiplicity = 1:

    H            0.804346283082    -0.178723238552    -3.216093913179
    C            0.555631569510     0.426451576722    -2.352452455613
    C            0.501809879911    -0.426721976125    -1.097137830449
    H           -0.399001790777     0.905482671123    -2.528887213080
    H            1.309491721726     1.202684429656    -2.265938420084
    N            0.131098049279     0.367847227191     0.056736673087
    H           -0.245562442170    -1.202518552779    -1.221816294336
    H            1.459599569336    -0.935093155657    -0.962923160559
    C            0.038788886927    -0.353516191536     1.321946495973
    H            0.739676949475     1.152929851247     0.136159569875
    C           -1.244849542258    -0.037341451275     2.075762991401
    H            0.099217208526    -1.421325575790     1.142515416973
    H            0.888386009725    -0.117536877960     1.958397045769
    H           -2.107557171330    -0.310630272035     1.481443588864
    H           -1.289296741207    -0.572937383107     3.019260305577
    H           -1.311238388695     1.023764476058     2.287299647189

gradient() will perform analytic gradient computation.

*** tstart() called on cx1-27-1-1
*** at Sat Sep 10 15:27:57 2016


         ---------------------------------------------------------
                                   SCF
            by Justin Turney, Rob Parrish, and Andy Simmonett
                              RHF Reference
                        4 Threads,   2000 MiB Core
         ---------------------------------------------------------

  ==> Geometry <==

    Molecular point group: c1
    Full point group: C1

    Geometry (in Angstrom), charge = 0, multiplicity = 1:

       Center              X                  Y                   Z               Mass       
    ------------   -----------------  -----------------  -----------------  -----------------
           H          0.804346283082    -0.178723238552    -3.216093913179     1.007825032070
           C          0.555631569510     0.426451576722    -2.352452455613    12.000000000000
           C          0.501809879911    -0.426721976125    -1.097137830449    12.000000000000
           H         -0.399001790777     0.905482671123    -2.528887213080     1.007825032070
           H          1.309491721726     1.202684429656    -2.265938420084     1.007825032070
           N          0.131098049279     0.367847227191     0.056736673087    14.003074004780
           H         -0.245562442170    -1.202518552779    -1.221816294336     1.007825032070
           H          1.459599569336    -0.935093155657    -0.962923160559     1.007825032070
           C          0.038788886927    -0.353516191536     1.321946495973    12.000000000000
           H          0.739676949475     1.152929851247     0.136159569875     1.007825032070
           C         -1.244849542258    -0.037341451275     2.075762991401    12.000000000000
           H          0.099217208526    -1.421325575790     1.142515416973     1.007825032070
           H          0.888386009725    -0.117536877960     1.958397045769     1.007825032070
           H         -2.107557171330    -0.310630272035     1.481443588864     1.007825032070
           H         -1.289296741207    -0.572937383107     3.019260305577     1.007825032070
           H         -1.311238388695     1.023764476058     2.287299647189     1.007825032070

  Running in c1 symmetry.

  Rotational constants: A =      0.53148  B =      0.07104  C =      0.06892 [cm^-1]
  Rotational constants: A =  15933.50948  B =   2129.60757  C =   2066.27220 [MHz]
  Nuclear repulsion =  189.221736911222195

  Charge       = 0
  Multiplicity = 1
  Electrons    = 42
  Nalpha       = 21
  Nbeta        = 21

  ==> Algorithm <==

  SCF Algorithm Type is DF.
  DIIS enabled.
  MOM disabled.
  Fractional occupation disabled.
  Guess Type is READ.
  Energy threshold   = 1.00e-08
  Density threshold  = 1.00e-08
  Integral threshold = 0.00e+00

  ==> Primary Basis <==

  Basis Set: CC-PVTZ
    Number of shells: 116
    Number of basis function: 304
    Number of Cartesian functions: 340
    Spherical Harmonics?: true
    Max angular momentum: 3

  ==> Pre-Iterations <==

   -------------------------------------------------------
    Irrep   Nso     Nmo     Nalpha   Nbeta   Ndocc  Nsocc
   -------------------------------------------------------
     A        304     304       0       0       0       0
   -------------------------------------------------------
    Total     304     304      21      21      21       0
   -------------------------------------------------------

  ==> Integral Setup <==

  ==> DFJK: Density-Fitted J/K Matrices <==

    J tasked:                  Yes
    K tasked:                  Yes
    wK tasked:                  No
    OpenMP threads:              4
    Integrals threads:           4
    Memory (MB):              1430
    Algorithm:                Core
    Integral Cache:           NONE
    Schwarz Cutoff:          1E-12
    Fitting Condition:       1E-12

   => Auxiliary Basis Set <=

  Basis Set: 
    Number of shells: 235
    Number of basis function: 725
    Number of Cartesian functions: 865
    Spherical Harmonics?: true
    Max angular momentum: 4

  Minimum eigenvalue in the overlap matrix is 6.9135215342E-04.
  Using Symmetric Orthogonalization.
  SCF Guess: Reading in previously saved MOs, projecting if necessary.

  Using orbitals from previous SCF, no projection.
  Recomputing DOCC and SOCC from number of alpha and beta electrons from previous calculation.
              A 
    DOCC [    21 ]

  ==> Iterations <==

                           Total Energy        Delta E     RMS |[F,P]|

   @DF-RHF iter   0:  -212.47469725548177   -2.12475e+02   3.53563e-04 
   @DF-RHF iter   1:  -212.39020177552851    8.44955e-02   4.59335e-05 
   @DF-RHF iter   2:  -212.39031764217657   -1.15867e-04   2.16661e-05 DIIS
   @DF-RHF iter   3:  -212.39033706154106   -1.94194e-05   4.44805e-06 DIIS
   @DF-RHF iter   4:  -212.39033851176066   -1.45022e-06   1.38073e-06 DIIS
   @DF-RHF iter   5:  -212.39033863650576   -1.24745e-07   4.21506e-07 DIIS
   @DF-RHF iter   6:  -212.39033865266686   -1.61611e-08   1.08372e-07 DIIS
   @DF-RHF iter   7:  -212.39033865410130   -1.43444e-09   2.39157e-08 DIIS
   @DF-RHF iter   8:  -212.39033865417588   -7.45786e-11   6.11867e-09 DIIS

  ==> Post-Iterations <==

    Orbital Energies (a.u.)
    -----------------------

    Doubly Occupied:                                                      

       1A    -15.526783     2A    -11.239811     3A    -11.239532  
       4A    -11.206233     5A    -11.200229     6A     -1.201712  
       7A     -1.026714     8A     -0.964267     9A     -0.835762  
      10A     -0.815525    11A     -0.664425    12A     -0.626206  
      13A     -0.608013    14A     -0.566347    15A     -0.560646  
      16A     -0.524824    17A     -0.505581    18A     -0.489902  
      19A     -0.484447    20A     -0.471418    21A     -0.356766  

    Virtual:                                                              

      22A      0.141320    23A      0.158340    24A      0.168280  
      25A      0.177034    26A      0.208760    27A      0.218405  
      28A      0.221883    29A      0.235186    30A      0.243761  
      31A      0.250954    32A      0.256106    33A      0.315465  
      34A      0.325063    35A      0.353840    36A      0.358584  
      37A      0.376924    38A      0.405547    39A      0.412438  
      40A      0.438007    41A      0.464525    42A      0.490369  
      43A      0.496793    44A      0.512033    45A      0.569720  
      46A      0.586082    47A      0.600002    48A      0.605618  
      49A      0.610031    50A      0.617332    51A      0.646393  
      52A      0.648216    53A      0.656317    54A      0.664166  
      55A      0.665654    56A      0.670853    57A      0.693265  
      58A      0.698572    59A      0.710061    60A      0.743760  
      61A      0.756176    62A      0.764489    63A      0.796689  
      64A      0.805711    65A      0.826732    66A      0.869171  
      67A      0.876286    68A      0.928979    69A      0.944977  
[...]
Module time:
	user time   =      21.92 seconds =       0.37 minutes
	system time =       0.50 seconds =       0.01 minutes
	total time  =          6 seconds =       0.10 minutes
Total time:
	user time   =     230.40 seconds =       3.84 minutes
	system time =       5.43 seconds =       0.09 minutes
	total time  =         66 seconds =       1.10 minutes

			-----------------------------------------
			 OPTKING 2.0: for geometry optimizations 
			  - R.A. King,  Bethel University        
			-----------------------------------------

	Previous internal coordinate definitions found.
	---Fragment 1 Geometry and Gradient---
	 H           1.5519603397       -0.3068490102       -6.0693149307
	 C           1.0673961021        0.8261809066       -4.4332451166
	 C           0.9526865003       -0.7985112826       -2.0688311668
	 H          -0.7367179773        1.7301451364       -4.7735532550
	 H           2.4885448846        2.2946248583       -4.2501639556
	 N           0.2435638166        0.6905396563        0.1128585072
	 H          -0.4560629660       -2.2657437929       -2.3222557811
	 H           2.7630637790       -1.7608352299       -1.8150581028
	 C           0.0715523591       -0.6715738213        2.4967934483
	 H           1.3696453395        2.1895665104        0.2773616383
	 C          -2.3674998189       -0.0905458060        3.9033434367
	 H           0.1974556245       -2.6840738024        2.1288876231
	 H           1.6748396419       -0.2338566245        3.7088025058
	 H          -3.9912758765       -0.6038129695        2.7669519703
	 H          -2.4578933470       -1.1197605651        5.6754333597
	 H          -2.5030448269        1.9109659954        4.3185882509
	             0.0000049841       -0.0000018238       -0.0000142242
	             0.0000081124        0.0000030233        0.0000010772
	            -0.0013092555       -0.0002772757       -0.0002206253
	            -0.0000049729       -0.0000048682        0.0000074087
	             0.0000065507        0.0000060592        0.0000008679
	             0.0022259833        0.0004232287        0.0003243560
	            -0.0000064354       -0.0000057757        0.0000090777
	             0.0000002247        0.0000104286        0.0000032687
	            -0.0026754684       -0.0002256354       -0.0002555901
	             0.0000257779        0.0000151177        0.0000043469
	             0.0000368107        0.0000000655       -0.0000098434
	             0.0016824232        0.0000648257        0.0001498441
	             0.0000046514        0.0000080350        0.0000163834
	            -0.0000021990       -0.0000063996       -0.0000083833
	            -0.0000065520       -0.0000020972       -0.0000002134
	             0.0000093649       -0.0000069080       -0.0000077510

	---Fragment 1 Intrafragment Coordinates---
	 - Coordinate -           - BOHR/RAD -       - ANG/DEG -
	 R(1,2)           =         2.048239	       1.083881
	 R(2,3)           =         2.871104	       1.519323
	 R(2,4)           =         2.046409	       1.082913
	 R(2,5)           =         2.051709	       1.085718
	 R(3,6)           =         2.734940	       1.447268
	 R(3,7)           =         2.049773	       1.084693
	 R(3,8)           =         2.065898	       1.093226
	 R(6,9)           =         2.751016	       1.455775
	 R(6,10)          =         1.882074	       0.995951
	 R(9,11)          =         2.874883	       1.521323
	 R(9,12)          =         2.049723	       1.084666
	 R(9,13)          =         2.056962	       1.088497
	 R(11,14)         =         2.047310	       1.083390
	 R(11,15)         =         2.051282	       1.085492
	 R(11,16)         =         2.048622	       1.084084
	 B(1,2,3)         =         1.932884	     110.746081
	 B(1,2,4)         =         1.896619	     108.668246
	 B(1,2,5)         =         1.878976	     107.657368
	 B(2,3,6)         =         1.938202	     111.050810
	 B(2,3,7)         =         1.907840	     109.311178
	 B(2,3,8)         =         1.906827	     109.253149
	 B(3,2,4)         =         1.930173	     110.590782
	 B(3,2,5)         =         1.938203	     111.050872
	 B(3,6,9)         =         2.024062	     115.970203
	 B(3,6,10)        =         1.926484	     110.379414
	 B(4,2,5)         =         1.885293	     108.019344
	 B(6,3,7)         =         1.886147	     108.068254
	 B(6,3,8)         =         1.963663	     112.509578
	 B(6,9,11)        =         1.957298	     112.144904
	 B(6,9,12)        =         1.903668	     109.072159
	 B(6,9,13)        =         1.935317	     110.885487
	 B(7,3,8)         =         1.858783	     106.500419
	 B(9,6,10)        =         1.934811	     110.856497
	 B(9,11,14)       =         1.929064	     110.527214
	 B(9,11,15)       =         1.937613	     111.017062
	 B(9,11,16)       =         1.931316	     110.656240
	 B(11,9,12)       =         1.915974	     109.777228
	 B(11,9,13)       =         1.907093	     109.268374
	 B(12,9,13)       =         1.840885	     105.474916
	 B(14,11,15)      =         1.895237	     108.589095
	 B(14,11,16)      =         1.880704	     107.756393
	 B(15,11,16)      =         1.888285	     108.190771
	 D(1,2,3,6)       =        -3.116161	    -178.542880
	 D(1,2,3,7)       =        -1.036703	     -59.398678
	 D(1,2,3,8)       =         0.991003	      56.780271
	 D(2,3,6,9)       =         3.141345	     179.985810
	 D(2,3,6,10)      =        -0.923276	     -52.899800
	 D(3,6,9,11)      =        -2.300672	    -131.818807
	*D(3,6,9,12)      =        -0.174534	     -10.000042
	 D(3,6,9,13)      =         1.845292	     105.727424
	 D(4,2,3,6)       =        -1.012564	     -58.015657
	 D(4,2,3,7)       =         1.066894	      61.128545
	 D(4,2,3,8)       =         3.094600	     177.307494
	 D(5,2,3,6)       =         1.080303	      61.896809
	 D(5,2,3,7)       =        -3.123424	    -178.958989
	 D(5,2,3,8)       =        -1.095718	     -62.780040
	 D(6,9,11,14)     =         1.039532	      59.560824
	 D(6,9,11,15)     =        -3.139406	    -179.874717
	 D(6,9,11,16)     =        -1.042410	     -59.725702
	 D(7,3,6,9)       =         1.048924	      60.098904
	 D(7,3,6,10)      =        -3.015697	    -172.786706
	 D(8,3,6,9)       =        -0.998278	     -57.197118
	 D(8,3,6,10)      =         1.220287	      69.917272
	 D(10,6,9,11)     =         1.768107	     101.305042
	 D(10,6,9,12)     =        -2.388940	    -136.876194
	 D(10,6,9,13)     =        -0.369115	     -21.148728
	 D(12,9,11,14)    =        -1.079557	     -61.854051
	 D(12,9,11,15)    =         1.024690	      58.710408
	 D(12,9,11,16)    =         3.121686	     178.859423
	 D(13,9,11,14)    =        -3.090491	    -177.072119
	 D(13,9,11,15)    =        -0.986245	     -56.507660
	 D(13,9,11,16)    =         1.110751	      63.641355

	Current energy   :      -212.3904057697

	Energy change for the previous step:
		Projected    :        -0.0000015742
		Actual       :        -0.0000005555

	Performing BFGS update.
	Previous computed or guess Hessian on step 1.
	Steps to be used in Hessian update: 5 4
	Taking RFO optimization step.
	Going to follow RFO solution 1.
	Using RFO vector 1.
	Norm of target step-size    0.00227
	Projected energy change by RFO approximation:        -0.0000001178

	Back-transformation to cartesian coordinates...
	Successfully converged to displaced geometry.

	Back-transformation to cartesian coordinates to adjust frozen coordinates...
	Successfully converged to displaced geometry.

	--- Internal Coordinate Step in ANG or DEG, aJ/ANG or AJ/DEG ---
	 ---------------------------------------------------------------------------
	   Coordinate                Previous        Force       Change         New 
	   ----------                --------       ------       ------       ------
	    1 R(1,2)          =      1.083881    -0.000112    -0.000024     1.083857
	    2 R(2,3)          =      1.519323    -0.000049    -0.000005     1.519317
	    3 R(2,4)          =      1.082913    -0.000008    -0.000001     1.082911
	    4 R(2,5)          =      1.085718    -0.000074    -0.000014     1.085704
	    5 R(3,6)          =      1.447268     0.000166    -0.000023     1.447245
	    6 R(3,7)          =      1.084693    -0.000061    -0.000008     1.084686
	    7 R(3,8)          =      1.093226     0.000035     0.000017     1.093243
	    8 R(6,9)          =      1.455775    -0.000351    -0.000112     1.455662
	    9 R(6,10)         =      0.995951    -0.000229    -0.000042     0.995908
	   10 R(9,11)         =      1.521323     0.000393     0.000080     1.521402
	   11 R(9,12)         =      1.084666    -0.000105    -0.000019     1.084647
	   12 R(9,13)         =      1.088497    -0.000123    -0.000013     1.088485
	   13 R(11,14)        =      1.083390    -0.000066    -0.000012     1.083378
	   14 R(11,15)        =      1.085492    -0.000010    -0.000004     1.085487
	   15 R(11,16)        =      1.084084     0.000074     0.000015     1.084099
	   16 B(1,2,3)        =    110.746081    -0.000001    -0.005805   110.740276
	   17 B(1,2,4)        =    108.668246    -0.000000    -0.000851   108.667395
	   18 B(1,2,5)        =    107.657368     0.000000     0.000385   107.657753
	   19 B(2,3,6)        =    111.050810     0.000000     0.001142   111.051952
	   20 B(2,3,7)        =    109.311178    -0.000001    -0.008141   109.303037
	   21 B(2,3,8)        =    109.253149     0.000000     0.000700   109.253848
	   22 B(3,2,4)        =    110.590782     0.000001     0.007091   110.597873
	   23 B(3,2,5)        =    111.050872    -0.000000    -0.000349   111.050523
	   24 B(3,6,9)        =    115.970203     0.000004     0.022627   115.992829
	   25 B(3,6,10)       =    110.379414    -0.000002     0.009735   110.389149
	   26 B(4,2,5)        =    108.019344    -0.000000    -0.000545   108.018799
	   27 B(6,3,7)        =    108.068254     0.000000     0.001988   108.070242
	   28 B(6,3,8)        =    112.509578     0.000000     0.008098   112.517676
	   29 B(6,9,11)       =    112.144904     0.000001     0.008202   112.153106
	   30 B(6,9,12)       =    109.072159     0.000000     0.004617   109.076775
	   31 B(6,9,13)       =    110.885487    -0.000001    -0.006661   110.878826
	   32 B(7,3,8)        =    106.500419    -0.000000    -0.004517   106.495902
	   33 B(9,6,10)       =    110.856497    -0.000001     0.008508   110.865005
	   34 B(9,11,14)      =    110.527214     0.000001     0.005514   110.532728
	   35 B(9,11,15)      =    111.017062    -0.000001    -0.005122   111.011940
	   36 B(9,11,16)      =    110.656240     0.000001     0.004515   110.660756
	   37 B(11,9,12)      =    109.777228    -0.000001     0.005747   109.782975
	   38 B(11,9,13)      =    109.268374    -0.000000    -0.001377   109.266997
	   39 B(12,9,13)      =    105.474916    -0.000000    -0.011597   105.463319
	   40 B(14,11,15)     =    108.589095     0.000000     0.000861   108.589956
	   41 B(14,11,16)     =    107.756393    -0.000001    -0.002026   107.754366
	   42 B(15,11,16)     =    108.190771    -0.000000    -0.003898   108.186873
	   43 D(1,2,3,6)      =   -178.542880     0.000000     0.018793  -178.524086
	   44 D(1,2,3,7)      =    -59.398678     0.000000     0.016775   -59.381903
	   45 D(1,2,3,8)      =     56.780271    -0.000000     0.007182    56.787453
	   46 D(2,3,6,9)      =    179.985810    -0.000000    -0.008191   179.977619
	   47 D(2,3,6,10)     =    -52.899800    -0.000000     0.031230   -52.868569
	   48 D(3,6,9,11)     =   -131.818807    -0.000000    -0.015884  -131.834691
	   49 *D(3,6,9,12)    =    -10.000042     0.000000    -0.000000   -10.000042
	   50 D(3,6,9,13)     =    105.727424    -0.000000    -0.015106   105.712318
	   51 D(4,2,3,6)      =    -58.015657     0.000000     0.018585   -57.997072
	   52 D(4,2,3,7)      =     61.128545     0.000000     0.016566    61.145111
	   53 D(4,2,3,8)      =    177.307494    -0.000000     0.006973   177.314467
	   54 D(5,2,3,6)      =     61.896809     0.000000     0.022353    61.919163
	   55 D(5,2,3,7)      =   -178.958989     0.000000     0.020335  -178.938654
	   56 D(5,2,3,8)      =    -62.780040    -0.000000     0.010742   -62.769298
	   57 D(6,9,11,14)    =     59.560824     0.000000     0.010933    59.571758
	   58 D(6,9,11,15)    =   -179.874717     0.000000     0.012307  -179.862410
	   59 D(6,9,11,16)    =    -59.725702     0.000000     0.007023   -59.718679
	   60 D(7,3,6,9)      =     60.098904     0.000000    -0.000141    60.098763
	   61 D(7,3,6,10)     =   -172.786706     0.000000     0.039280  -172.747426
	   62 D(8,3,6,9)      =    -57.197118    -0.000000    -0.000559   -57.197677
	   63 D(8,3,6,10)     =     69.917272     0.000000     0.038863    69.956134
	   64 D(10,6,9,11)    =    101.305042    -0.000000    -0.056146   101.248895
	   65 D(10,6,9,12)    =   -136.876194    -0.000000    -0.040263  -136.916456
	   66 D(10,6,9,13)    =    -21.148728    -0.000000    -0.055369   -21.204096
	   67 D(12,9,11,14)   =    -61.854051    -0.000000    -0.004433   -61.858484
	   68 D(12,9,11,15)   =     58.710408    -0.000000    -0.003060    58.707349
	   69 D(12,9,11,16)   =    178.859423    -0.000000    -0.008344   178.851079
	   70 D(13,9,11,14)   =   -177.072119     0.000000     0.007054  -177.065064
	   71 D(13,9,11,15)   =    -56.507660     0.000000     0.008428   -56.499231
	   72 D(13,9,11,16)   =     63.641355    -0.000000     0.003144    63.644499
	 ---------------------------------------------------------------------------
	Successfully symmetrized geometry.

  ==> Convergence Check <==

  Measures of convergence in internal coordinates in au.
  Criteria marked as inactive (o), active & met (*), and active & unmet ( ).
  ---------------------------------------------------------------------------------------------
   Step     Total Energy     Delta E     MAX Force     RMS Force      MAX Disp      RMS Disp   
  ---------------------------------------------------------------------------------------------
    Convergence Criteria    1.00e-06 *    3.00e-04 *             o    1.20e-03 *             o
  ---------------------------------------------------------------------------------------------
      6    -212.39040577   -5.56e-07 *    5.43e-05 *    1.30e-05 o    9.80e-04 *    2.68e-04 o  ~
  ---------------------------------------------------------------------------------------------


  **** Optimization is complete! (in 6 steps) ****

  ==> Optimization Summary <==

  Measures of convergence in internal coordinates in au.
  --------------------------------------------------------------------------------------------------------------- ~
   Step         Total Energy             Delta E       MAX Force       RMS Force        MAX Disp        RMS Disp  ~
  --------------------------------------------------------------------------------------------------------------- ~
      1    -212.389880800143   -212.389880800143      0.01012203      0.00177211      0.07759898      0.02531165  ~
      2    -212.386279138826      0.003601661316      0.02452204      0.00632119      0.06173811      0.01853571  ~
      3    -212.390338654176     -0.004059515349      0.00314781      0.00059378      0.01320146      0.00461735  ~
      4    -212.390402078830     -0.000063424654      0.00071494      0.00013258      0.00487259      0.00190010  ~
      5    -212.390405214206     -0.000003135376      0.00012086      0.00003373      0.00314666      0.00090183  ~
      6    -212.390405769728     -0.000000555521      0.00005431      0.00001301      0.00097994      0.00026775  ~
  --------------------------------------------------------------------------------------------------------------- ~

	Writing optimization data to binary file.
	Final energy is   -212.3904057697277
	Final (previous) structure:
	Cartesian Geometry (in Angstrom)
	    H     0.8212620404  -0.1623775027  -3.2117431331
	    C     0.5648416898   0.4371961060  -2.3459722758
	    C     0.5041399829  -0.4225539716  -1.0947783019
	    H    -0.3898543628   0.9155533737  -2.5260555865
	    H     1.3168812355   1.2142631773  -2.2490898981
	    N     0.1288884206   0.3654178477   0.0597221498
	    H    -0.2413381273  -1.1989799757  -1.2288848319
	    H     1.4621503777  -0.9317938717  -0.9604873803
	    C     0.0378638777  -0.3553815601   1.3212461874
	    H     0.7247850975   1.1586686940   0.1467734575
	    C    -1.2528269455  -0.0479147768   2.0655603840
	    H     0.1044890162  -1.4203506824   1.1265588098
	    H     0.8862869666  -0.1237515958   1.9626137572
	    H    -2.1120922270  -0.3195240617   1.4642079199
	    H    -1.3006611404  -0.5925517701   3.0033099828
	    H    -1.3245542744   1.0112396512   2.2852984757
	Saving final (previous) structure.
			--------------------------
			 OPTKING Finished Execution 
			--------------------------

    Final optimized geometry and variables:
    Molecular point group: c1
    Full point group: C1

    Geometry (in Angstrom), charge = 0, multiplicity = 1:

    H            0.821262040391    -0.162377502660    -3.211743133065
    C            0.564841689785     0.437196105970    -2.345972275785
    C            0.504139982900    -0.422553971561    -1.094778301903
    H           -0.389854362753     0.915553373739    -2.526055586534
    H            1.316881235466     1.214263177269    -2.249089898098
    N            0.128888420593     0.365417847742     0.059722149819
    H           -0.241338127287    -1.198979975685    -1.228884831851
    H            1.462150377726    -0.931793871747    -0.960487380280
    C            0.037863877664    -0.355381560102     1.321246187372
    H            0.724785097507     1.158668693986     0.146773457535
    C           -1.252826945508    -0.047914776848     2.065560384015
    H            0.104489016193    -1.420350682407     1.126558809789
    H            0.886286966561    -0.123751595769     1.962613757211
    H           -2.112092227048    -0.319524061696     1.464207919944
    H           -1.300661140388    -0.592551770144     3.003309982829
    H           -1.324554274448     1.011239651154     2.285298475680

	Cleaning optimization helper files.


Properties will be evaluated at   0.000000,   0.000000,   0.000000 Bohr

Properties computed using the  density matrix

  Nuclear Dipole Moment: (a.u.)
     X:    -0.0497      Y:    -0.4226      Z:    -0.1759

  Electronic Dipole Moment: (a.u.)
     X:     0.4248      Y:     0.3326      Z:     0.2188

  Dipole Moment: (a.u.)
     X:     0.3751      Y:    -0.0900      Z:     0.0428     Total:     0.3881

  Dipole Moment: (Debye)
     X:     0.9533      Y:    -0.2287      Z:     0.1089     Total:     0.9864

  Quadrupole Moment: (Debye Ang)
    XX:   -34.5858     YY:   -33.5746     ZZ:   -33.9042
    XY:     1.5401     XZ:     0.3658     YZ:     0.5177

  Traceless Quadrupole Moment: (Debye Ang)
    XX:    -0.5643     YY:     0.4469     ZZ:     0.1173
    XY:     1.5401     XZ:     0.3658     YZ:     0.5177

  Mulliken Charges: (a.u.)
   Center  Symbol    Alpha    Beta     Spin     Total
       1     H     0.45418  0.45418  0.00000  0.09164
       2     C     3.14410  3.14410  0.00000 -0.28819
       3     C     3.02076  3.02076  0.00000 -0.04151
       4     H     0.44973  0.44973  0.00000  0.10054
       5     H     0.45950  0.45950  0.00000  0.08100
       6     N     3.64339  3.64339  0.00000 -0.28678
       7     H     0.45930  0.45930  0.00000  0.08141
       8     H     0.47349  0.47349  0.00000  0.05302
       9     C     3.03599  3.03599  0.00000 -0.07199
      10     H     0.44200  0.44200  0.00000  0.11600
      11     C     3.12728  3.12728  0.00000 -0.25456
      12     H     0.45819  0.45819  0.00000  0.08362
      13     H     0.45939  0.45939  0.00000  0.08123
      14     H     0.45511  0.45511  0.00000  0.08977
      15     H     0.46026  0.46026  0.00000  0.07948
      16     H     0.45733  0.45733  0.00000  0.08534

   Total alpha = 21.00000, Total beta = 21.00000, Total charge =  0.00000


*** Psi4 exiting successfully. Buy a developer a beer!
