    -----------------------------------------------------------------------
          Psi4: An Open-Source Ab Initio Electronic Structure Package
                              Psi4 (no tag) Driver

                          Git: Rev {detached?}  

    J. M. Turney, A. C. Simmonett, R. M. Parrish, E. G. Hohenstein,
    F. A. Evangelista, J. T. Fermann, B. J. Mintz, L. A. Burns, J. J. Wilke,
    M. L. Abrams, N. J. Russ, M. L. Leininger, C. L. Janssen, E. T. Seidl,
    W. D. Allen, H. F. Schaefer, R. A. King, E. F. Valeev, C. D. Sherrill,
    and T. D. Crawford, WIREs Comput. Mol. Sci. 2, 556-565 (2012)
    (doi: 10.1002/wcms.93)

                         Additional Contributions by
    A. E. DePrince, M. Saitow, U. Bozkaya, A. Yu. Sokolov
    -----------------------------------------------------------------------


    Psi4 started on: Fri Sep  2 11:53:26 2016

    Process ID:   8372
    PSI4DATADIR: /export131/home/mjharvey/miniconda3/share
    Memory level set to 256.000 MB

  ==> Input File <==

--------------------------------------------------------------------------
set {
	reference rhf
	basis 6-31G*
}


set_num_threads( 4 )
memory 2 gb

molecule MOL {
0 1

H	 2.223544	 -0.275561	 -0.581995
O	 1.586534	 -0.678666	 -0.000226
C	 0.489431	 0.077273	 0.000046
C	 -0.764129	 -0.759190	 0.000191
O	 0.537743	 1.263962	 0.000257
C	 -2.038368	 0.075731	 -0.000248
H	 -0.717284	 -1.412404	 -0.866059
H	 -0.717458	 -1.411724	 0.866967
H	 -2.086483	 0.712501	 -0.875098
H	 -2.908485	 -0.571682	 -0.000042
H	 -2.086576	 0.713280	 0.874068

	symmetry c1
}
set optking {
	frozen_dihedral = ("
		1 2 3 5
	")
}

ee = optimize('scf')
oeprop('DIPOLE', 'QUADRUPOLE', 'MULLIKEN_CHARGES')
f=open( 'psi4out.xyz', 'w' )
f.write( "11  " )
f.write( str(ee) + "\n" )
f.write( MOL.save_string_xyz() )
f.close()
--------------------------------------------------------------------------

  Memory set to   2.000 GiB by Python script.
gradient() will perform analytic gradient computation.

*** tstart() called on cx1-5-5-4.cx1.hpc.ic.ac.uk
*** at Fri Sep  2 11:53:26 2016


         ---------------------------------------------------------
                                   SCF
            by Justin Turney, Rob Parrish, and Andy Simmonett
                              RHF Reference
                        4 Threads,   2000 MiB Core
         ---------------------------------------------------------

  ==> Geometry <==

    Molecular point group: c1
    Full point group: C1

    Geometry (in Angstrom), charge = 0, multiplicity = 1:

       Center              X                  Y                   Z               Mass       
    ------------   -----------------  -----------------  -----------------  -----------------
           H          2.225180290309    -0.273188743023    -0.574075279896     1.007825032070
           O          1.588170290309    -0.676293743023     0.007693720104    15.994914619560
           C          0.491067290309     0.079645256977     0.007965720104    12.000000000000
           C         -0.762492709691    -0.756817743023     0.008110720104    12.000000000000
           O          0.539379290309     1.266334256977     0.008176720104    15.994914619560
           C         -2.036731709691     0.078103256977     0.007671720104    12.000000000000
           H         -0.715647709691    -1.410031743023    -0.858139279896     1.007825032070
           H         -0.715821709691    -1.409351743023     0.874886720104     1.007825032070
           H         -2.084846709691     0.714873256977    -0.867178279896     1.007825032070
           H         -2.906848709691    -0.569309743023     0.007877720104     1.007825032070
           H         -2.084939709691     0.715652256977     0.881987720104     1.007825032070

  Running in c1 symmetry.

  Rotational constants: A =      0.34545  B =      0.12835  C =      0.09723 [cm^-1]
  Rotational constants: A =  10356.35230  B =   3847.74397  C =   2914.73301 [MHz]
  Nuclear repulsion =  179.771109346719300

  Charge       = 0
  Multiplicity = 1
  Electrons    = 40
  Nalpha       = 20
  Nbeta        = 20

  ==> Algorithm <==

  SCF Algorithm Type is DF.
  DIIS enabled.
  MOM disabled.
  Fractional occupation disabled.
  Guess Type is CORE.
  Energy threshold   = 1.00e-08
  Density threshold  = 1.00e-08
  Integral threshold = 0.00e+00

  ==> Primary Basis <==

  Basis Set: 6-31G*
    Number of shells: 42
    Number of basis function: 87
    Number of Cartesian functions: 87
    Spherical Harmonics?: false
    Max angular momentum: 2

  ==> Pre-Iterations <==

   -------------------------------------------------------
    Irrep   Nso     Nmo     Nalpha   Nbeta   Ndocc  Nsocc
   -------------------------------------------------------
     A         87      87       0       0       0       0
   -------------------------------------------------------
    Total      87      87      20      20      20       0
   -------------------------------------------------------

 OEINTS: Overlap, kinetic, potential, dipole, and quadrupole integrals
         stored in file 35.

  ==> Integral Setup <==

  ==> DFJK: Density-Fitted J/K Matrices <==

    J tasked:                  Yes
    K tasked:                  Yes
    wK tasked:                  No
    OpenMP threads:              4
    Integrals threads:           4
    Memory (MB):              1430
    Algorithm:                Core
    Integral Cache:           NONE
    Schwarz Cutoff:          1E-12
    Fitting Condition:       1E-12

   => Auxiliary Basis Set <=

  Basis Set: 
    Number of shells: 174
    Number of basis function: 555
    Number of Cartesian functions: 555
    Spherical Harmonics?: false
    Max angular momentum: 3

  Minimum eigenvalue in the overlap matrix is 3.7522102797E-03.
  Using Symmetric Orthogonalization.
  SCF Guess: Core (One-Electron) Hamiltonian.

  ==> Iterations <==

                           Total Energy        Delta E     RMS |[F,P]|

   @DF-RHF iter   1:  -217.39932248380234   -2.17399e+02   8.18730e-02 
   @DF-RHF iter   2:  -154.70624743262590    6.26931e+01   9.46231e-02 DIIS
   @DF-RHF iter   3:  -249.65210330242792   -9.49459e+01   4.11693e-02 DIIS
   @DF-RHF iter   4:  -238.83298648219659    1.08191e+01   5.84297e-02 DIIS
   @DF-RHF iter   5:  -266.59579588852108   -2.77628e+01   8.05663e-03 DIIS
   @DF-RHF iter   6:  -266.77000414187069   -1.74208e-01   4.74371e-03 DIIS
   @DF-RHF iter   7:  -266.82921034245879   -5.92062e-02   1.21602e-03 DIIS
   @DF-RHF iter   8:  -266.83601161221679   -6.80127e-03   4.98542e-04 DIIS
   @DF-RHF iter   9:  -266.83703250926590   -1.02090e-03   1.69389e-04 DIIS
   @DF-RHF iter  10:  -266.83715814484106   -1.25636e-04   5.77244e-05 DIIS
   @DF-RHF iter  11:  -266.83717793121190   -1.97864e-05   1.75095e-05 DIIS
   @DF-RHF iter  12:  -266.83717950225281   -1.57104e-06   4.55906e-06 DIIS
   @DF-RHF iter  13:  -266.83717961701507   -1.14762e-07   1.06863e-06 DIIS
   @DF-RHF iter  14:  -266.83717962520677   -8.19171e-09   2.32441e-07 DIIS
   @DF-RHF iter  15:  -266.83717962574883   -5.42059e-10   5.01706e-08 DIIS
   @DF-RHF iter  16:  -266.83717962577623   -2.73985e-11   1.67754e-08 DIIS
   @DF-RHF iter  17:  -266.83717962578010   -3.86535e-12   5.72455e-09 DIIS

  ==> Post-Iterations <==

    Orbital Energies (a.u.)
    -----------------------

    Doubly Occupied:                                                      

       1A    -20.607808     2A    -20.555423     3A    -11.381546  
       4A    -11.243737     5A    -11.220010     6A     -1.473661  
       7A     -1.367519     8A     -1.064466     9A     -0.914739  
      10A     -0.802936    11A     -0.705417    12A     -0.687671  
      13A     -0.661880    14A     -0.609157    15A     -0.576007  
      16A     -0.528681    17A     -0.525407    18A     -0.503905  
      19A     -0.481850    20A     -0.445849  

    Virtual:                                                              

      21A      0.182086    22A      0.226104    23A      0.243598  
      24A      0.296976    25A      0.306227    26A      0.319293  
      27A      0.350686    28A      0.401837    29A      0.433140  
      30A      0.501228    31A      0.537068    32A      0.724439  
      33A      0.736337    34A      0.770431    35A      0.786107  
      36A      0.831463    37A      0.909310    38A      0.948473  
      39A      0.968583    40A      0.972326    41A      1.042739  
      42A      1.076189    43A      1.111988    44A      1.123658  
      45A      1.171832    46A      1.177299    47A      1.196311  
      48A      1.221101    49A      1.244945    50A      1.257902  
      51A      1.299249    52A      1.348656    53A      1.388326  
      54A      1.460461    55A      1.620158    56A      1.712935  
      57A      1.775857    58A      1.788534    59A      1.811802  
      60A      2.011293    61A      2.041404    62A      2.071616  
      63A      2.085576    64A      2.128850    65A      2.178700  
      66A      2.262708    67A      2.271241    68A      2.285623  
      69A      2.327739    70A      2.453134    71A      2.570233  
      72A      2.641273    73A      2.664679    74A      2.697561  
      75A      2.763451    76A      2.809247    77A      2.895689  
      78A      3.055115    79A      3.122638    80A      3.272360  
      81A      3.379783    82A      3.495830    83A      4.242537  
      84A      4.511848    85A      4.595325    86A      4.751377  
      87A      4.933904  

    Final Occupation by Irrep:
              A 
    DOCC [    20 ]

  Energy converged.

  @DF-RHF Final Energy:  -266.83717962578010

   => Energetics <=

    Nuclear Repulsion Energy =            179.7711093467192995
    One-Electron Energy =                -720.5012377897849092
    Two-Electron Energy =                 273.8929488172857418
    DFT Exchange-Correlation Energy =       0.0000000000000000
    Empirical Dispersion Energy =           0.0000000000000000
    PCM Polarization Energy =               0.0000000000000000
    EFP Energy =                            0.0000000000000000
    Total Energy =                       -266.8371796257798678

    Alert: EFP and PCM quantities not currently incorporated into SCF psivars.

Properties will be evaluated at   0.000000,   0.000000,   0.000000 Bohr
  ==> Properties <==


Properties computed using the SCF density matrix

  Nuclear Dipole Moment: (a.u.)
     X:    -5.8798      Y:    -2.0890      Z:    -0.5011

  Electronic Dipole Moment: (a.u.)
     X:     5.7877      Y:     1.3412      Z:     0.0790

  Dipole Moment: (a.u.)
     X:    -0.0921      Y:    -0.7477      Z:    -0.4222     Total:     0.8636

  Dipole Moment: (Debye)
     X:    -0.2342      Y:    -1.9006      Z:    -1.0731     Total:     2.1951


  Saving occupied orbitals to File 180.

*** tstop() called on cx1-5-5-4.cx1.hpc.ic.ac.uk at Fri Sep  2 11:53:28 2016
Module time:
	user time   =       5.66 seconds =       0.09 minutes
	system time =       0.09 seconds =       0.00 minutes
	total time  =          2 seconds =       0.03 minutes
Total time:
	user time   =       5.66 seconds =       0.09 minutes
	system time =       0.09 seconds =       0.00 minutes
	total time  =          2 seconds =       0.03 minutes

*** tstart() called on cx1-5-5-4.cx1.hpc.ic.ac.uk
*** at Fri Sep  2 11:53:28 2016


         ------------------------------------------------------------
                                   SCF GRAD                          
                          Rob Parrish, Justin Turney,                
                       Andy Simmonett, and Alex Sokolov              
         ------------------------------------------------------------

  ==> Geometry <==

    Molecular point group: c1
    Full point group: C1

    Geometry (in Angstrom), charge = 0, multiplicity = 1:

       Center              X                  Y                   Z               Mass       
    ------------   -----------------  -----------------  -----------------  -----------------
           H          2.225180290309    -0.273188743023    -0.574075279896     1.007825032070
           O          1.588170290309    -0.676293743023     0.007693720104    15.994914619560
           C          0.491067290309     0.079645256977     0.007965720104    12.000000000000
           C         -0.762492709691    -0.756817743023     0.008110720104    12.000000000000
           O          0.539379290309     1.266334256977     0.008176720104    15.994914619560
           C         -2.036731709691     0.078103256977     0.007671720104    12.000000000000
           H         -0.715647709691    -1.410031743023    -0.858139279896     1.007825032070
           H         -0.715821709691    -1.409351743023     0.874886720104     1.007825032070
           H         -2.084846709691     0.714873256977    -0.867178279896     1.007825032070
           H         -2.906848709691    -0.569309743023     0.007877720104     1.007825032070
           H         -2.084939709691     0.715652256977     0.881987720104     1.007825032070

  Nuclear repulsion =  179.771109346719300

  ==> Basis Set <==

  Basis Set: 6-31G*
    Number of shells: 42
    Number of basis function: 87
    Number of Cartesian functions: 87
    Spherical Harmonics?: false
    Max angular momentum: 2

  ==> DFJKGrad: Density-Fitted SCF Gradients <==

    Gradient:                    1
    J tasked:                  Yes
    K tasked:                  Yes
    wK tasked:                  No
    OpenMP threads:              4
    Integrals threads:           4
    Memory (MB):              1430
    Schwarz Cutoff:          0E+00
    Fitting Condition:       1E-12

   => Auxiliary Basis Set <=

  Basis Set: 
    Number of shells: 174
    Number of basis function: 555
    Number of Cartesian functions: 555
    Spherical Harmonics?: false
    Max angular momentum: 3


  -Total Gradient:
     Atom            X                  Y                   Z
    ------   -----------------  -----------------  -----------------
       1       -0.006029209052    -0.003726026265    -0.010991494526
       2       -0.005003455293     0.010350478080     0.014814731033
       3        0.007444581178    -0.008861894314    -0.004440860559
       4        0.001874180345    -0.002716956925    -0.004302860594
       5        0.001658046195     0.004122613438     0.005607773668
       6        0.000392845051     0.000652317534    -0.000631233341
       7       -0.000762784581    -0.000393947395    -0.000065604270
       8        0.000198934625     0.000763210961    -0.000084533598
       9       -0.000023147998    -0.000049987894     0.000064622702
      10        0.000230293906    -0.000126417100     0.000012683079
      11        0.000019715624    -0.000013390124     0.000016776406


*** tstop() called on cx1-5-5-4.cx1.hpc.ic.ac.uk at Fri Sep  2 11:53:31 2016
Module time:
	user time   =       8.13 seconds =       0.14 minutes
	system time =       0.14 seconds =       0.00 minutes
	total time  =          3 seconds =       0.05 minutes
Total time:
	user time   =      13.80 seconds =       0.23 minutes
	system time =       0.23 seconds =       0.00 minutes
	total time  =          5 seconds =       0.08 minutes
CURRENT ENERGY: -266.8371796258

			-----------------------------------------
			 OPTKING 2.0: for geometry optimizations 
			  - R.A. King,  Bethel University        
			-----------------------------------------

	Internal coordinates to be generated automatically.
	Detected frag with atoms:  1 2 3 4 5 6 7 8 9 10 11
	---Fragment 1 Bond Connectivity---
	 1 : 2
	 2 : 1 3
	 3 : 2 4 5
	 4 : 3 6 7 8
	 5 : 3
	 6 : 4 9 10 11
	 7 : 4
	 8 : 4
	 9 : 6
	 10 : 6
	 11 : 6

	Assuming in current code that numbering for constraints corresponds to unified fragment.
	Frozen dihedral atom list: 
	     1     2     3     5
	---Fragment 1 Geometry and Gradient---
	 H           4.2049813450       -0.5162519069       -1.0848450587
	 O           3.0012069011       -1.2780099597        0.0145390239
	 C           0.9279826915        0.1505077235        0.0150530294
	 C          -1.4409023996       -1.4301782668        0.0153270397
	 O           1.0192791404        2.3930249384        0.0154517617
	 C          -3.8488651375        0.1475937658        0.0144974500
	 H          -1.3523781789       -2.6645738330       -1.6216482229
	 H          -1.3527069913       -2.6632888192        1.6532962983
	 H          -3.9397893104        1.3509146754       -1.6387294574
	 H          -5.4931479710       -1.0758394991        0.0148867335
	 H          -3.9399650549        1.3523867721        1.6667152436
	            -0.0060292091       -0.0037260263       -0.0109914945
	            -0.0050034553        0.0103504781        0.0148147310
	             0.0074445812       -0.0088618943       -0.0044408606
	             0.0018741803       -0.0027169569       -0.0043028606
	             0.0016580462        0.0041226134        0.0056077737
	             0.0003928451        0.0006523175       -0.0006312333
	            -0.0007627846       -0.0003939474       -0.0000656043
	             0.0001989346        0.0007632110       -0.0000845336
	            -0.0000231480       -0.0000499879        0.0000646227
	             0.0002302939       -0.0001264171        0.0000126831
	             0.0000197156       -0.0000133901        0.0000167764

	Previous optimization step data not found.  Starting new optimization.

	---Fragment 1 Intrafragment Coordinates---
	 - Coordinate -           - BOHR/RAD -       - ANG/DEG -
	 R(1,2)           =         1.799443	       0.952224
	 R(2,3)           =         2.517722	       1.332321
	 R(3,4)           =         2.847839	       1.507011
	 R(3,5)           =         2.244375	       1.187672
	 R(4,6)           =         2.878828	       1.523410
	 R(4,7)           =         2.052135	       1.085943
	 R(4,8)           =         2.052141	       1.085946
	 R(6,9)           =         2.046804	       1.083122
	 R(6,10)          =         2.049501	       1.084549
	 R(6,11)          =         2.046863	       1.083153
	 B(1,2,3)         =         1.886830	     108.107404
	 B(2,3,4)         =         1.949846	     111.717925
	 B(2,3,5)         =         2.133434	     122.236768
	 B(3,4,6)         =         1.973129	     113.051941
	 B(3,4,7)         =         1.873300	     107.332211
	 B(3,4,8)         =         1.873236	     107.328510
	 B(4,3,5)         =         2.199906	     126.045306
	 B(4,6,9)         =         1.938631	     111.075358
	 B(4,6,10)        =         1.921865	     110.114737
	 B(4,6,11)        =         1.938620	     111.074760
	 B(6,4,7)         =         1.944988	     111.439606
	 B(6,4,8)         =         1.944968	     111.438469
	 B(7,4,8)         =         1.847722	     105.866691
	 B(9,6,10)        =         1.891735	     108.388434
	 B(9,6,11)        =         1.879644	     107.695693
	 B(10,6,11)       =         1.891782	     108.391128
	 D(1,2,3,4)       =         2.443565	     140.005936
	*D(1,2,3,5)       =        -0.698132	     -39.999997
	 D(2,3,4,6)       =        -3.141057	    -179.969315
	 D(2,3,4,7)       =        -0.989165	     -56.674988
	 D(2,3,4,8)       =         0.990308	      56.740442
	 D(3,4,6,9)       =         1.045926	      59.927135
	 D(3,4,6,10)      =        -3.141512	    -179.995381
	 D(3,4,6,11)      =        -1.045712	     -59.914912
	 D(5,3,4,6)       =         0.000644	       0.036891
	 D(5,3,4,7)       =         2.152536	     123.331218
	 D(5,3,4,8)       =        -2.151177	    -123.253352
	 D(7,4,6,9)       =        -1.065810	     -61.066419
	 D(7,4,6,10)      =         1.029937	      59.011064
	 D(7,4,6,11)      =         3.125737	     179.091533
	 D(8,4,6,9)       =        -3.125622	    -179.084954
	 D(8,4,6,10)      =        -1.029875	     -59.007471
	 D(8,4,6,11)      =         1.065925	      61.072998

	Current energy   :      -266.8371796258

	Generating empirical Hessian (Schlegel '84) for each fragment.
	Taking RFO optimization step.
	Going to follow RFO solution 1.
	Using RFO vector 1.

	Determining step-restricting scale parameter for RS-RFO.
	Maximum step size allowed    0.50000

	 Iter      |step|        alpha        rfo_root  
	------------------------------------------------
	    0     0.58606       1.00000           1
	    1     0.51626       1.50847           1
	    2     0.50078       1.65344           1
	    3     0.50000       1.66106           1
	------------------------------------------------
	Norm of target step-size    0.50000
	Projected energy change by RFO approximation:        -0.0000955838

	Back-transformation to cartesian coordinates...
	Successfully converged to displaced geometry.

	Back-transformation to cartesian coordinates to adjust frozen coordinates...
	Successfully converged to displaced geometry.

	--- Internal Coordinate Step in ANG or DEG, aJ/ANG or AJ/DEG ---
	 ---------------------------------------------------------------------------
	   Coordinate                Previous        Force       Change         New 
	   ----------                --------       ------       ------       ------
	    1 R(1,2)          =      0.952224    -0.009101    -0.001010     0.951214
	    2 R(2,3)          =      1.332321     0.105820     0.011391     1.343712
	    3 R(3,4)          =      1.507011     0.004610     0.000915     1.507926
	    4 R(3,5)          =      1.187672    -0.034501    -0.001979     1.185693
	    5 R(4,6)          =      1.523410     0.002181     0.000456     1.523866
	    6 R(4,7)          =      1.085943    -0.002112    -0.000377     1.085566
	    7 R(4,8)          =      1.085946     0.004264     0.000761     1.086707
	    8 R(6,9)          =      1.083122     0.000664     0.000117     1.083240
	    9 R(6,10)         =      1.084549     0.000900     0.000160     1.084709
	   10 R(6,11)         =      1.083153    -0.000039    -0.000007     1.083146
	   11 B(1,2,3)        =    108.107404     0.000460     2.072257   110.179660
	   12 B(2,3,4)        =    111.717925     0.000182    -0.310464   111.407461
	   13 B(2,3,5)        =    122.236768     0.000036    -0.778302   121.458467
	   14 B(3,4,6)        =    113.051941     0.000101     0.371754   113.423695
	   15 B(3,4,7)        =    107.332211    -0.000094    -0.513885   106.818326
	   16 B(3,4,8)        =    107.328510     0.000002     0.167333   107.495842
	   17 B(4,3,5)        =    126.045306    -0.000218    -1.472965   124.572341
	   18 B(4,6,9)        =    111.075358    -0.000008    -0.046865   111.028493
	   19 B(4,6,10)       =    110.114737     0.000027     0.138673   110.253410
	   20 B(4,6,11)       =    111.074760    -0.000001    -0.010173   111.064586
	   21 B(6,4,7)        =    111.439606     0.000031     0.200700   111.640305
	   22 B(6,4,8)        =    111.438469    -0.000052    -0.136133   111.302336
	   23 B(7,4,8)        =    105.866691     0.000003    -0.135605   105.731086
	   24 B(9,6,10)       =    108.388434    -0.000009    -0.029512   108.358922
	   25 B(9,6,11)       =    107.695693    -0.000000    -0.030126   107.665567
	   26 B(10,6,11)      =    108.391128    -0.000010    -0.026147   108.364981
	   27 D(1,2,3,4)      =    140.005936     0.000078    17.368723   157.374658
	   28 *D(1,2,3,5)     =    -39.999997    -0.000000     0.000000   -39.999997
	   29 D(2,3,4,6)      =   -179.969315    -0.000049   -10.613288  -190.582603
	   30 D(2,3,4,7)      =    -56.674988    -0.000041   -10.485123   -67.160111
	   31 D(2,3,4,8)      =     56.740442    -0.000050   -10.805582    45.934860
	   32 D(3,4,6,9)      =     59.927135    -0.000006    -0.272041    59.655095
	   33 D(3,4,6,10)     =   -179.995381    -0.000005    -0.248130  -180.243511
	   34 D(3,4,6,11)     =    -59.914912    -0.000004    -0.196160   -60.111072
	   35 D(5,3,4,6)      =      0.036891     0.000033     7.400956     7.437847
	   36 D(5,3,4,7)      =    123.331218     0.000042     7.529121   130.860339
	   37 D(5,3,4,8)      =   -123.253352     0.000032     7.208662  -116.044690
	   38 D(7,4,6,9)      =    -61.066419     0.000001    -0.016563   -61.082982
	   39 D(7,4,6,10)     =     59.011064     0.000001     0.007347    59.018412
	   40 D(7,4,6,11)     =    179.091533     0.000002     0.059318   179.150851
	   41 D(8,4,6,9)      =   -179.084954     0.000003     0.112124  -178.972830
	   42 D(8,4,6,10)     =    -59.007471     0.000003     0.136035   -58.871436
	   43 D(8,4,6,11)     =     61.072998     0.000004     0.188005    61.261003
	 ---------------------------------------------------------------------------

  ==> Convergence Check <==

  Measures of convergence in internal coordinates in au.
  Criteria marked as inactive (o), active & met (*), and active & unmet ( ).
  --------------------------------------------------------------------------------------------- ~
   Step     Total Energy     Delta E     MAX Force     RMS Force      MAX Disp      RMS Disp    ~
  --------------------------------------------------------------------------------------------- ~
    Convergence Criteria    1.00e-06 *    3.00e-04 *             o    1.20e-03 *             o  ~
  --------------------------------------------------------------------------------------------- ~
      1    -266.83717963   -2.67e+02      1.28e-02      2.61e-03 o    3.03e-01      7.59e-02 o  ~
  ---------------------------------------------------------------------------------------------

	Writing optimization data to binary file.
	Structure for next step:
	Cartesian Geometry (in Angstrom)
	    H     2.3342569424  -0.2574871153  -0.3737503716
	    O     1.5809532890  -0.6829643143   0.0216119280
	    C     0.4819394893   0.0720886081  -0.1445988103
	    C    -0.7745926105  -0.7557677990  -0.0465017712
	    O     0.5200978845   1.2523481086  -0.0378294549
	    C    -2.0465004632   0.0801932867   0.0282400656
	    H    -0.7814981198  -1.4192182678  -0.9057103907
	    H    -0.6741523141  -1.4003143296   0.8226381990
	    H    -2.1513059977   0.7076807295  -0.8485057968
	    H    -2.9163683949  -0.5645916668   0.0928662360
	    H    -2.0363620052   0.7276474157   0.8965180503
			--------------------------
			 OPTKING Finished Execution 
			--------------------------

    Structure for next step:
    Molecular point group: c1
    Full point group: C1

    Geometry (in Angstrom), charge = 0, multiplicity = 1:

    H            2.344222796037    -0.252649863116    -0.339549229507
    O            1.590919200110    -0.678127029595     0.055813039898
    C            0.491905484378     0.076925835169    -0.110397685654
    C           -0.764626519498    -0.750930508754    -0.012300654072
    O            0.530063876682     1.257185245510    -0.003628338437
    C           -2.036534275090     0.085030513089     0.062441177005
    H           -0.771532028257    -1.414380926894    -0.871509207943
    H           -0.664186230724    -1.395476990079     0.856839249724
    H           -2.141339801580     0.712517907962    -0.814304618458
    H           -2.906402140284    -0.559754391162     0.127067342514
    H           -2.026395817786     0.732484592656     0.930719095466

gradient() will perform analytic gradient computation.

*** tstart() called on cx1-5-5-4.cx1.hpc.ic.ac.uk
*** at Fri Sep  2 11:53:31 2016


         ---------------------------------------------------------
                                   SCF
            by Justin Turney, Rob Parrish, and Andy Simmonett
                              RHF Reference
                        4 Threads,   2000 MiB Core
         ---------------------------------------------------------

  ==> Geometry <==

    Molecular point group: c1
    Full point group: C1

    Geometry (in Angstrom), charge = 0, multiplicity = 1:

       Center              X                  Y                   Z               Mass       
    ------------   -----------------  -----------------  -----------------  -----------------
           H          2.344222796037    -0.252649863116    -0.339549229507     1.007825032070
           O          1.590919200110    -0.678127029595     0.055813039898    15.994914619560
           C          0.491905484378     0.076925835169    -0.110397685654    12.000000000000
           C         -0.764626519498    -0.750930508754    -0.012300654072    12.000000000000
           O          0.530063876682     1.257185245510    -0.003628338437    15.994914619560
           C         -2.036534275090     0.085030513089     0.062441177005    12.000000000000
           H         -0.771532028257    -1.414380926894    -0.871509207943     1.007825032070
           H         -0.664186230724    -1.395476990079     0.856839249724     1.007825032070
           H         -2.141339801580     0.712517907962    -0.814304618458     1.007825032070
           H         -2.906402140284    -0.559754391162     0.127067342514     1.007825032070
           H         -2.026395817786     0.732484592656     0.930719095466     1.007825032070

  Running in c1 symmetry.

  Rotational constants: A =      0.34868  B =      0.12775  C =      0.09715 [cm^-1]
  Rotational constants: A =  10453.11667  B =   3829.76419  C =   2912.38265 [MHz]
  Nuclear repulsion =  179.613607154802253

  Charge       = 0
  Multiplicity = 1
  Electrons    = 40
  Nalpha       = 20
  Nbeta        = 20

  ==> Algorithm <==

  SCF Algorithm Type is DF.
  DIIS enabled.
  MOM disabled.
  Fractional occupation disabled.
  Guess Type is READ.
  Energy threshold   = 1.00e-08
  Density threshold  = 1.00e-08
  Integral threshold = 0.00e+00

  ==> Primary Basis <==

  Basis Set: 6-31G*
    Number of shells: 42
    Number of basis function: 87
    Number of Cartesian functions: 87
    Spherical Harmonics?: false
    Max angular momentum: 2

  ==> Pre-Iterations <==

   -------------------------------------------------------
    Irrep   Nso     Nmo     Nalpha   Nbeta   Ndocc  Nsocc
   -------------------------------------------------------
     A         87      87       0       0       0       0
   -------------------------------------------------------
    Total      87      87      20      20      20       0
   -------------------------------------------------------

 OEINTS: Overlap, kinetic, potential, dipole, and quadrupole integrals
         stored in file 35.

  ==> Integral Setup <==

  ==> DFJK: Density-Fitted J/K Matrices <==

    J tasked:                  Yes
    K tasked:                  Yes
    wK tasked:                  No
    OpenMP threads:              4
    Integrals threads:           4
    Memory (MB):              1430
    Algorithm:                Core
    Integral Cache:           NONE
    Schwarz Cutoff:          1E-12
    Fitting Condition:       1E-12

   => Auxiliary Basis Set <=

  Basis Set: 
    Number of shells: 174
    Number of basis function: 555
    Number of Cartesian functions: 555
    Spherical Harmonics?: false
    Max angular momentum: 3

  Minimum eigenvalue in the overlap matrix is 3.9881747512E-03.
  Using Symmetric Orthogonalization.
  SCF Guess: Reading in previously saved MOs, projecting if necessary.

  Using orbitals from previous SCF, no projection.
  Recomputing DOCC and SOCC from number of alpha and beta electrons from previous calculation.
              A 
    DOCC [    20 ]

  ==> Iterations <==

                           Total Energy        Delta E     RMS |[F,P]|

   @DF-RHF iter   0:  -266.79347008451225   -2.66793e+02   3.12002e-03 
   @DF-RHF iter   1:  -266.83204937749235   -3.85793e-02   5.65164e-04 
   @DF-RHF iter   2:  -266.83423893651832   -2.18956e-03   2.20628e-04 DIIS
   @DF-RHF iter   3:  -266.83461450419924   -3.75568e-04   1.08413e-04 DIIS
   @DF-RHF iter   4:  -266.83468763313135   -7.31289e-05   3.23207e-05 DIIS
   @DF-RHF iter   5:  -266.83469669681455   -9.06368e-06   1.57666e-05 DIIS
   @DF-RHF iter   6:  -266.83470024745725   -3.55064e-06   5.16480e-06 DIIS
   @DF-RHF iter   7:  -266.83470065120741   -4.03750e-07   2.49411e-06 DIIS
   @DF-RHF iter   8:  -266.83470074234805   -9.11406e-08   9.14515e-07 DIIS
   @DF-RHF iter   9:  -266.83470075749432   -1.51463e-08   2.22563e-07 DIIS
   @DF-RHF iter  10:  -266.83470075829632   -8.02004e-10   6.03904e-08 DIIS
   @DF-RHF iter  11:  -266.83470075834254   -4.62137e-11   2.08943e-08 DIIS
   @DF-RHF iter  12:  -266.83470075834703   -4.49063e-12   7.34387e-09 DIIS

  ==> Post-Iterations <==

    Orbital Energies (a.u.)
    -----------------------

    Doubly Occupied:                                                      

       1A    -20.607841     2A    -20.555410     3A    -11.381610  
       4A    -11.243287     5A    -11.219766     6A     -1.469537  
       7A     -1.366213     8A     -1.063145     9A     -0.915012  
      10A     -0.801115    11A     -0.703003    12A     -0.685668  
      13A     -0.659557    14A     -0.602633    15A     -0.580105  
      16A     -0.528589    17A     -0.524762    18A     -0.504970  
      19A     -0.479547    20A     -0.444511  

    Virtual:                                                              

      21A      0.179645    22A      0.224911    23A      0.244506  
      24A      0.297325    25A      0.305602    26A      0.320729  
      27A      0.347044    28A      0.402348    29A      0.439111  
      30A      0.503261    31A      0.530943    32A      0.725251  
      33A      0.737598    34A      0.767294    35A      0.783050  
      36A      0.829232    37A      0.903013    38A      0.945722  
      39A      0.960721    40A      0.973647    41A      1.041302  
      42A      1.086351    43A      1.110778    44A      1.125831  
      45A      1.172592    46A      1.180596    47A      1.202327  
      48A      1.222642    49A      1.242885    50A      1.247420  
      51A      1.299363    52A      1.353501    53A      1.392456  
      54A      1.477297    55A      1.613754    56A      1.719235  
      57A      1.781185    58A      1.799228    59A      1.803951  
      60A      2.001078    61A      2.017689    62A      2.059382  
      63A      2.082182    64A      2.131828    65A      2.179234  
      66A      2.257278    67A      2.272206    68A      2.280444  
      69A      2.323540    70A      2.473243    71A      2.565312  
      72A      2.644745    73A      2.659498    74A      2.711313  
      75A      2.719491    76A      2.820461    77A      2.904485  
      78A      3.042394    79A      3.104140    80A      3.264894  
      81A      3.379604    82A      3.474311    83A      4.239496  
      84A      4.470190    85A      4.564205    86A      4.731244  
      87A      4.925184  

    Final Occupation by Irrep:
              A 
    DOCC [    20 ]

  Energy converged.

  @DF-RHF Final Energy:  -266.83470075834703

   => Energetics <=

    Nuclear Repulsion Energy =            179.6136071548022528
    One-Electron Energy =                -720.2240516581504153
    Two-Electron Energy =                 273.7757437450011366
    DFT Exchange-Correlation Energy =       0.0000000000000000
    Empirical Dispersion Energy =           0.0000000000000000
    PCM Polarization Energy =               0.0000000000000000
    EFP Energy =                            0.0000000000000000
    Total Energy =                       -266.8347007583470258

    Alert: EFP and PCM quantities not currently incorporated into SCF psivars.

Properties will be evaluated at   0.000000,   0.000000,   0.000000 Bohr
  ==> Properties <==


Properties computed using the SCF density matrix

  Nuclear Dipole Moment: (a.u.)
     X:    -5.7699      Y:    -2.0383      Z:    -0.1036

  Electronic Dipole Moment: (a.u.)
     X:     5.7631      Y:     1.3300      Z:    -0.2783

  Dipole Moment: (a.u.)
     X:    -0.0068      Y:    -0.7083      Z:    -0.3818     Total:     0.8047

  Dipole Moment: (Debye)
     X:    -0.0173      Y:    -1.8003      Z:    -0.9705     Total:     2.0453


  Saving occupied orbitals to File 180.

*** tstop() called on cx1-5-5-4.cx1.hpc.ic.ac.uk at Fri Sep  2 11:53:34 2016
Module time:
	user time   =       6.75 seconds =       0.11 minutes
	system time =       0.10 seconds =       0.00 minutes
	total time  =          3 seconds =       0.05 minutes
Total time:
	user time   =      21.64 seconds =       0.36 minutes
	system time =       0.38 seconds =       0.01 minutes
	total time  =          8 seconds =       0.13 minutes

*** tstart() called on cx1-5-5-4.cx1.hpc.ic.ac.uk
*** at Fri Sep  2 11:53:34 2016


         ------------------------------------------------------------
                                   SCF GRAD                          
                          Rob Parrish, Justin Turney,                
                       Andy Simmonett, and Alex Sokolov              
         ------------------------------------------------------------

  ==> Geometry <==

    Molecular point group: c1
    Full point group: C1

    Geometry (in Angstrom), charge = 0, multiplicity = 1:

       Center              X                  Y                   Z               Mass       
    ------------   -----------------  -----------------  -----------------  -----------------
           H          2.344222796037    -0.252649863116    -0.339549229507     1.007825032070
           O          1.590919200110    -0.678127029595     0.055813039898    15.994914619560
           C          0.491905484378     0.076925835169    -0.110397685654    12.000000000000
           C         -0.764626519498    -0.750930508754    -0.012300654072    12.000000000000
           O          0.530063876682     1.257185245510    -0.003628338437    15.994914619560
           C         -2.036534275090     0.085030513089     0.062441177005    12.000000000000
           H         -0.771532028257    -1.414380926894    -0.871509207943     1.007825032070
           H         -0.664186230724    -1.395476990079     0.856839249724     1.007825032070
           H         -2.141339801580     0.712517907962    -0.814304618458     1.007825032070
           H         -2.906402140284    -0.559754391162     0.127067342514     1.007825032070
           H         -2.026395817786     0.732484592656     0.930719095466     1.007825032070

  Nuclear repulsion =  179.613607154802253

  ==> Basis Set <==

  Basis Set: 6-31G*
    Number of shells: 42
    Number of basis function: 87
    Number of Cartesian functions: 87
    Spherical Harmonics?: false
    Max angular momentum: 2

  ==> DFJKGrad: Density-Fitted SCF Gradients <==

    Gradient:                    1
    J tasked:                  Yes
    K tasked:                  Yes
    wK tasked:                  No
    OpenMP threads:              4
    Integrals threads:           4
    Memory (MB):              1430
    Schwarz Cutoff:          0E+00
    Fitting Condition:       1E-12

   => Auxiliary Basis Set <=

  Basis Set: 
    Number of shells: 174
    Number of basis function: 555
    Number of Cartesian functions: 555
    Spherical Harmonics?: false
    Max angular momentum: 3


  -Total Gradient:
     Atom            X                  Y                   Z
    ------   -----------------  -----------------  -----------------
       1       -0.001392303984    -0.005145393642    -0.008749329634
       2        0.001605317417     0.009006287423     0.027094635187
       3        0.001094896509    -0.001977615328    -0.057103351115
       4        0.000518316781     0.002653712772     0.012963457905
       5       -0.001393703625    -0.004735586575     0.024172809678
       6       -0.000764283619    -0.000411535804     0.000680655240
       7        0.003146705760     0.002226010143     0.000102462904
       8       -0.002541581835    -0.001853869345     0.000570488463
       9        0.000339808099    -0.000159443820     0.000034450039
      10       -0.000316179339     0.000231399264     0.000154446755
      11       -0.000296992168     0.000166034910     0.000079274576


*** tstop() called on cx1-5-5-4.cx1.hpc.ic.ac.uk at Fri Sep  2 11:53:36 2016
Module time:
	user time   =       8.08 seconds =       0.13 minutes
	system time =       0.14 seconds =       0.00 minutes
	total time  =          2 seconds =       0.03 minutes
Total time:
	user time   =      29.74 seconds =       0.50 minutes
	system time =       0.52 seconds =       0.01 minutes
	total time  =         10 seconds =       0.17 minutes
CURRENT ENERGY: -266.8347007583

			-----------------------------------------
			 OPTKING 2.0: for geometry optimizations 
			  - R.A. King,  Bethel University        
			-----------------------------------------

	Previous internal coordinate definitions found.
	---Fragment 1 Geometry and Gradient---
	 H           4.4299390790       -0.4774390488       -0.6416550524
	 O           3.0064015878       -1.2814743692        0.1054713601
	 C           0.9295666487        0.1453687610       -0.2086213916
	 C          -1.4449347158       -1.4190530064       -0.0232448675
	 O           1.0016755599        2.3757358123       -0.0068565660
	 C          -3.8484920402        0.1606843827        0.1179967240
	 H          -1.4579842362       -2.6727925994       -1.6469137253
	 H          -1.2551300773       -2.6370693360        1.6191915219
	 H          -4.0465457824        1.3464637108       -1.5388127176
	 H          -5.4923040772       -1.0577825010        0.2401224778
	 H          -3.8293331324        1.3841952767        1.7588041971
	            -0.0013923040       -0.0051453936       -0.0087493296
	             0.0016053174        0.0090062874        0.0270946352
	             0.0010948965       -0.0019776153       -0.0571033511
	             0.0005183168        0.0026537128        0.0129634579
	            -0.0013937036       -0.0047355866        0.0241728097
	            -0.0007642836       -0.0004115358        0.0006806552
	             0.0031467058        0.0022260101        0.0001024629
	            -0.0025415818       -0.0018538693        0.0005704885
	             0.0003398081       -0.0001594438        0.0000344500
	            -0.0003161793        0.0002313993        0.0001544468
	            -0.0002969922        0.0001660349        0.0000792746

	---Fragment 1 Intrafragment Coordinates---
	 - Coordinate -           - BOHR/RAD -       - ANG/DEG -
	 R(1,2)           =         1.797534	       0.951214
	 R(2,3)           =         2.539248	       1.343712
	 R(3,4)           =         2.849568	       1.507926
	 R(3,5)           =         2.240635	       1.185693
	 R(4,6)           =         2.879689	       1.523866
	 R(4,7)           =         2.051422	       1.085566
	 R(4,8)           =         2.053579	       1.086707
	 R(6,9)           =         2.047026	       1.083240
	 R(6,10)          =         2.049803	       1.084709
	 R(6,11)          =         2.046850	       1.083146
	 B(1,2,3)         =         1.922998	     110.179660
	 B(2,3,4)         =         1.944427	     111.407461
	 B(2,3,5)         =         2.119850	     121.458467
	 B(3,4,6)         =         1.979617	     113.423695
	 B(3,4,7)         =         1.864331	     106.818326
	 B(3,4,8)         =         1.876156	     107.495842
	 B(4,3,5)         =         2.174198	     124.572341
	 B(4,6,9)         =         1.937813	     111.028493
	 B(4,6,10)        =         1.924285	     110.253410
	 B(4,6,11)        =         1.938443	     111.064586
	 B(6,4,7)         =         1.948491	     111.640305
	 B(6,4,8)         =         1.942592	     111.302336
	 B(7,4,8)         =         1.845356	     105.731086
	 B(9,6,10)        =         1.891220	     108.358922
	 B(9,6,11)        =         1.879119	     107.665567
	 B(10,6,11)       =         1.891326	     108.364981
	 D(1,2,3,4)       =         2.746706	     157.374658
	*D(1,2,3,5)       =        -0.698132	     -39.999997
	 D(2,3,4,6)       =         2.956891	     169.417397
	 D(2,3,4,7)       =        -1.172165	     -67.160111
	 D(2,3,4,8)       =         0.801715	      45.934860
	 D(3,4,6,9)       =         1.041178	      59.655095
	 D(3,4,6,10)      =         3.137343	     179.756489
	 D(3,4,6,11)      =        -1.049136	     -60.111072
	 D(5,3,4,6)       =         0.129815	       7.437847
	 D(5,3,4,7)       =         2.283944	     130.860339
	 D(5,3,4,8)       =        -2.025362	    -116.044690
	 D(7,4,6,9)       =        -1.066099	     -61.082982
	 D(7,4,6,10)      =         1.030066	      59.018412
	 D(7,4,6,11)      =         3.126772	     179.150851
	 D(8,4,6,9)       =        -3.123665	    -178.972830
	 D(8,4,6,10)      =        -1.027500	     -58.871436
	 D(8,4,6,11)      =         1.069206	      61.261003

	Current energy   :      -266.8347007583

	Energy change for the previous step:
		Projected    :        -0.0000955838
		Actual       :         0.0024788674

	Performing BFGS update.
	Previous computed or guess Hessian on step 1.
	Steps to be used in Hessian update: 1
	Taking RFO optimization step.
	Going to follow RFO solution 1.
	Using RFO vector 1.
	Norm of target step-size    0.32183
	Projected energy change by RFO approximation:        -0.0038245245

	Back-transformation to cartesian coordinates...
	Successfully converged to displaced geometry.

	Back-transformation to cartesian coordinates to adjust frozen coordinates...
	Successfully converged to displaced geometry.

	--- Internal Coordinate Step in ANG or DEG, aJ/ANG or AJ/DEG ---
	 ---------------------------------------------------------------------------
	   Coordinate                Previous        Force       Change         New 
	   ----------                --------       ------       ------       ------
	    1 R(1,2)          =      0.951214    -0.001915    -0.000230     0.950985
	    2 R(2,3)          =      1.343712    -0.002257     0.001584     1.345296
	    3 R(3,4)          =      1.507926     0.005673     0.000568     1.508495
	    4 R(3,5)          =      1.185693     0.021273     0.000178     1.185871
	    5 R(4,6)          =      1.523866    -0.006734    -0.000466     1.523399
	    6 R(4,7)          =      1.085566     0.012041     0.000761     1.086327
	    7 R(4,8)          =      1.086707    -0.010883    -0.000625     1.086083
	    8 R(6,9)          =      1.083240     0.001262     0.000103     1.083342
	    9 R(6,10)         =      1.084709    -0.001032    -0.000046     1.084664
	   10 R(6,11)         =      1.083146    -0.001318    -0.000090     1.083057
	   11 B(1,2,3)        =    110.179660    -0.000086     0.188552   110.368213
	   12 B(2,3,4)        =    111.407461    -0.000124     0.596048   112.003508
	   13 B(2,3,5)        =    121.458467     0.000229     0.940963   122.399430
	   14 B(3,4,6)        =    113.423695    -0.000095    -0.060800   113.362895
	   15 B(3,4,7)        =    106.818326     0.000287     0.740378   107.558704
	   16 B(3,4,8)        =    107.495842    -0.000195    -0.637919   106.857923
	   17 B(4,3,5)        =    124.572341     0.000153     0.714094   125.286436
	   18 B(4,6,9)        =    111.028493     0.000050     0.086604   111.115097
	   19 B(4,6,10)       =    110.253410    -0.000044    -0.061329   110.192081
	   20 B(4,6,11)       =    111.064586    -0.000032    -0.056330   111.008256
	   21 B(6,4,7)        =    111.640305    -0.000152    -0.118236   111.522069
	   22 B(6,4,8)        =    111.302336     0.000177     0.119165   111.421500
	   23 B(7,4,8)        =    105.731086    -0.000016    -0.039950   105.691135
	   24 B(9,6,10)       =    108.358922    -0.000003    -0.010458   108.348464
	   25 B(9,6,11)       =    107.665567    -0.000002     0.008054   107.673622
	   26 B(10,6,11)      =    108.364981     0.000032     0.035127   108.400108
	   27 D(1,2,3,4)      =    157.374658    -0.000200   -11.285385   146.089273
	   28 *D(1,2,3,5)     =    -39.999997    -0.000000     0.000000   -39.999997
	   29 D(2,3,4,6)      =    169.417397     0.000113     5.217459   174.634856
	   30 D(2,3,4,7)      =    -67.160111     0.000103     5.563523   -61.596587
	   31 D(2,3,4,8)      =     45.934860     0.000109     5.565570    51.500430
	   32 D(3,4,6,9)      =     59.655095     0.000030     0.529338    60.184433
	   33 D(3,4,6,10)     =    179.756489     0.000030     0.532045   180.288534
	   34 D(3,4,6,11)     =    -60.111072     0.000028     0.499118   -59.611954
	   35 D(5,3,4,6)      =      7.437847    -0.000097    -6.503573     0.934274
	   36 D(5,3,4,7)      =    130.860339    -0.000108    -6.157509   124.702831
	   37 D(5,3,4,8)      =   -116.044690    -0.000102    -6.155462  -122.200152
	   38 D(7,4,6,9)      =    -61.082982    -0.000014    -0.307061   -61.390043
	   39 D(7,4,6,10)     =     59.018412    -0.000015    -0.304354    58.714058
	   40 D(7,4,6,11)     =    179.150851    -0.000017    -0.337280   178.813570
	   41 D(8,4,6,9)      =   -178.972830    -0.000014    -0.257750  -179.230581
	   42 D(8,4,6,10)     =    -58.871436    -0.000014    -0.255044   -59.126479
	   43 D(8,4,6,11)     =     61.261003    -0.000016    -0.287970    60.973033
	 ---------------------------------------------------------------------------

  ==> Convergence Check <==

  Measures of convergence in internal coordinates in au.
  Criteria marked as inactive (o), active & met (*), and active & unmet ( ).
  ---------------------------------------------------------------------------------------------
   Step     Total Energy     Delta E     MAX Force     RMS Force      MAX Disp      RMS Disp   
  ---------------------------------------------------------------------------------------------
    Convergence Criteria    1.00e-06 *    3.00e-04 *             o    1.20e-03 *             o
  ---------------------------------------------------------------------------------------------
      2    -266.83470076    2.48e-03      1.14e-02      3.14e-03 o    1.97e-01      4.90e-02 o  ~
  ---------------------------------------------------------------------------------------------

	Writing optimization data to binary file.
	Structure for next step:
	Cartesian Geometry (in Angstrom)
	    H     2.3083228724  -0.2828427754  -0.4485369005
	    O     1.6057778043  -0.6696735014   0.0625054133
	    C     0.4962021994   0.0866412346  -0.0190508790
	    C    -0.7601306331  -0.7477095880   0.0132357078
	    O     0.5321652273   1.2717982563   0.0009511039
	    C    -2.0363112094   0.0832484396   0.0534558326
	    H    -0.7394913402  -1.4047782302  -0.8516006772
	    H    -0.6834725654  -1.3990887198   0.8789171845
	    H    -2.1143137385   0.7211429124  -0.8186890200
	    H    -2.9049602942  -0.5657569409   0.0805889788
	    H    -2.0576942638   0.7198431308   0.9294134173
			--------------------------
			 OPTKING Finished Execution 
			--------------------------

    Structure for next step:
    Molecular point group: c1
    Full point group: C1

    Geometry (in Angstrom), charge = 0, multiplicity = 1:

    H            2.303550991595    -0.289168116934    -0.466838085921
    O            1.601005977150    -0.675998813335     0.044204188919
    C            0.491430456949     0.080315864864    -0.037352097183
    C           -0.764902279545    -0.754034894026    -0.005065512848
    O            0.527393482090     1.265472796060    -0.017350115818
    C           -2.041082758446     0.076923070112     0.035154608900
    H           -0.744262988301    -1.411103486064    -0.869901831756
    H           -0.688244217714    -1.405413976113     0.860615897706
    H           -2.119085281589     0.714817494194    -0.836990177158
    H           -2.909731776874    -0.572082260831     0.062287753046
    H           -2.062465811149     0.713517712701     0.911112126656

gradient() will perform analytic gradient computation.

*** tstart() called on cx1-5-5-4.cx1.hpc.ic.ac.uk
*** at Fri Sep  2 11:53:37 2016


         ---------------------------------------------------------
                                   SCF
            by Justin Turney, Rob Parrish, and Andy Simmonett
                              RHF Reference
                        4 Threads,   2000 MiB Core
         ---------------------------------------------------------

  ==> Geometry <==

    Molecular point group: c1
    Full point group: C1

    Geometry (in Angstrom), charge = 0, multiplicity = 1:

       Center              X                  Y                   Z               Mass       
    ------------   -----------------  -----------------  -----------------  -----------------
           H          2.303550991595    -0.289168116934    -0.466838085921     1.007825032070
           O          1.601005977150    -0.675998813335     0.044204188919    15.994914619560
           C          0.491430456949     0.080315864864    -0.037352097183    12.000000000000
           C         -0.764902279545    -0.754034894026    -0.005065512848    12.000000000000
           O          0.527393482090     1.265472796060    -0.017350115818    15.994914619560
           C         -2.041082758446     0.076923070112     0.035154608900    12.000000000000
           H         -0.744262988301    -1.411103486064    -0.869901831756     1.007825032070
           H         -0.688244217714    -1.405413976113     0.860615897706     1.007825032070
           H         -2.119085281589     0.714817494194    -0.836990177158     1.007825032070
           H         -2.909731776874    -0.572082260831     0.062287753046     1.007825032070
           H         -2.062465811149     0.713517712701     0.911112126656     1.007825032070

  Running in c1 symmetry.

  Rotational constants: A =      0.34652  B =      0.12729  C =      0.09663 [cm^-1]
  Rotational constants: A =  10388.27560  B =   3816.03631  C =   2897.04260 [MHz]
  Nuclear repulsion =  179.339203953802638

  Charge       = 0
  Multiplicity = 1
  Electrons    = 40
  Nalpha       = 20
  Nbeta        = 20

  ==> Algorithm <==

  SCF Algorithm Type is DF.
  DIIS enabled.
  MOM disabled.
  Fractional occupation disabled.
  Guess Type is READ.
  Energy threshold   = 1.00e-08
  Density threshold  = 1.00e-08
  Integral threshold = 0.00e+00

  ==> Primary Basis <==

  Basis Set: 6-31G*
    Number of shells: 42
    Number of basis function: 87
    Number of Cartesian functions: 87
    Spherical Harmonics?: false
    Max angular momentum: 2

  ==> Pre-Iterations <==

   -------------------------------------------------------
    Irrep   Nso     Nmo     Nalpha   Nbeta   Ndocc  Nsocc
   -------------------------------------------------------
     A         87      87       0       0       0       0
   -------------------------------------------------------
    Total      87      87      20      20      20       0
   -------------------------------------------------------

 OEINTS: Overlap, kinetic, potential, dipole, and quadrupole integrals
         stored in file 35.

  ==> Integral Setup <==

  ==> DFJK: Density-Fitted J/K Matrices <==

    J tasked:                  Yes
    K tasked:                  Yes
    wK tasked:                  No
    OpenMP threads:              4
    Integrals threads:           4
    Memory (MB):              1430
    Algorithm:                Core
    Integral Cache:           NONE
    Schwarz Cutoff:          1E-12
    Fitting Condition:       1E-12

   => Auxiliary Basis Set <=

  Basis Set: 
    Number of shells: 174
    Number of basis function: 555
    Number of Cartesian functions: 555
    Spherical Harmonics?: false
    Max angular momentum: 3

  Minimum eigenvalue in the overlap matrix is 3.8188676149E-03.
  Using Symmetric Orthogonalization.
  SCF Guess: Reading in previously saved MOs, projecting if necessary.

  Using orbitals from previous SCF, no projection.
  Recomputing DOCC and SOCC from number of alpha and beta electrons from previous calculation.
              A 
    DOCC [    20 ]

  ==> Iterations <==

                           Total Energy        Delta E     RMS |[F,P]|

   @DF-RHF iter   0:  -266.81860480834951   -2.66819e+02   2.04458e-03 
   @DF-RHF iter   1:  -266.83689873447804   -1.82939e-02   3.49888e-04 
   @DF-RHF iter   2:  -266.83776764571098   -8.68911e-04   1.35164e-04 DIIS
   @DF-RHF iter   3:  -266.83791944177835   -1.51796e-04   5.90760e-05 DIIS
   @DF-RHF iter   4:  -266.83794197182681   -2.25300e-05   1.70313e-05 DIIS
   @DF-RHF iter   5:  -266.83794505098660   -3.07916e-06   8.33637e-06 DIIS
   @DF-RHF iter   6:  -266.83794588217256   -8.31186e-07   2.76573e-06 DIIS
   @DF-RHF iter   7:  -266.83794598136114   -9.91886e-08   1.38807e-06 DIIS
   @DF-RHF iter   8:  -266.83794600401757   -2.26564e-08   5.41088e-07 DIIS
   @DF-RHF iter   9:  -266.83794600953422   -5.51665e-09   1.45574e-07 DIIS
   @DF-RHF iter  10:  -266.83794600991121   -3.76986e-10   3.92185e-08 DIIS
   @DF-RHF iter  11:  -266.83794600993235   -2.11458e-11   1.29162e-08 DIIS
   @DF-RHF iter  12:  -266.83794600993463   -2.27374e-12   4.45722e-09 DIIS

  ==> Post-Iterations <==

    Orbital Energies (a.u.)
    -----------------------

    Doubly Occupied:                                                      

       1A    -20.606987     2A    -20.556138     3A    -11.382504  
       4A    -11.243828     5A    -11.220147     6A     -1.467984  
       7A     -1.367128     8A     -1.063722     9A     -0.914707  
      10A     -0.802526    11A     -0.704048    12A     -0.685061  
      13A     -0.659138    14A     -0.606102    15A     -0.576836  
      16A     -0.528918    17A     -0.525219    18A     -0.504511  
      19A     -0.481826    20A     -0.445285  

    Virtual:                                                              

      21A      0.184399    22A      0.224488    23A      0.243264  
      24A      0.297053    25A      0.306163    26A      0.319412  
      27A      0.349668    28A      0.401892    29A      0.432342  
      30A      0.500130    31A      0.533749    32A      0.724930  
      33A      0.736560    34A      0.768787    35A      0.783893  
      36A      0.830078    37A      0.909825    38A      0.950560  
      39A      0.966988    40A      0.967805    41A      1.040028  
      42A      1.083535    43A      1.112308    44A      1.123544  
      45A      1.173782    46A      1.177575    47A      1.199491  
      48A      1.222875    49A      1.245563    50A      1.253184  
      51A      1.296518    52A      1.347387    53A      1.389982  
      54A      1.470881    55A      1.620312    56A      1.720437  
      57A      1.777358    58A      1.789633    59A      1.808208  
      60A      2.010799    61A      2.033692    62A      2.072645  
      63A      2.080655    64A      2.128269    65A      2.178525  
      66A      2.257636    67A      2.265800    68A      2.282114  
      69A      2.321750    70A      2.452941    71A      2.564671  
      72A      2.640776    73A      2.663296    74A      2.707170  
      75A      2.748635    76A      2.802422    77A      2.893985  
      78A      3.057837    79A      3.107534    80A      3.271337  
      81A      3.379357    82A      3.486218    83A      4.239579  
      84A      4.501912    85A      4.587186    86A      4.749609  
      87A      4.932020  

    Final Occupation by Irrep:
              A 
    DOCC [    20 ]

  Energy converged.

  @DF-RHF Final Energy:  -266.83794600993463

   => Energetics <=

    Nuclear Repulsion Energy =            179.3392039538026381
    One-Electron Energy =                -719.6690660364808991
    Two-Electron Energy =                 273.4919160727437202
    DFT Exchange-Correlation Energy =       0.0000000000000000
    Empirical Dispersion Energy =           0.0000000000000000
    PCM Polarization Energy =               0.0000000000000000
    EFP Energy =                            0.0000000000000000
    Total Energy =                       -266.8379460099345124

    Alert: EFP and PCM quantities not currently incorporated into SCF psivars.

Properties will be evaluated at   0.000000,   0.000000,   0.000000 Bohr
  ==> Properties <==


Properties computed using the SCF density matrix

  Nuclear Dipole Moment: (a.u.)
     X:    -5.8211      Y:    -2.1059      Z:    -0.3183

  Electronic Dipole Moment: (a.u.)
     X:     5.7727      Y:     1.3677      Z:    -0.0808

  Dipole Moment: (a.u.)
     X:    -0.0483      Y:    -0.7382      Z:    -0.3991     Total:     0.8406

  Dipole Moment: (Debye)
     X:    -0.1229      Y:    -1.8764      Z:    -1.0145     Total:     2.1367


  Saving occupied orbitals to File 180.

*** tstop() called on cx1-5-5-4.cx1.hpc.ic.ac.uk at Fri Sep  2 11:53:39 2016
Module time:
	user time   =       6.75 seconds =       0.11 minutes
	system time =       0.09 seconds =       0.00 minutes
	total time  =          2 seconds =       0.03 minutes
Total time:
	user time   =      37.04 seconds =       0.62 minutes
	system time =       0.62 seconds =       0.01 minutes
	total time  =         13 seconds =       0.22 minutes

*** tstart() called on cx1-5-5-4.cx1.hpc.ic.ac.uk
*** at Fri Sep  2 11:53:39 2016


         ------------------------------------------------------------
                                   SCF GRAD                          
                          Rob Parrish, Justin Turney,                
                       Andy Simmonett, and Alex Sokolov              
         ------------------------------------------------------------

  ==> Geometry <==

    Molecular point group: c1
    Full point group: C1

    Geometry (in Angstrom), charge = 0, multiplicity = 1:

       Center              X                  Y                   Z               Mass       
    ------------   -----------------  -----------------  -----------------  -----------------
           H          2.303550991595    -0.289168116934    -0.466838085921     1.007825032070
           O          1.601005977150    -0.675998813335     0.044204188919    15.994914619560
           C          0.491430456949     0.080315864864    -0.037352097183    12.000000000000
           C         -0.764902279545    -0.754034894026    -0.005065512848    12.000000000000
           O          0.527393482090     1.265472796060    -0.017350115818    15.994914619560
           C         -2.041082758446     0.076923070112     0.035154608900    12.000000000000
           H         -0.744262988301    -1.411103486064    -0.869901831756     1.007825032070
           H         -0.688244217714    -1.405413976113     0.860615897706     1.007825032070
           H         -2.119085281589     0.714817494194    -0.836990177158     1.007825032070
           H         -2.909731776874    -0.572082260831     0.062287753046     1.007825032070
           H         -2.062465811149     0.713517712701     0.911112126656     1.007825032070

  Nuclear repulsion =  179.339203953802638

  ==> Basis Set <==

  Basis Set: 6-31G*
    Number of shells: 42
    Number of basis function: 87
    Number of Cartesian functions: 87
    Spherical Harmonics?: false
    Max angular momentum: 2

  ==> DFJKGrad: Density-Fitted SCF Gradients <==

    Gradient:                    1
    J tasked:                  Yes
    K tasked:                  Yes
    wK tasked:                  No
    OpenMP threads:              4
    Integrals threads:           4
    Memory (MB):              1430
    Schwarz Cutoff:          0E+00
    Fitting Condition:       1E-12

   => Auxiliary Basis Set <=

  Basis Set: 
    Number of shells: 174
    Number of basis function: 555
    Number of Cartesian functions: 555
    Spherical Harmonics?: false
    Max angular momentum: 3


  -Total Gradient:
     Atom            X                  Y                   Z
    ------   -----------------  -----------------  -----------------
       1       -0.002360907302    -0.006617730820    -0.009076574407
       2        0.005672001025     0.008082994225     0.016584648501
       3       -0.000141305869    -0.003971780773    -0.019731181033
       4       -0.001365085543     0.000736865177     0.000664262783
       5       -0.001303958624     0.001735690319     0.011500616095
       6       -0.000400772671    -0.000276579277     0.000098308821
       7        0.000006768849    -0.000045826056     0.000039040010
       8        0.000018001111     0.000273680287    -0.000011595007
       9       -0.000013321890     0.000014322898    -0.000037828029
      10       -0.000152630918     0.000091672159     0.000002119658
      11        0.000041211825    -0.000023308140    -0.000031817392


*** tstop() called on cx1-5-5-4.cx1.hpc.ic.ac.uk at Fri Sep  2 11:53:42 2016
Module time:
	user time   =       8.33 seconds =       0.14 minutes
	system time =       0.14 seconds =       0.00 minutes
	total time  =          3 seconds =       0.05 minutes
Total time:
	user time   =      45.39 seconds =       0.76 minutes
	system time =       0.76 seconds =       0.01 minutes
	total time  =         16 seconds =       0.27 minutes
CURRENT ENERGY: -266.8379460099

			-----------------------------------------
			 OPTKING 2.0: for geometry optimizations 
			  - R.A. King,  Bethel University        
			-----------------------------------------

	Previous internal coordinate definitions found.
	---Fragment 1 Geometry and Gradient---
	 H           4.3530805073       -0.5464485474       -0.8821961308
	 O           3.0254628339       -1.2774526234        0.0835338110
	 C           0.9286689770        0.1517749887       -0.0705852342
	 C          -1.4454558268       -1.4249194443       -0.0095724320
	 O           0.9966292454        2.3913970132       -0.0327869673
	 C          -3.8570874280        0.1453635358        0.0664325831
	 H          -1.4064532187       -2.6665991338       -1.6438762245
	 H          -1.3005930840       -2.6558475182        1.6263283523
	 H          -4.0044908344        1.3508092990       -1.5816822107
	 H          -5.4985961784       -1.0810787985        0.1177067947
	 H          -3.8974955415        1.3483530680        1.7217523957
	            -0.0023609073       -0.0066177308       -0.0090765744
	             0.0056720010        0.0080829942        0.0165846485
	            -0.0001413059       -0.0039717808       -0.0197311810
	            -0.0013650855        0.0007368652        0.0006642628
	            -0.0013039586        0.0017356903        0.0115006161
	            -0.0004007727       -0.0002765793        0.0000983088
	             0.0000067688       -0.0000458261        0.0000390400
	             0.0000180011        0.0002736803       -0.0000115950
	            -0.0000133219        0.0000143229       -0.0000378280
	            -0.0001526309        0.0000916722        0.0000021197
	             0.0000412118       -0.0000233081       -0.0000318174

	---Fragment 1 Intrafragment Coordinates---
	 - Coordinate -           - BOHR/RAD -       - ANG/DEG -
	 R(1,2)           =         1.797100	       0.950985
	 R(2,3)           =         2.542241	       1.345296
	 R(3,4)           =         2.850641	       1.508495
	 R(3,5)           =         2.240972	       1.185871
	 R(4,6)           =         2.878807	       1.523399
	 R(4,7)           =         2.052861	       1.086327
	 R(4,8)           =         2.052399	       1.086083
	 R(6,9)           =         2.047220	       1.083342
	 R(6,10)          =         2.049717	       1.084664
	 R(6,11)          =         2.046680	       1.083057
	 B(1,2,3)         =         1.926289	     110.368213
	 B(2,3,4)         =         1.954830	     112.003508
	 B(2,3,5)         =         2.136273	     122.399430
	 B(3,4,6)         =         1.978556	     113.362895
	 B(3,4,7)         =         1.877254	     107.558704
	 B(3,4,8)         =         1.865023	     106.857923
	 B(4,3,5)         =         2.186661	     125.286436
	 B(4,6,9)         =         1.939324	     111.115097
	 B(4,6,10)        =         1.923215	     110.192081
	 B(4,6,11)        =         1.937460	     111.008256
	 B(6,4,7)         =         1.946427	     111.522069
	 B(6,4,8)         =         1.944672	     111.421500
	 B(7,4,8)         =         1.844658	     105.691135
	 B(9,6,10)        =         1.891037	     108.348464
	 B(9,6,11)        =         1.879259	     107.673622
	 B(10,6,11)       =         1.891939	     108.400108
	 D(1,2,3,4)       =         2.549739	     146.089273
	*D(1,2,3,5)       =        -0.698132	     -39.999997
	 D(2,3,4,6)       =         3.047953	     174.634856
	 D(2,3,4,7)       =        -1.075063	     -61.596587
	 D(2,3,4,8)       =         0.898852	      51.500430
	 D(3,4,6,9)       =         1.050417	      60.184433
	 D(3,4,6,10)      =        -3.136557	    -179.711466
	 D(3,4,6,11)      =        -1.040425	     -59.611954
	 D(5,3,4,6)       =         0.016306	       0.934274
	 D(5,3,4,7)       =         2.176475	     124.702831
	 D(5,3,4,8)       =        -2.132795	    -122.200152
	 D(7,4,6,9)       =        -1.071458	     -61.390043
	 D(7,4,6,10)      =         1.024754	      58.714058
	 D(7,4,6,11)      =         3.120886	     178.813570
	 D(8,4,6,9)       =        -3.128164	    -179.230581
	 D(8,4,6,10)      =        -1.031952	     -59.126479
	 D(8,4,6,11)      =         1.064180	      60.973033

	Current energy   :      -266.8379460099

	Energy change for the previous step:
		Projected    :        -0.0038245245
		Actual       :        -0.0032452516
	Energy ratio indicates good step: Trust radius increased to 1.000e+00.


	Performing BFGS update.
	Previous computed or guess Hessian on step 1.
	Steps to be used in Hessian update: 2 1
	Taking RFO optimization step.
	Going to follow RFO solution 1.
	Using RFO vector 1.
	Norm of target step-size    0.05994
	Projected energy change by RFO approximation:         0.0000725920

	Back-transformation to cartesian coordinates...
	Successfully converged to displaced geometry.

	Back-transformation to cartesian coordinates to adjust frozen coordinates...
	Successfully converged to displaced geometry.

	--- Internal Coordinate Step in ANG or DEG, aJ/ANG or AJ/DEG ---
	 ---------------------------------------------------------------------------
	   Coordinate                Previous        Force       Change         New 
	   ----------                --------       ------       ------       ------
	    1 R(1,2)          =      0.950985    -0.003638    -0.000322     0.950663
	    2 R(2,3)          =      1.345296    -0.019463    -0.001784     1.343512
	    3 R(3,4)          =      1.508495    -0.009417    -0.001634     1.506860
	    4 R(3,5)          =      1.185871    -0.015564    -0.000792     1.185079
	    5 R(4,6)          =      1.523399    -0.002762    -0.000417     1.522983
	    6 R(4,7)          =      1.086327     0.000027    -0.000103     1.086224
	    7 R(4,8)          =      1.086083     0.001418     0.000308     1.086391
	    8 R(6,9)          =      1.083342    -0.000328    -0.000060     1.083282
	    9 R(6,10)         =      1.084664    -0.000556    -0.000074     1.084590
	   10 R(6,11)         =      1.083057     0.000332     0.000061     1.083118
	   11 B(1,2,3)        =    110.368213    -0.000156    -0.586877   109.781336
	   12 B(2,3,4)        =    112.003508    -0.000158    -0.338912   111.664597
	   13 B(2,3,5)        =    122.399430     0.000039     0.100026   122.499456
	   14 B(3,4,6)        =    113.362895    -0.000051    -0.133278   113.229617
	   15 B(3,4,7)        =    107.558704     0.000013    -0.130844   107.427861
	   16 B(3,4,8)        =    106.857923     0.000024     0.206880   107.064804
	   17 B(4,3,5)        =    125.286436     0.000126     0.330449   125.616885
	   18 B(4,6,9)        =    111.115097     0.000002     0.001381   111.116478
	   19 B(4,6,10)       =    110.192081    -0.000019    -0.074299   110.117783
	   20 B(4,6,11)       =    111.008256     0.000007     0.040587   111.048843
	   21 B(6,4,7)        =    111.522069     0.000013     0.018637   111.540706
	   22 B(6,4,8)        =    111.421500     0.000014     0.057225   111.478726
	   23 B(7,4,8)        =    105.691135    -0.000010    -0.009366   105.681769
	   24 B(9,6,10)       =    108.348464     0.000007     0.018807   108.367271
	   25 B(9,6,11)       =    107.673622    -0.000002     0.011239   107.684860
	   26 B(10,6,11)      =    108.400108     0.000005     0.003970   108.404078
	   27 D(1,2,3,4)      =    146.089273    -0.000016    -0.988641   145.100632
	   28 *D(1,2,3,5)     =    -39.999997    -0.000000    -0.000000   -39.999997
	   29 D(2,3,4,6)      =    174.634856     0.000007    -0.563723   174.071133
	   30 D(2,3,4,7)      =    -61.596587     0.000005    -0.723880   -62.320467
	   31 D(2,3,4,8)      =     51.500430     0.000007    -0.697795    50.802634
	   32 D(3,4,6,9)      =     60.184433    -0.000001    -0.302271    59.882162
	   33 D(3,4,6,10)     =   -179.711466    -0.000001    -0.326783  -180.038250
	   34 D(3,4,6,11)     =    -59.611954    -0.000002    -0.344370   -59.956324
	   35 D(5,3,4,6)      =      0.934274    -0.000008    -1.570813    -0.636539
	   36 D(5,3,4,7)      =    124.702831    -0.000010    -1.730969   122.971861
	   37 D(5,3,4,8)      =   -122.200152    -0.000008    -1.704885  -123.905037
	   38 D(7,4,6,9)      =    -61.390043     0.000002    -0.048232   -61.438275
	   39 D(7,4,6,10)     =     58.714058     0.000001    -0.072744    58.641314
	   40 D(7,4,6,11)     =    178.813570     0.000001    -0.090331   178.723239
	   41 D(8,4,6,9)      =   -179.230581     0.000000    -0.086042  -179.316622
	   42 D(8,4,6,10)     =    -59.126479    -0.000000    -0.110554   -59.237034
	   43 D(8,4,6,11)     =     60.973033    -0.000001    -0.128141    60.844892
	 ---------------------------------------------------------------------------

  ==> Convergence Check <==

  Measures of convergence in internal coordinates in au.
  Criteria marked as inactive (o), active & met (*), and active & unmet ( ).
  ---------------------------------------------------------------------------------------------
   Step     Total Energy     Delta E     MAX Force     RMS Force      MAX Disp      RMS Disp   
  ---------------------------------------------------------------------------------------------
    Convergence Criteria    1.00e-06 *    3.00e-04 *             o    1.20e-03 *             o
  ---------------------------------------------------------------------------------------------
      3    -266.83794601   -3.25e-03      2.36e-03      7.64e-04 o    3.02e-02      9.14e-03 o  ~
  ---------------------------------------------------------------------------------------------

	Writing optimization data to binary file.
	Structure for next step:
	Cartesian Geometry (in Angstrom)
	    H     2.2913967979  -0.2941233836  -0.4663470823
	    O     1.5954058267  -0.6748083811   0.0575191537
	    C     0.4900927816   0.0833229820  -0.0349182013
	    C    -0.7626405614  -0.7535513723  -0.0044394695
	    O     0.5288898548   1.2677595094  -0.0390606286
	    C    -2.0387659201   0.0766415303   0.0375145842
	    H    -0.7394569494  -1.4056635540  -0.8728256727
	    H    -0.6866084642  -1.4099949521   0.8578518281
	    H    -2.1144382428   0.7201394249  -0.8306349059
	    H    -2.9064556992  -0.5737814240   0.0574864149
	    H    -2.0638141189   0.7073048388   0.9177307096
			--------------------------
			 OPTKING Finished Execution 
			--------------------------

    Structure for next step:
    Molecular point group: c1
    Full point group: C1

    Geometry (in Angstrom), charge = 0, multiplicity = 1:

    H            2.291746176845    -0.295303681174    -0.465452245474
    O            1.595755258710    -0.675988649532     0.058413950574
    C            0.490442298028     0.082142655675    -0.034023397398
    C           -0.762290949229    -0.754731634779    -0.003544667984
    O            0.529239368270     1.266579092622    -0.038165824407
    C           -2.038416210520     0.075461204462     0.038409382545
    H           -0.739107339059    -1.406843766664    -0.871930804832
    H           -0.686258857913    -1.411175164449     0.858746563857
    H           -2.114088527424     0.718959049910    -0.829740041267
    H           -2.906105923365    -0.574961700197     0.058381211700
    H           -2.063464407378     0.706124464748     0.918625440710

gradient() will perform analytic gradient computation.

*** tstart() called on cx1-5-5-4.cx1.hpc.ic.ac.uk
*** at Fri Sep  2 11:53:42 2016


         ---------------------------------------------------------
                                   SCF
            by Justin Turney, Rob Parrish, and Andy Simmonett
                              RHF Reference
                        4 Threads,   2000 MiB Core
         ---------------------------------------------------------

  ==> Geometry <==

    Molecular point group: c1
    Full point group: C1

    Geometry (in Angstrom), charge = 0, multiplicity = 1:

       Center              X                  Y                   Z               Mass       
    ------------   -----------------  -----------------  -----------------  -----------------
           H          2.291746176845    -0.295303681174    -0.465452245474     1.007825032070
           O          1.595755258710    -0.675988649532     0.058413950574    15.994914619560
           C          0.490442298028     0.082142655675    -0.034023397398    12.000000000000
           C         -0.762290949229    -0.754731634779    -0.003544667984    12.000000000000
           O          0.529239368270     1.266579092622    -0.038165824407    15.994914619560
           C         -2.038416210520     0.075461204462     0.038409382545    12.000000000000
           H         -0.739107339059    -1.406843766664    -0.871930804832     1.007825032070
           H         -0.686258857913    -1.411175164449     0.858746563857     1.007825032070
           H         -2.114088527424     0.718959049910    -0.829740041267     1.007825032070
           H         -2.906105923365    -0.574961700197     0.058381211700     1.007825032070
           H         -2.063464407378     0.706124464748     0.918625440710     1.007825032070

  Running in c1 symmetry.

  Rotational constants: A =      0.34572  B =      0.12779  C =      0.09688 [cm^-1]
  Rotational constants: A =  10364.47246  B =   3831.00800  C =   2904.41362 [MHz]
  Nuclear repulsion =  179.498726749071324

  Charge       = 0
  Multiplicity = 1
  Electrons    = 40
  Nalpha       = 20
  Nbeta        = 20

  ==> Algorithm <==

  SCF Algorithm Type is DF.
  DIIS enabled.
  MOM disabled.
  Fractional occupation disabled.
  Guess Type is READ.
  Energy threshold   = 1.00e-08
  Density threshold  = 1.00e-08
  Integral threshold = 0.00e+00

  ==> Primary Basis <==

  Basis Set: 6-31G*
    Number of shells: 42
    Number of basis function: 87
    Number of Cartesian functions: 87
    Spherical Harmonics?: false
    Max angular momentum: 2

  ==> Pre-Iterations <==

   -------------------------------------------------------
    Irrep   Nso     Nmo     Nalpha   Nbeta   Ndocc  Nsocc
   -------------------------------------------------------
     A         87      87       0       0       0       0
   -------------------------------------------------------
    Total      87      87      20      20      20       0
   -------------------------------------------------------

 OEINTS: Overlap, kinetic, potential, dipole, and quadrupole integrals
         stored in file 35.

  ==> Integral Setup <==

  ==> DFJK: Density-Fitted J/K Matrices <==

    J tasked:                  Yes
    K tasked:                  Yes
    wK tasked:                  No
    OpenMP threads:              4
    Integrals threads:           4
    Memory (MB):              1430
    Algorithm:                Core
    Integral Cache:           NONE
    Schwarz Cutoff:          1E-12
    Fitting Condition:       1E-12

   => Auxiliary Basis Set <=

  Basis Set: 
    Number of shells: 174
    Number of basis function: 555
    Number of Cartesian functions: 555
    Spherical Harmonics?: false
    Max angular momentum: 3

  Minimum eigenvalue in the overlap matrix is 3.7862164983E-03.
  Using Symmetric Orthogonalization.
  SCF Guess: Reading in previously saved MOs, projecting if necessary.

  Using orbitals from previous SCF, no projection.
  Recomputing DOCC and SOCC from number of alpha and beta electrons from previous calculation.
              A 
    DOCC [    20 ]

  ==> Iterations <==

                           Total Energy        Delta E     RMS |[F,P]|

   @DF-RHF iter   0:  -266.83945104094335   -2.66839e+02   5.42089e-04 
   @DF-RHF iter   1:  -266.83796222878289    1.48881e-03   6.95706e-05 
[...]


  Saving occupied orbitals to File 180.

*** tstop() called on cx1-5-5-4.cx1.hpc.ic.ac.uk at Fri Sep  2 11:54:00 2016
Module time:
	user time   =       6.85 seconds =       0.11 minutes
	system time =       0.11 seconds =       0.00 minutes
	total time  =          3 seconds =       0.05 minutes
Total time:
	user time   =      98.75 seconds =       1.65 minutes
	system time =       1.66 seconds =       0.03 minutes
	total time  =         34 seconds =       0.57 minutes

*** tstart() called on cx1-5-5-4.cx1.hpc.ic.ac.uk
*** at Fri Sep  2 11:54:00 2016


         ------------------------------------------------------------
                                   SCF GRAD                          
                          Rob Parrish, Justin Turney,                
                       Andy Simmonett, and Alex Sokolov              
         ------------------------------------------------------------

  ==> Geometry <==

    Molecular point group: c1
    Full point group: C1

    Geometry (in Angstrom), charge = 0, multiplicity = 1:

       Center              X                  Y                   Z               Mass       
    ------------   -----------------  -----------------  -----------------  -----------------
           H          2.294552252860    -0.302273838601    -0.452459731448     1.007825032070
           O          1.595891503499    -0.674069374646     0.074433819828    15.994914619560
           C          0.490308327964     0.082534721626    -0.035750041780    12.000000000000
           C         -0.762148768485    -0.754819771102    -0.002953926707    12.000000000000
           O          0.529673427250     1.266431138825    -0.059400279160    15.994914619560
           C         -2.039271427928     0.073821673593     0.044208343483    12.000000000000
           H         -0.740242559127    -1.401583956518    -0.875821312136     1.007825032070
           H         -0.683661031221    -1.416313942868     0.854685694476     1.007825032070
           H         -2.115948371789     0.721684893417    -0.820441889710     1.007825032070
           H         -2.906737221305    -0.576984039098     0.062102789875     1.007825032070
           H         -2.064207918391     0.700060709914     0.927801598893     1.007825032070

  Nuclear repulsion =  179.468370125346127

  ==> Basis Set <==

  Basis Set: 6-31G*
    Number of shells: 42
    Number of basis function: 87
    Number of Cartesian functions: 87
    Spherical Harmonics?: false
    Max angular momentum: 2

  ==> DFJKGrad: Density-Fitted SCF Gradients <==

    Gradient:                    1
    J tasked:                  Yes
    K tasked:                  Yes
    wK tasked:                  No
    OpenMP threads:              4
    Integrals threads:           4
    Memory (MB):              1430
    Schwarz Cutoff:          0E+00
    Fitting Condition:       1E-12

   => Auxiliary Basis Set <=

  Basis Set: 
    Number of shells: 174
    Number of basis function: 555
    Number of Cartesian functions: 555
    Spherical Harmonics?: false
    Max angular momentum: 3


  -Total Gradient:
     Atom            X                  Y                   Z
    ------   -----------------  -----------------  -----------------
       1       -0.003473378158    -0.006386622218    -0.009080118057
       2        0.003983879721     0.007912992349     0.016168437289
       3        0.000415089959    -0.001840884112    -0.017534274295
       4       -0.000008507231    -0.000040244097    -0.000007404891
       5       -0.000926862906     0.000320562655     0.010429478789
       6        0.000011806322     0.000015354757    -0.000002018582
       7        0.000011167071    -0.000022474553     0.000009249446
       8       -0.000018085217     0.000039464269     0.000012495465
       9       -0.000001199679     0.000001566283    -0.000001046213
      10        0.000011750103    -0.000005282335     0.000001160626
      11       -0.000005659985     0.000005567000     0.000004040424


*** tstop() called on cx1-5-5-4.cx1.hpc.ic.ac.uk at Fri Sep  2 11:54:02 2016
Module time:
	user time   =       8.00 seconds =       0.13 minutes
	system time =       0.10 seconds =       0.00 minutes
	total time  =          2 seconds =       0.03 minutes
Total time:
	user time   =     106.76 seconds =       1.78 minutes
	system time =       1.76 seconds =       0.03 minutes
	total time  =         36 seconds =       0.60 minutes
CURRENT ENERGY: -266.8380135939

			-----------------------------------------
			 OPTKING 2.0: for geometry optimizations 
			  - R.A. King,  Bethel University        
			-----------------------------------------

	Previous internal coordinate definitions found.
	---Fragment 1 Geometry and Gradient---
	 H           4.3360753555       -0.5712147721       -0.8550249786
	 O           3.0157978794       -1.2738065126        0.1406595345
	 C           0.9265484605        0.1559680203       -0.0675577882
	 C          -1.4402524450       -1.4264026471       -0.0055821125
	 O           1.0009377174        2.3932080185       -0.1122502598
	 C          -3.8536645094        0.1395027458        0.0835416620
	 H          -1.3988557087       -2.6486098301       -1.6550624213
	 H          -1.2919321167       -2.6764454702        1.6151218923
	 H          -3.9985629340        1.3637868028       -1.5504104795
	 H          -5.4929372885       -1.0903418169        0.1173572650
	 H          -3.9007876471        1.3229230181        1.7532909276
	            -0.0034733782       -0.0063866222       -0.0090801181
	             0.0039838797        0.0079129923        0.0161684373
	             0.0004150900       -0.0018408841       -0.0175342743
	            -0.0000085072       -0.0000402441       -0.0000074049
	            -0.0009268629        0.0003205627        0.0104294788
	             0.0000118063        0.0000153548       -0.0000020186
	             0.0000111671       -0.0000224746        0.0000092494
	            -0.0000180852        0.0000394643        0.0000124955
	            -0.0000011997        0.0000015663       -0.0000010462
	             0.0000117501       -0.0000052823        0.0000011606
	            -0.0000056600        0.0000055670        0.0000040404

	---Fragment 1 Intrafragment Coordinates---
	 - Coordinate -           - BOHR/RAD -       - ANG/DEG -
	 R(1,2)           =         1.796707	       0.950776
	 R(2,3)           =         2.540191	       1.344212
	 R(3,4)           =         2.847716	       1.506946
	 R(3,5)           =         2.238923	       1.184787
	 R(4,6)           =         2.878291	       1.523126
	 R(4,7)           =         2.053361	       1.086592
	 R(4,8)           =         2.052142	       1.085947
	 R(6,9)           =         2.046868	       1.083156
	 R(6,10)          =         2.049604	       1.084604
	 R(6,11)          =         2.047136	       1.083298
	 B(1,2,3)         =         1.916495	     109.807065
	 B(2,3,4)         =         1.948766	     111.656076
	 B(2,3,5)         =         2.137373	     122.462466
	 B(3,4,6)         =         1.977144	     113.282010
	 B(3,4,7)         =         1.871827	     107.247804
	 B(3,4,8)         =         1.870874	     107.193198
	 B(4,3,5)         =         2.193575	     125.682592
	 B(4,6,9)         =         1.939111	     111.102860
	 B(4,6,10)        =         1.922702	     110.162716
	 B(4,6,11)        =         1.938056	     111.042408
	 B(6,4,7)         =         1.945077	     111.444701
	 B(6,4,8)         =         1.947164	     111.564282
	 B(7,4,8)         =         1.844595	     105.687504
	 B(9,6,10)        =         1.891729	     108.388081
	 B(9,6,11)        =         1.879383	     107.680701
	 B(10,6,11)       =         1.891260	     108.361230
	 D(1,2,3,4)       =         2.528229	     144.856833
	*D(1,2,3,5)       =        -0.698132	     -39.999997
	 D(2,3,4,6)       =         3.020229	     173.046401
	 D(2,3,4,7)       =        -1.109381	     -63.562827
	 D(2,3,4,8)       =         0.864688	      49.542998
	 D(3,4,6,9)       =         1.040826	      59.634927
	 D(3,4,6,10)      =         3.137428	     179.761363
	 D(3,4,6,11)      =        -1.050426	     -60.184975
	 D(5,3,4,6)       =        -0.033302	      -1.908045
	 D(5,3,4,7)       =         2.120274	     121.482727
	 D(5,3,4,8)       =        -2.188843	    -125.411448
	 D(7,4,6,9)       =        -1.071931	     -61.417126
	 D(7,4,6,10)      =         1.024671	      58.709311
	 D(7,4,6,11)      =         3.120002	     178.762973
	 D(8,4,6,9)       =        -3.129302	    -179.295822
	 D(8,4,6,10)      =        -1.032701	     -59.169385
	 D(8,4,6,11)      =         1.062631	      60.884277

	Current energy   :      -266.8380135939

	Energy change for the previous step:
		Projected    :        -0.0000001402
		Actual       :        -0.0000001958

	Performing BFGS update.
	Previous computed or guess Hessian on step 1.
	Steps to be used in Hessian update: 6 5
	Taking RFO optimization step.
	Going to follow RFO solution 1.
	Rejecting RFO root 1 because normalization gives large value.
	Rejecting RFO root 2 because normalization gives large value.
	Rejecting RFO root 3 because normalization gives large value.
	Rejecting RFO root 4 because normalization gives large value.
	Rejecting RFO root 5 because normalization gives large value.
	Rejecting RFO root 6 because normalization gives large value.
	Rejecting RFO root 7 because normalization gives large value.
	Rejecting RFO root 8 because normalization gives large value.
	Rejecting RFO root 9 because normalization gives large value.
	Rejecting RFO root 10 because normalization gives large value.
	Rejecting RFO root 11 because normalization gives large value.
	Rejecting RFO root 12 because normalization gives large value.
	Rejecting RFO root 13 because normalization gives large value.
	Rejecting RFO root 14 because normalization gives large value.
	Rejecting RFO root 15 because normalization gives large value.
	Rejecting RFO root 16 because normalization gives large value.
	Rejecting RFO root 17 because normalization gives large value.
	Rejecting RFO root 18 because normalization gives large value.
	Rejecting RFO root 19 because normalization gives large value.
	Using RFO vector 20.
	Norm of target step-size    0.00410
	Projected energy change by RFO approximation:         0.0000006526

	Back-transformation to cartesian coordinates...
	Successfully converged to displaced geometry.

	Back-transformation to cartesian coordinates to adjust frozen coordinates...
	Successfully converged to displaced geometry.

	--- Internal Coordinate Step in ANG or DEG, aJ/ANG or AJ/DEG ---
	 ---------------------------------------------------------------------------
	   Coordinate                Previous        Force       Change         New 
	   ----------                --------       ------       ------       ------
	    1 R(1,2)          =      0.950776     0.000147     0.000006     0.950783
	    2 R(2,3)          =      1.344212    -0.001168     0.000376     1.344588
	    3 R(3,4)          =      1.506946    -0.000022    -0.000256     1.506690
	    4 R(3,5)          =      1.184787    -0.000670    -0.000210     1.184576
	    5 R(4,6)          =      1.523126     0.000038    -0.000040     1.523086
	    6 R(4,7)          =      1.086592    -0.000051     0.000030     1.086622
	    7 R(4,8)          =      1.085947     0.000128     0.000032     1.085979
	    8 R(6,9)          =      1.083156    -0.000015     0.000000     1.083156
	    9 R(6,10)         =      1.084604     0.000051    -0.000007     1.084597
	   10 R(6,11)         =      1.083298    -0.000055     0.000020     1.083318
	   11 B(1,2,3)        =    109.807065     0.000000    -0.015511   109.791554
	   12 B(2,3,4)        =    111.656076     0.000002     0.006869   111.662945
	   13 B(2,3,5)        =    122.462466    -0.000006     0.061156   122.523622
	   14 B(3,4,6)        =    113.282010     0.000002    -0.006557   113.275453
	   15 B(3,4,7)        =    107.247804    -0.000001    -0.003274   107.244531
	   16 B(3,4,8)        =    107.193198    -0.000001     0.004714   107.197912
	   17 B(4,3,5)        =    125.682592     0.000004    -0.067482   125.615111
	   18 B(4,6,9)        =    111.102860    -0.000000    -0.000883   111.101977
	   19 B(4,6,10)       =    110.162716     0.000001     0.004294   110.167010
	   20 B(4,6,11)       =    111.042408    -0.000001    -0.003283   111.039125
	   21 B(6,4,7)        =    111.444701    -0.000001    -0.001537   111.443164
	   22 B(6,4,8)        =    111.564282     0.000000    -0.027747   111.536535
	   23 B(7,4,8)        =    105.687504    -0.000000     0.038429   105.725933
	   24 B(9,6,10)       =    108.388081    -0.000000     0.000932   108.389014
	   25 B(9,6,11)       =    107.680701     0.000000     0.001037   107.681738
	   26 B(10,6,11)      =    108.361230    -0.000000    -0.002126   108.359104
	   27 D(1,2,3,4)      =    144.856833    -0.000000    -0.002819   144.854014
	   28 *D(1,2,3,5)     =    -39.999997    -0.000000     0.000000   -39.999997
	   29 D(2,3,4,6)      =    173.046401    -0.000000    -0.080293   172.966108
	   30 D(2,3,4,7)      =    -63.562827    -0.000000    -0.088900   -63.651727
	   31 D(2,3,4,8)      =     49.542998    -0.000000    -0.044129    49.498869
	   32 D(3,4,6,9)      =     59.634927    -0.000000    -0.014781    59.620145
	   33 D(3,4,6,10)     =    179.761363    -0.000000    -0.011355   179.750008
	   34 D(3,4,6,11)     =    -60.184975    -0.000000    -0.013318   -60.198293
	   35 D(5,3,4,6)      =     -1.908045    -0.000000    -0.090923    -1.998968
	   36 D(5,3,4,7)      =    121.482727    -0.000001    -0.099530   121.383197
	   37 D(5,3,4,8)      =   -125.411448    -0.000001    -0.054759  -125.466207
	   38 D(7,4,6,9)      =    -61.417126    -0.000000    -0.004673   -61.421799
	   39 D(7,4,6,10)     =     58.709311    -0.000000    -0.001247    58.708064
	   40 D(7,4,6,11)     =    178.762973     0.000000    -0.003210   178.759763
	   41 D(8,4,6,9)      =   -179.295822     0.000000    -0.033886  -179.329708
	   42 D(8,4,6,10)     =    -59.169385     0.000000    -0.030459   -59.199844
	   43 D(8,4,6,11)     =     60.884277     0.000000    -0.032423    60.851854
	 ---------------------------------------------------------------------------

  ==> Convergence Check <==

  Measures of convergence in internal coordinates in au.
  Criteria marked as inactive (o), active & met (*), and active & unmet ( ).
  ---------------------------------------------------------------------------------------------
   Step     Total Energy     Delta E     MAX Force     RMS Force      MAX Disp      RMS Disp   
  ---------------------------------------------------------------------------------------------
    Convergence Criteria    1.00e-06 *    3.00e-04 *             o    1.20e-03 *             o
  ---------------------------------------------------------------------------------------------
      7    -266.83801359   -1.96e-07 *    1.42e-04 *    3.17e-05 o    1.74e-03      6.25e-04 o  ~
  ---------------------------------------------------------------------------------------------


  **** Optimization is complete! (in 7 steps) ****

  ==> Optimization Summary <==

  Measures of convergence in internal coordinates in au.
  --------------------------------------------------------------------------------------------------------------- ~
   Step         Total Energy             Delta E       MAX Force       RMS Force        MAX Disp        RMS Disp  ~
  --------------------------------------------------------------------------------------------------------------- ~
      1    -266.837179625780   -266.837179625780      0.01284427      0.00261484      0.30314140      0.07593647  ~
      2    -266.834700758347      0.002478867433      0.01143806      0.00313875      0.19696712      0.04898922  ~
      3    -266.837946009935     -0.003245251588      0.00236233      0.00076381      0.03021111      0.00914026  ~
      4    -266.838005521012     -0.000059511077      0.00051871      0.00014960      0.01985200      0.00637396  ~
      5    -266.838012244191     -0.000006723179      0.00032561      0.00007439      0.00559468      0.00181031  ~
      6    -266.838013398156     -0.000001153966      0.00005374      0.00001973      0.00177079      0.00055247  ~
      7    -266.838013593923     -0.000000195766      0.00014176      0.00003168      0.00173713      0.00062477  ~
  --------------------------------------------------------------------------------------------------------------- ~

	Writing optimization data to binary file.
	Final energy is   -266.8380135939228
	Final (previous) structure:
	Cartesian Geometry (in Angstrom)
	    H     2.2945524281  -0.3022738617  -0.4524597660
	    O     1.5958916254  -0.6740694261   0.0744338255
	    C     0.4903083654   0.0825347279  -0.0357500445
	    C    -0.7621488267  -0.7548198287  -0.0029539269
	    O     0.5296734677   1.2664312355  -0.0594002837
	    C    -2.0392715837   0.0738216792   0.0442083469
	    H    -0.7402426157  -1.4015840635  -0.8758213790
	    H    -0.6836610834  -1.4163140510   0.8546857597
	    H    -2.1159485334   0.7216849485  -0.8204419524
	    H    -2.9067374433  -0.5769840832   0.0621027946
	    H    -2.0642080760   0.7000607634   0.9278016697
	Saving final (previous) structure.
			--------------------------
			 OPTKING Finished Execution 
			--------------------------

    Final optimized geometry and variables:
    Molecular point group: c1
    Full point group: C1

    Geometry (in Angstrom), charge = 0, multiplicity = 1:

    H            2.294552252860    -0.302273838601    -0.452459731448
    O            1.595891503499    -0.674069374646     0.074433819828
    C            0.490308327964     0.082534721626    -0.035750041780
    C           -0.762148768485    -0.754819771102    -0.002953926707
    O            0.529673427250     1.266431138825    -0.059400279160
    C           -2.039271427928     0.073821673593     0.044208343483
    H           -0.740242559127    -1.401583956518    -0.875821312136
    H           -0.683661031221    -1.416313942868     0.854685694476
    H           -2.115948371789     0.721684893417    -0.820441889710
    H           -2.906737221305    -0.576984039098     0.062102789875
    H           -2.064207918391     0.700060709914     0.927801598893

	Cleaning optimization helper files.


Properties will be evaluated at   0.000000,   0.000000,   0.000000 Bohr

Properties computed using the  density matrix

  Nuclear Dipole Moment: (a.u.)
     X:    -5.8173      Y:    -2.1303      Z:    -0.2850

  Electronic Dipole Moment: (a.u.)
     X:     5.7653      Y:     1.3802      Z:    -0.0975

  Dipole Moment: (a.u.)
     X:    -0.0520      Y:    -0.7501      Z:    -0.3825     Total:     0.8436

  Dipole Moment: (Debye)
     X:    -0.1323      Y:    -1.9065      Z:    -0.9722     Total:     2.1441

  Quadrupole Moment: (Debye Ang)
    XX:   -25.9939     YY:   -34.9404     ZZ:   -28.6759
    XY:     0.5372     XZ:    -2.6699     YZ:     0.5664

  Traceless Quadrupole Moment: (Debye Ang)
    XX:     3.8761     YY:    -5.0703     ZZ:     1.1942
    XY:     0.5372     XZ:    -2.6699     YZ:     0.5664

  Mulliken Charges: (a.u.)
   Center  Symbol    Alpha    Beta     Spin     Total
       1     H     0.26657  0.26657  0.00000  0.46685
       2     O     4.35716  4.35716  0.00000 -0.71431
       3     C     2.62927  2.62927  0.00000  0.74146
       4     C     3.20781  3.20781  0.00000 -0.41562
       5     O     4.26583  4.26583  0.00000 -0.53165
       6     C     3.23967  3.23967  0.00000 -0.47935
       7     H     0.40156  0.40156  0.00000  0.19689
       8     H     0.39684  0.39684  0.00000  0.20631
       9     H     0.40952  0.40952  0.00000  0.18096
      10     H     0.41683  0.41683  0.00000  0.16633
      11     H     0.40894  0.40894  0.00000  0.18213

   Total alpha = 20.00000, Total beta = 20.00000, Total charge = -0.00000


*** PSI4 exiting successfully. Buy a developer a beer!
