    -----------------------------------------------------------------------
          Psi4: An Open-Source Ab Initio Electronic Structure Package
                              Psi4 (no tag) Driver

                          Git: Rev {detached?}  

    J. M. Turney, A. C. Simmonett, R. M. Parrish, E. G. Hohenstein,
    F. A. Evangelista, J. T. Fermann, B. J. Mintz, L. A. Burns, J. J. Wilke,
    M. L. Abrams, N. J. Russ, M. L. Leininger, C. L. Janssen, E. T. Seidl,
    W. D. Allen, H. F. Schaefer, R. A. King, E. F. Valeev, C. D. Sherrill,
    and T. D. Crawford, WIREs Comput. Mol. Sci. 2, 556-565 (2012)
    (doi: 10.1002/wcms.93)

                         Additional Contributions by
    A. E. DePrince, M. Saitow, U. Bozkaya, A. Yu. Sokolov
    -----------------------------------------------------------------------


    Psi4 started on: Fri Sep  9 20:42:47 2016

    Process ID:  24969
    PSI4DATADIR: /export131/home/mjharvey/miniconda3/share
    Memory level set to 256.000 MB

  ==> Input File <==

--------------------------------------------------------------------------
set {
	reference rhf
	basis cc-pvtz
}


set_num_threads( 4 )
memory 2 gb

molecule MOL {
0 1

H	 -0.000342	 -0.223902	 -3.352295
C	 -0.027146	 0.371068	 -2.446756
C	 0.024493	 -0.518541	 -1.216015
H	 -0.932586	 0.964979	 -2.449855
H	 0.819708	 1.049865	 -2.473332
N	 -0.042516	 0.263377	 -0.000000
H	 -0.822211	 -1.197105	 -1.225584
H	 0.921114	 -1.142847	 -1.255206
C	 0.024493	 -0.518541	 1.216015
H	 0.682568	 0.950412	 -0.000000
C	 -1.094508	 -0.145063	 2.173692
H	 -0.065609	 -1.565845	 0.946785
H	 0.987756	 -0.411420	 1.721853
H	 -2.060367	 -0.288907	 1.705732
H	 -1.050805	 -0.751558	 3.070889
H	 -1.019098	 0.895155	 2.475179

	symmetry c1
}
set optking {
	frozen_dihedral = ("
		12 9 6 3
	")
}

ee = optimize('scf')
oeprop('DIPOLE', 'QUADRUPOLE', 'MULLIKEN_CHARGES')
f=open( 'psi4out.xyz', 'w' )
f.write( "16  " )
f.write( str(ee) + "\n" )
f.write( MOL.save_string_xyz() )
f.close()
--------------------------------------------------------------------------

  Memory set to   2.000 GiB by Python script.
gradient() will perform analytic gradient computation.

*** tstart() called on cx1-27-1-1
*** at Fri Sep  9 20:42:47 2016


         ---------------------------------------------------------
                                   SCF
            by Justin Turney, Rob Parrish, and Andy Simmonett
                              RHF Reference
                        4 Threads,   2000 MiB Core
         ---------------------------------------------------------

  ==> Geometry <==

    Molecular point group: c1
    Full point group: C1

    Geometry (in Angstrom), charge = 0, multiplicity = 1:

       Center              X                  Y                   Z               Mass       
    ------------   -----------------  -----------------  -----------------  -----------------
           H          0.218939759538    -0.117463798432    -3.295937216881     1.007825032070
           C          0.192135759538     0.477506201568    -2.390398216881    12.000000000000
           C          0.243774759538    -0.412102798432    -1.159657216881    12.000000000000
           H         -0.713304240462     1.071417201568    -2.393497216881     1.007825032070
           H          1.038989759538     1.156303201568    -2.416974216881     1.007825032070
           N          0.176765759538     0.369815201568     0.056357783119    14.003074004780
           H         -0.602929240462    -1.090666798432    -1.169226216881     1.007825032070
           H          1.140395759538    -1.036408798432    -1.198848216881     1.007825032070
           C          0.243774759538    -0.412102798432     1.272372783119    12.000000000000
           H          0.901849759538     1.056850201568     0.056357783119     1.007825032070
           C         -0.875226240462    -0.038624798432     2.230049783119    12.000000000000
           H          0.153672759538    -1.459406798432     1.003142783119     1.007825032070
           H          1.207037759538    -0.304981798432     1.778210783119     1.007825032070
           H         -1.841085240462    -0.182468798432     1.762089783119     1.007825032070
           H         -0.831523240462    -0.645119798432     3.127246783119     1.007825032070
           H         -0.799816240462     1.001593201568     2.531536783119     1.007825032070

  Running in c1 symmetry.

  Rotational constants: A =      0.52921  B =      0.07202  C =      0.07010 [cm^-1]
  Rotational constants: A =  15865.17572  B =   2158.97477  C =   2101.55144 [MHz]
  Nuclear repulsion =  189.950863326550234

  Charge       = 0
  Multiplicity = 1
  Electrons    = 42
  Nalpha       = 21
  Nbeta        = 21

  ==> Algorithm <==

  SCF Algorithm Type is DF.
  DIIS enabled.
  MOM disabled.
  Fractional occupation disabled.
  Guess Type is CORE.
  Energy threshold   = 1.00e-08
  Density threshold  = 1.00e-08
  Integral threshold = 0.00e+00

  ==> Primary Basis <==

  Basis Set: CC-PVTZ
    Number of shells: 116
    Number of basis function: 304
    Number of Cartesian functions: 340
    Spherical Harmonics?: true
    Max angular momentum: 3

  ==> Pre-Iterations <==

   -------------------------------------------------------
    Irrep   Nso     Nmo     Nalpha   Nbeta   Ndocc  Nsocc
   -------------------------------------------------------
     A        304     304       0       0       0       0
   -------------------------------------------------------
    Total     304     304      21      21      21       0
   -------------------------------------------------------

 OEINTS: Overlap, kinetic, potential, dipole, and quadrupole integrals
         stored in file 35.

  ==> Integral Setup <==

  ==> DFJK: Density-Fitted J/K Matrices <==

    J tasked:                  Yes
    K tasked:                  Yes
    wK tasked:                  No
    OpenMP threads:              4
    Integrals threads:           4
    Memory (MB):              1430
    Algorithm:                Core
    Integral Cache:           NONE
    Schwarz Cutoff:          1E-12
    Fitting Condition:       1E-12

   => Auxiliary Basis Set <=

  Basis Set: 
    Number of shells: 235
    Number of basis function: 725
    Number of Cartesian functions: 865
    Spherical Harmonics?: true
    Max angular momentum: 4

  Minimum eigenvalue in the overlap matrix is 6.6154864977E-04.
  Using Symmetric Orthogonalization.
  SCF Guess: Core (One-Electron) Hamiltonian.

  ==> Iterations <==

                           Total Energy        Delta E     RMS |[F,P]|

   @DF-RHF iter   1:  -128.71038667040386   -1.28710e+02   4.37509e-02 
   @DF-RHF iter   2:  -149.96820044210159   -2.12578e+01   2.08852e-02 DIIS
   @DF-RHF iter   3:  -163.14437481361938   -1.31762e+01   2.56765e-02 DIIS
   @DF-RHF iter   4:  -197.43958786277352   -3.42952e+01   1.39073e-02 DIIS
   @DF-RHF iter   5:  -208.86558344848942   -1.14260e+01   6.86647e-03 DIIS
   @DF-RHF iter   6:  -211.90113237821646   -3.03555e+00   3.06973e-03 DIIS
   @DF-RHF iter   7:  -212.37089593440464   -4.69764e-01   5.07299e-04 DIIS
   @DF-RHF iter   8:  -212.38775435428846   -1.68584e-02   1.86822e-04 DIIS
   @DF-RHF iter   9:  -212.38964052070600   -1.88617e-03   5.58187e-05 DIIS
   @DF-RHF iter  10:  -212.38986765611696   -2.27135e-04   1.22779e-05 DIIS
   @DF-RHF iter  11:  -212.38987997226587   -1.23161e-05   3.28202e-06 DIIS
   @DF-RHF iter  12:  -212.38988066297804   -6.90712e-07   1.21476e-06 DIIS
   @DF-RHF iter  13:  -212.38988078402389   -1.21046e-07   3.81359e-07 DIIS
   @DF-RHF iter  14:  -212.38988079897535   -1.49515e-08   1.02376e-07 DIIS
   @DF-RHF iter  15:  -212.38988079994141   -9.66054e-10   2.81656e-08 DIIS
   @DF-RHF iter  16:  -212.38988080003219   -9.07789e-11   7.86655e-09 DIIS

  ==> Post-Iterations <==

    Orbital Energies (a.u.)
    -----------------------

    Doubly Occupied:                                                      

       1A    -15.527048     2A    -11.240153     3A    -11.238469  
       4A    -11.206568     5A    -11.199044     6A     -1.207175  
       7A     -1.026690     8A     -0.963943     9A     -0.835491  
      10A     -0.815550    11A     -0.667223    12A     -0.626282  
      13A     -0.609620    14A     -0.565116    15A     -0.560285  
      16A     -0.525860    17A     -0.505271    18A     -0.490420  
      19A     -0.483037    20A     -0.470492    21A     -0.359446  

    Virtual:                                                              

      22A      0.141180    23A      0.158501    24A      0.167422  
      25A      0.177039    26A      0.208890    27A      0.218589  
      28A      0.221706    29A      0.235864    30A      0.244449  
      31A      0.251976    32A      0.256087    33A      0.314459  
      34A      0.326316    35A      0.353557    36A      0.359464  
      37A      0.376884    38A      0.406288    39A      0.412304  
      40A      0.437586    41A      0.463341    42A      0.491660  
      43A      0.502279    44A      0.513382    45A      0.574709  
      46A      0.583833    47A      0.600408    48A      0.605233  
      49A      0.610321    50A      0.614119    51A      0.645409  
      52A      0.646639    53A      0.658267    54A      0.664079  
      55A      0.666648    56A      0.671240    57A      0.692388  
      58A      0.698843    59A      0.711854    60A      0.743037  
      61A      0.758918    62A      0.765485    63A      0.798792  
      64A      0.803590    65A      0.827224    66A      0.873472  
      67A      0.876732    68A      0.928227    69A      0.945625  
      70A      0.951445    71A      1.002388    72A      1.037857  
      73A      1.065036    74A      1.074317    75A      1.083670  
      76A      1.125537    77A      1.156602    78A      1.168434  
      79A      1.173846    80A      1.196781    81A      1.206090  
      82A      1.233094    83A      1.243575    84A      1.267070  
      85A      1.271467    86A      1.292168    87A      1.301972  
      88A      1.316057    89A      1.323596    90A      1.341755  
      91A      1.357826    92A      1.361404    93A      1.378998  
      94A      1.390941    95A      1.399166    96A      1.416968  
      97A      1.443254    98A      1.481332    99A      1.501352  
     100A      1.510706   101A      1.518953   102A      1.523471  
     103A      1.542510   104A      1.552731   105A      1.592443  
     106A      1.598105   107A      1.613286   108A      1.635500  
     109A      1.662599   110A      1.666684   111A      1.675440  
     112A      1.706258   113A      1.730729   114A      1.766558  
     115A      1.782010   116A      1.798827   117A      1.816855  
     118A      1.843985   119A      1.865563   120A      1.929456  
     121A      1.999104   122A      2.039076   123A      2.122891  
     124A      2.182228   125A      2.236190   126A      2.522223  
     127A      2.527277   128A      2.590281   129A      2.601364  
     130A      2.626887   131A      2.642301   132A      2.677618  
     133A      2.708483   134A      2.745924   135A      2.748600  
     136A      2.778494   137A      2.791561   138A      2.828517  
     139A      2.869945   140A      2.887348   141A      2.925093  
     142A      2.943436   143A      2.966642   144A      3.021704  
     145A      3.053247   146A      3.088878   147A      3.104343  
     148A      3.115476   149A      3.123894   150A      3.129554  
     151A      3.145756   152A      3.153987   153A      3.184197  
     154A      3.210702   155A      3.219905   156A      3.227276  
     157A      3.254069   158A      3.270727   159A      3.309101  
     160A      3.324653   161A      3.331908   162A      3.341715  
     163A      3.368703   164A      3.382736   165A      3.398206  
     166A      3.413931   167A      3.415744   168A      3.431412  
     169A      3.436451   170A      3.445762   171A      3.466829  
     172A      3.486737   173A      3.504282   174A      3.525264  
     175A      3.537975   176A      3.542894   177A      3.572811  
     178A      3.589652   179A      3.610367   180A      3.625252  
     181A      3.644616   182A      3.662561   183A      3.692060  
     184A      3.743042   185A      3.762025   186A      3.771565  
     187A      3.779976   188A      3.796999   189A      3.797715  
     190A      3.815097   191A      3.839315   192A      3.846798  
     193A      3.863827   194A      3.885311   195A      3.901504  
     196A      3.914112   197A      3.934194   198A      3.971624  
     199A      3.984270   200A      4.007537   201A      4.048917  
     202A      4.071348   203A      4.095707   204A      4.117214  
     205A      4.134655   206A      4.145957   207A      4.149744  
     208A      4.174846   209A      4.183214   210A      4.197180  
     211A      4.210588   212A      4.216583   213A      4.250464  
     214A      4.260773   215A      4.283959   216A      4.295165  
     217A      4.334332   218A      4.351349   219A      4.357252  
     220A      4.372006   221A      4.389551   222A      4.394218  
     223A      4.410514   224A      4.417798   225A      4.439524  
     226A      4.449380   227A      4.457876   228A      4.488042  
     229A      4.496892   230A      4.509115   231A      4.513755  
     232A      4.559824   233A      4.571812   234A      4.602276  
     235A      4.631863   236A      4.654832   237A      4.661657  
     238A      4.695044   239A      4.716046   240A      4.738160  
     241A      4.754267   242A      4.759715   243A      4.817233  
     244A      4.848383   245A      4.877229   246A      4.916419  
     247A      5.002051   248A      5.067865   249A      5.100398  
     250A      5.117358   251A      5.144296   252A      5.190094  
     253A      5.202973   254A      5.213011   255A      5.232321  
     256A      5.245704   257A      5.268644   258A      5.279522  
     259A      5.286193   260A      5.297005   261A      5.342401  
     262A      5.368349   263A      5.415801   264A      5.453217  
     265A      5.467696   266A      5.499546   267A      5.506809  
     268A      5.517601   269A      5.572687   270A      5.674682  
     271A      5.694325   272A      5.709378   273A      5.719239  
     274A      5.735091   275A      5.743095   276A      5.749738  
     277A      5.763071   278A      5.787004   279A      5.805672  
     280A      5.858024   281A      5.895046   282A      5.896698  
     283A      5.913446   284A      5.948037   285A      5.958897  
     286A      6.016278   287A      6.145669   288A      6.171307  
     289A      6.246407   290A      6.302445   291A      6.309461  
     292A      6.317050   293A      6.320639   294A      6.347575  
     295A      6.384533   296A      6.453062   297A      6.549589  
     298A      6.592383   299A      7.062294   300A     12.328350  
     301A     13.643484   302A     13.704985   303A     14.248405  
     304A     14.335478  

    Final Occupation by Irrep:
              A 
    DOCC [    21 ]

  Energy converged.

  @DF-RHF Final Energy:  -212.38988080003219

   => Energetics <=

    Nuclear Repulsion Energy =            189.9508633265502340
    One-Electron Energy =                -662.4351206421747520
    Two-Electron Energy =                 260.0943765155923302
    DFT Exchange-Correlation Energy =       0.0000000000000000
    Empirical Dispersion Energy =           0.0000000000000000
    PCM Polarization Energy =               0.0000000000000000
    EFP Energy =                            0.0000000000000000
    Total Energy =                       -212.3898808000321878

    Alert: EFP and PCM quantities not currently incorporated into SCF psivars.

Properties will be evaluated at   0.000000,   0.000000,   0.000000 Bohr
  ==> Properties <==


Properties computed using the SCF density matrix

  Nuclear Dipole Moment: (a.u.)
     X:    -0.1203      Y:    -0.5170      Z:    -0.2026

  Electronic Dipole Moment: (a.u.)
     X:     0.5038      Y:     0.3683      Z:     0.1598

  Dipole Moment: (a.u.)
     X:     0.3835      Y:    -0.1487      Z:    -0.0427     Total:     0.4136

  Dipole Moment: (Debye)
     X:     0.9748      Y:    -0.3781      Z:    -0.1086     Total:     1.0512


  Saving occupied orbitals to File 180.

*** tstop() called on cx1-27-1-1 at Fri Sep  9 20:42:57 2016
Module time:
	user time   =      29.63 seconds =       0.49 minutes
	system time =       0.47 seconds =       0.01 minutes
	total time  =         10 seconds =       0.17 minutes
Total time:
	user time   =      29.63 seconds =       0.49 minutes
	system time =       0.47 seconds =       0.01 minutes
	total time  =         10 seconds =       0.17 minutes

*** tstart() called on cx1-27-1-1
*** at Fri Sep  9 20:42:57 2016


         ------------------------------------------------------------
                                   SCF GRAD                          
                          Rob Parrish, Justin Turney,                
                       Andy Simmonett, and Alex Sokolov              
         ------------------------------------------------------------

  ==> Geometry <==

    Molecular point group: c1
    Full point group: C1

    Geometry (in Angstrom), charge = 0, multiplicity = 1:

       Center              X                  Y                   Z               Mass       
    ------------   -----------------  -----------------  -----------------  -----------------
           H          0.218939759538    -0.117463798432    -3.295937216881     1.007825032070
           C          0.192135759538     0.477506201568    -2.390398216881    12.000000000000
           C          0.243774759538    -0.412102798432    -1.159657216881    12.000000000000
           H         -0.713304240462     1.071417201568    -2.393497216881     1.007825032070
           H          1.038989759538     1.156303201568    -2.416974216881     1.007825032070
           N          0.176765759538     0.369815201568     0.056357783119    14.003074004780
           H         -0.602929240462    -1.090666798432    -1.169226216881     1.007825032070
           H          1.140395759538    -1.036408798432    -1.198848216881     1.007825032070
           C          0.243774759538    -0.412102798432     1.272372783119    12.000000000000
           H          0.901849759538     1.056850201568     0.056357783119     1.007825032070
           C         -0.875226240462    -0.038624798432     2.230049783119    12.000000000000
           H          0.153672759538    -1.459406798432     1.003142783119     1.007825032070
           H          1.207037759538    -0.304981798432     1.778210783119     1.007825032070
           H         -1.841085240462    -0.182468798432     1.762089783119     1.007825032070
           H         -0.831523240462    -0.645119798432     3.127246783119     1.007825032070
           H         -0.799816240462     1.001593201568     2.531536783119     1.007825032070

  Nuclear repulsion =  189.950863326550234

  ==> Basis Set <==

  Basis Set: CC-PVTZ
    Number of shells: 116
    Number of basis function: 304
    Number of Cartesian functions: 340
    Spherical Harmonics?: true
    Max angular momentum: 3

  ==> DFJKGrad: Density-Fitted SCF Gradients <==

    Gradient:                    1
    J tasked:                  Yes
    K tasked:                  Yes
    wK tasked:                  No
    OpenMP threads:              4
    Integrals threads:           4
    Memory (MB):              1430
    Schwarz Cutoff:          0E+00
    Fitting Condition:       1E-12

   => Auxiliary Basis Set <=

  Basis Set: 
    Number of shells: 235
    Number of basis function: 725
    Number of Cartesian functions: 865
    Spherical Harmonics?: true
    Max angular momentum: 4


  -Total Gradient:
     Atom            X                  Y                   Z
    ------   -----------------  -----------------  -----------------
       1       -0.000003314450     0.000037070614     0.000017147014
       2       -0.000010642333     0.000256582828    -0.000095906875
       3       -0.001193760449    -0.000683700744     0.002489557851
       4        0.000017786000    -0.000055515323    -0.000059994047
       5        0.000004853267    -0.000002578847    -0.000022024878
       6       -0.005727055097    -0.004284415853     0.004101140415
       7       -0.000040025644    -0.000450579630     0.000213955205
       8        0.000115934634    -0.000110571427     0.000603551895
       9        0.001874540562     0.003316230245    -0.004746765896
      10        0.002716404163    -0.000048781256     0.001591251004
      11       -0.000863160866    -0.000284550092    -0.004050387616
      12       -0.000286301053     0.000651221305    -0.003450268074
      13        0.002642395542     0.000200657607     0.003015633855
      14        0.000021229790    -0.000187254170     0.000274763553
      15        0.000681123935     0.001001881761    -0.001316715449
      16        0.000049992000     0.000644302983     0.001435062045


*** tstop() called on cx1-27-1-1 at Fri Sep  9 20:43:14 2016
Module time:
	user time   =      62.76 seconds =       1.05 minutes
	system time =       0.50 seconds =       0.01 minutes
	total time  =         17 seconds =       0.28 minutes
Total time:
	user time   =      92.43 seconds =       1.54 minutes
	system time =       0.98 seconds =       0.02 minutes
	total time  =         27 seconds =       0.45 minutes
CURRENT ENERGY: -212.3898808000

			-----------------------------------------
			 OPTKING 2.0: for geometry optimizations 
			  - R.A. King,  Bethel University        
			-----------------------------------------

	Internal coordinates to be generated automatically.
	Detected frag with atoms:  1 2 3 4 5 6 7 8 9 10 11 12 13 14 15 16
	---Fragment 1 Bond Connectivity---
	 1 : 2
	 2 : 1 3 4 5
	 3 : 2 6 7 8
	 4 : 2
	 5 : 2
	 6 : 3 9 10
	 7 : 3
	 8 : 3
	 9 : 6 11 12 13
	 10 : 6
	 11 : 9 14 15 16
	 12 : 9
	 13 : 9
	 14 : 11
	 15 : 11
	 16 : 11

	Assuming in current code that numbering for constraints corresponds to unified fragment.
	Frozen dihedral atom list: 
	    12     9     6     3
	---Fragment 1 Geometry and Gradient---
	 H           0.4137361851       -0.2219744096       -6.2284186911
	 C           0.3630839659        0.9023559477       -4.5171979784
	 C           0.4606675336       -0.7787614276       -2.1914345479
	 H          -1.3479496639        2.0246850850       -4.5230542397
	 H           1.9634061004        2.1850963775       -4.5674193402
	 N           0.3340388752        0.6988494507        0.1065007756
	 H          -1.1393711420       -2.0610615513       -2.2095173373
	 H           2.1550356686       -1.9585287907       -2.2654948048
	 C           0.4606675336       -0.7787614276        2.4044360990
	 H           1.7042490585        1.9971574444        0.1065007756
	 C          -1.6539378988       -0.0729902910        4.2141833528
	 H           0.2903994296       -2.7578791655        1.8956651323
	 H           2.2809707976       -0.5763320746        3.3603313866
	 H          -3.4791468918       -0.3448160568        3.3298671117
	 H          -1.5713511976       -1.2190997419        5.9096399700
	 H          -1.5114336511        1.8927368475        4.7839112154
	            -0.0000033144        0.0000370706        0.0000171470
	            -0.0000106423        0.0002565828       -0.0000959069
	            -0.0011937604       -0.0006837007        0.0024895579
	             0.0000177860       -0.0000555153       -0.0000599940
	             0.0000048533       -0.0000025788       -0.0000220249
	            -0.0057270551       -0.0042844159        0.0041011404
	            -0.0000400256       -0.0004505796        0.0002139552
	             0.0001159346       -0.0001105714        0.0006035519
	             0.0018745406        0.0033162302       -0.0047467659
	             0.0027164042       -0.0000487813        0.0015912510
	            -0.0008631609       -0.0002845501       -0.0040503876
	            -0.0002863011        0.0006512213       -0.0034502681
	             0.0026423955        0.0002006576        0.0030156339
	             0.0000212298       -0.0001872542        0.0002747636
	             0.0006811239        0.0010018818       -0.0013167154
	             0.0000499920        0.0006443030        0.0014350620

	Previous optimization step data not found.  Starting new optimization.

	---Fragment 1 Intrafragment Coordinates---
	 - Coordinate -           - BOHR/RAD -       - ANG/DEG -
	 R(1,2)           =         2.048160	       1.083840
	 R(2,3)           =         2.871385	       1.519472
	 R(2,4)           =         2.046288	       1.082849
	 R(2,5)           =         2.051579	       1.085649
	 R(3,6)           =         2.734936	       1.447266
	 R(3,7)           =         2.050547	       1.085103
	 R(3,8)           =         2.065967	       1.093263
	 R(6,9)           =         2.734936	       1.447266
	 R(6,10)          =         1.887612	       0.998881
	 R(9,11)          =         2.871385	       1.519472
	 R(9,12)          =         2.050548	       1.085103
	 R(9,13)          =         2.065966	       1.093262
	 R(11,14)         =         2.046287	       1.082849
	 R(11,15)         =         2.048160	       1.083840
	 R(11,16)         =         2.051580	       1.085649
	 B(1,2,3)         =         1.933173	     110.762653
	 B(1,2,4)         =         1.895860	     108.624763
	 B(1,2,5)         =         1.879142	     107.666922
	 B(2,3,6)         =         1.941927	     111.264199
	 B(2,3,7)         =         1.909709	     109.418240
	 B(2,3,8)         =         1.910459	     109.461259
	 B(3,2,4)         =         1.930343	     110.600490
	 B(3,2,5)         =         1.938402	     111.062259
	 B(3,6,9)         =         1.995361	     114.325736
	 B(3,6,10)        =         1.915579	     109.754617
	 B(4,2,5)         =         1.885197	     108.013824
	 B(6,3,7)         =         1.885083	     108.007303
	 B(6,3,8)         =         1.956935	     112.124113
	 B(6,9,11)        =         1.941926	     111.264180
	 B(6,9,12)        =         1.885083	     108.007292
	 B(6,9,13)        =         1.956935	     112.124096
	 B(7,3,8)         =         1.857227	     106.411259
	 B(9,6,10)        =         1.915579	     109.754617
	 B(9,11,14)       =         1.930344	     110.600545
	 B(9,11,15)       =         1.933173	     110.762635
	 B(9,11,16)       =         1.938402	     111.062264
	 B(11,9,12)       =         1.909708	     109.418214
	 B(11,9,13)       =         1.910460	     109.461286
	 B(12,9,13)       =         1.857228	     106.411307
	 B(14,11,15)      =         1.895860	     108.624775
	 B(14,11,16)      =         1.885197	     108.013831
	 B(15,11,16)      =         1.879141	     107.666860
	 D(1,2,3,6)       =        -3.117971	    -178.646606
	 D(1,2,3,7)       =        -1.036329	     -59.377272
	 D(1,2,3,8)       =         0.992614	      56.872577
	 D(2,3,6,9)       =        -3.124283	    -179.008252
	 D(2,3,6,10)      =        -0.963362	     -55.196591
	 D(3,6,9,11)      =        -2.270807	    -130.107638
	*D(3,6,9,12)      =        -0.174534	     -10.000042
	 D(3,6,9,13)      =         1.866220	     106.926516
	 D(4,2,3,6)       =        -1.015025	     -58.156665
	 D(4,2,3,7)       =         1.066617	      61.112668
	 D(4,2,3,8)       =         3.095560	     177.362517
	 D(5,2,3,6)       =         1.077963	      61.762739
	 D(5,2,3,7)       =        -3.123580	    -178.967928
	 D(5,2,3,8)       =        -1.094637	     -62.718079
	 D(6,9,11,14)     =         1.015025	      58.156662
	 D(6,9,11,15)     =         3.117972	     178.646642
	 D(6,9,11,16)     =        -1.077964	     -61.762789
	 D(7,3,6,9)       =         1.062628	      60.884102
	 D(7,3,6,10)      =        -3.059636	    -175.304237
	 D(8,3,6,9)       =        -0.978125	     -56.042415
	 D(8,3,6,10)      =         1.182796	      67.769246
	 D(10,6,9,11)     =         1.851458	     106.080701
	 D(10,6,9,12)     =        -2.335455	    -133.811703
	 D(10,6,9,13)     =        -0.294701	     -16.885145
	 D(12,9,11,14)    =        -1.066617	     -61.112629
	 D(12,9,11,15)    =         1.036330	      59.377351
	 D(12,9,11,16)    =         3.123579	     178.967920
	 D(13,9,11,14)    =        -3.095560	    -177.362536
	 D(13,9,11,15)    =        -0.992613	     -56.872556
	 D(13,9,11,16)    =         1.094636	      62.718013

	Current energy   :      -212.3898808000

	Generating empirical Hessian (Schlegel '84) for each fragment.
	Taking RFO optimization step.
	Going to follow RFO solution 1.
	Using RFO vector 1.
	Norm of target step-size    0.17341
	Projected energy change by RFO approximation:        -0.0014946190

	Back-transformation to cartesian coordinates...
	Successfully converged to displaced geometry.

	Back-transformation to cartesian coordinates to adjust frozen coordinates...
	Successfully converged to displaced geometry.

	--- Internal Coordinate Step in ANG or DEG, aJ/ANG or AJ/DEG ---
	 ---------------------------------------------------------------------------
	   Coordinate                Previous        Force       Change         New 
	   ----------                --------       ------       ------       ------
	    1 R(1,2)          =      1.083840     0.000286     0.000052     1.083891
	    2 R(2,3)          =      1.519472    -0.002207    -0.000464     1.519008
	    3 R(2,4)          =      1.082849     0.000372     0.000067     1.082916
	    4 R(2,5)          =      1.085649    -0.000022    -0.000004     1.085645
	    5 R(3,6)          =      1.447266     0.017710     0.002936     1.450202
	    6 R(3,7)          =      1.085103    -0.002563    -0.000463     1.084640
	    7 R(3,8)          =      1.093263    -0.001125    -0.000209     1.093054
	    8 R(6,9)          =      1.447266     0.083393     0.013824     1.461090
	    9 R(6,10)         =      0.998881    -0.015969    -0.002136     0.996746
	   10 R(9,11)         =      1.519472     0.015940     0.003351     1.522822
	   11 R(9,12)         =      1.085103    -0.002070    -0.000374     1.084729
	   12 R(9,13)         =      1.093262    -0.030839    -0.005728     1.087534
	   13 R(11,14)        =      1.082849     0.000929     0.000167     1.083016
	   14 R(11,15)        =      1.083840     0.013373     0.002408     1.086248
	   15 R(11,16)        =      1.085649    -0.008398    -0.001521     1.084128
	   16 B(1,2,3)        =    110.762653    -0.000001     0.004362   110.767015
	   17 B(1,2,4)        =    108.624763     0.000003     0.025986   108.650748
	   18 B(1,2,5)        =    107.666922     0.000002     0.012345   107.679267
	   19 B(2,3,6)        =    111.264199    -0.000015    -0.070865   111.193334
	   20 B(2,3,7)        =    109.418240    -0.000011    -0.191651   109.226589
	   21 B(2,3,8)        =    109.461259    -0.000028    -0.163401   109.297858
	   22 B(3,2,4)        =    110.600490    -0.000003    -0.017201   110.583289
	   23 B(3,2,5)        =    111.062259    -0.000001    -0.011893   111.050366
	   24 B(3,6,9)        =    114.325736     0.000395     1.679893   116.005630
	   25 B(3,6,10)       =    109.754617    -0.000212     0.004498   109.759116
	   26 B(4,2,5)        =    108.013824     0.000000    -0.012416   108.001409
	   27 B(6,3,7)        =    108.007303     0.000003    -0.028111   107.979192
	   28 B(6,3,8)        =    112.124113     0.000043     0.348693   112.472806
	   29 B(6,9,11)       =    111.264180     0.000281     1.220124   112.484304
	   30 B(6,9,12)       =    108.007292     0.000139     2.004749   110.012041
	   31 B(6,9,13)       =    112.124096    -0.000226    -1.720354   110.403742
	   32 B(7,3,8)        =    106.411259     0.000009     0.101643   106.512902
	   33 B(9,6,10)       =    109.754617     0.000014     1.352039   111.106657
	   34 B(9,11,14)      =    110.600545    -0.000031    -0.290277   110.310267
	   35 B(9,11,15)      =    110.762635     0.000092     0.609642   111.372276
	   36 B(9,11,16)      =    111.062264    -0.000086    -0.436392   110.625872
	   37 B(11,9,12)      =    109.418214    -0.000171    -0.015512   109.402702
	   38 B(11,9,13)      =    109.461286    -0.000030    -0.623838   108.837447
	   39 B(12,9,13)      =    106.411307    -0.000006    -0.959606   105.451701
	   40 B(14,11,15)     =    108.624775    -0.000022    -0.036309   108.588466
	   41 B(14,11,16)     =    108.013831     0.000011    -0.292590   107.721241
	   42 B(15,11,16)     =    107.666860     0.000036     0.443160   108.110021
	   43 D(1,2,3,6)      =   -178.646606     0.000003     0.300893  -178.345712
	   44 D(1,2,3,7)      =    -59.377272     0.000000     0.099496   -59.277776
	   45 D(1,2,3,8)      =     56.872577    -0.000003     0.021166    56.893743
	   46 D(2,3,6,9)      =   -179.008252    -0.000016    -1.442831  -180.451084
	   47 D(2,3,6,10)     =    -55.196591     0.000017     1.685964   -53.510627
	   48 D(3,6,9,11)     =   -130.107638    -0.000011    -2.126694  -132.234332
	   49 *D(3,6,9,12)    =    -10.000042     0.000000     0.000000   -10.000042
	   50 D(3,6,9,13)     =    106.926516    -0.000012    -0.950089   105.976427
	   51 D(4,2,3,6)      =    -58.156665     0.000003     0.325042   -57.831623
	   52 D(4,2,3,7)      =     61.112668     0.000000     0.123645    61.236313
	   53 D(4,2,3,8)      =    177.362517    -0.000002     0.045315   177.407832
	   54 D(5,2,3,6)      =     61.762739     0.000003     0.290307    62.053046
	   55 D(5,2,3,7)      =   -178.967928    -0.000000     0.088910  -178.879018
	   56 D(5,2,3,8)      =    -62.718079    -0.000003     0.010580   -62.707499
	   57 D(6,9,11,14)    =     58.156662     0.000022     1.955244    60.111906
	   58 D(6,9,11,15)    =    178.646642     0.000025     2.118539   180.765181
	   59 D(6,9,11,16)    =    -61.762789     0.000036     2.789952   -58.972837
	   60 D(7,3,6,9)      =     60.884102    -0.000011    -1.147070    59.737032
	   61 D(7,3,6,10)     =   -175.304237     0.000021     1.981725  -173.322512
	   62 D(8,3,6,9)      =    -56.042415    -0.000020    -1.454175   -57.496590
	   63 D(8,3,6,10)     =     67.769246     0.000013     1.674620    69.443866
	   64 D(10,6,9,11)    =    106.080701    -0.000016    -4.579548   101.501154
	   65 D(10,6,9,12)    =   -133.811703    -0.000005    -2.452854  -136.264557
	   66 D(10,6,9,13)    =    -16.885145    -0.000017    -3.402943   -20.288088
	   67 D(12,9,11,14)   =    -61.112629    -0.000032    -1.353603   -62.466231
	   68 D(12,9,11,15)   =     59.377351    -0.000030    -1.190308    58.187043
	   69 D(12,9,11,16)   =    178.967920    -0.000018    -0.518895   178.449025
	   70 D(13,9,11,14)   =   -177.362536    -0.000005     0.149294  -177.213242
	   71 D(13,9,11,15)   =    -56.872556    -0.000002     0.312589   -56.559967
	   72 D(13,9,11,16)   =     62.718013     0.000010     0.984002    63.702015
	 ---------------------------------------------------------------------------

  ==> Convergence Check <==

  Measures of convergence in internal coordinates in au.
  Criteria marked as inactive (o), active & met (*), and active & unmet ( ).
  --------------------------------------------------------------------------------------------- ~
   Step     Total Energy     Delta E     MAX Force     RMS Force      MAX Disp      RMS Disp    ~
  --------------------------------------------------------------------------------------------- ~
    Convergence Criteria    1.00e-06 *    3.00e-04 *             o    1.20e-03 *             o  ~
  --------------------------------------------------------------------------------------------- ~
      1    -212.38988080   -2.12e+02      1.01e-02      1.77e-03 o    7.99e-02      2.04e-02 o  ~
  ---------------------------------------------------------------------------------------------

	Writing optimization data to binary file.
	Structure for next step:
	Cartesian Geometry (in Angstrom)
	    H     0.2323442868  -0.0896517915  -3.3177934878
	    C     0.1985144464   0.4888808066  -2.4018370676
	    C     0.2619225804  -0.4212292386  -1.1873148244
	    H    -0.7142679770   1.0715204817  -2.3937444654
	    H     1.0367288793   1.1786697630  -2.4164144915
	    N     0.1783454399   0.3407396218   0.0437431545
	    H    -0.5759941609  -1.1094874483  -1.2125964819
	    H     1.1670900924  -1.0316712522  -1.2402171197
	    C     0.2192600704  -0.4349026358   1.2812770494
	    H     0.8726971732   1.0558448451   0.0452159939
	    C    -0.8762260456  -0.0303437127   2.2586358631
	    H     0.1313489079  -1.4930228154   1.0592632348
	    H     1.1846307495  -0.3203642420   1.7687919945
	    H    -1.8518515800  -0.1818631816   1.8135298913
	    H    -0.8209150475  -0.6083468339   3.1766700234
	    H    -0.7901756737   1.0193658156   2.5156172475
			--------------------------
			 OPTKING Finished Execution 
			--------------------------

    Structure for next step:
    Molecular point group: c1
    Full point group: C1

    Geometry (in Angstrom), charge = 0, multiplicity = 1:

    H            0.232211989427    -0.082636723702    -3.315308803993
    C            0.198382151612     0.495895830254    -2.399352453734
    C            0.261790280736    -0.414214145504    -1.184830303325
    H           -0.714400202095     1.078535460841    -2.391259852237
    H            1.036596520444     1.185684733994    -2.413929876575
    N            0.178213146608     0.347754656750     0.046227581543
    H           -0.576126396549    -1.102472302624    -1.210111958915
    H            1.166957723642    -1.024656112481    -1.237732594551
    C            0.219127774030    -0.427887541584     1.283761381951
    H            0.872564826927     1.062859825481     0.047700420825
    C           -0.876358258311    -0.023328649398     2.261120121055
    H            0.131216618232    -1.486007640417     1.061747584346
    H            1.184498379416    -0.313349156600     1.771276289851
    H           -1.851983718261    -0.174848106715     1.816014183258
    H           -0.821047264435    -0.601331726462     3.179154211187
    H           -0.790307893045     1.026380798772     2.518101485849

gradient() will perform analytic gradient computation.

*** tstart() called on cx1-27-1-1
*** at Fri Sep  9 20:43:15 2016


         ---------------------------------------------------------
                                   SCF
            by Justin Turney, Rob Parrish, and Andy Simmonett
                              RHF Reference
                        4 Threads,   2000 MiB Core
         ---------------------------------------------------------

  ==> Geometry <==

    Molecular point group: c1
    Full point group: C1

    Geometry (in Angstrom), charge = 0, multiplicity = 1:

       Center              X                  Y                   Z               Mass       
    ------------   -----------------  -----------------  -----------------  -----------------
           H          0.232211989427    -0.082636723702    -3.315308803993     1.007825032070
           C          0.198382151612     0.495895830254    -2.399352453734    12.000000000000
           C          0.261790280736    -0.414214145504    -1.184830303325    12.000000000000
           H         -0.714400202095     1.078535460841    -2.391259852237     1.007825032070
           H          1.036596520444     1.185684733994    -2.413929876575     1.007825032070
           N          0.178213146608     0.347754656750     0.046227581543    14.003074004780
           H         -0.576126396549    -1.102472302624    -1.210111958915     1.007825032070
           H          1.166957723642    -1.024656112481    -1.237732594551     1.007825032070
           C          0.219127774030    -0.427887541584     1.283761381951    12.000000000000
           H          0.872564826927     1.062859825481     0.047700420825     1.007825032070
           C         -0.876358258311    -0.023328649398     2.261120121055    12.000000000000
           H          0.131216618232    -1.486007640417     1.061747584346     1.007825032070
           H          1.184498379416    -0.313349156600     1.771276289851     1.007825032070
           H         -1.851983718261    -0.174848106715     1.816014183258     1.007825032070
           H         -0.821047264435    -0.601331726462     3.179154211187     1.007825032070
           H         -0.790307893045     1.026380798772     2.518101485849     1.007825032070

  Running in c1 symmetry.

  Rotational constants: A =      0.53203  B =      0.07080  C =      0.06870 [cm^-1]
  Rotational constants: A =  15949.85356  B =   2122.61050  C =   2059.55371 [MHz]
  Nuclear repulsion =  189.045414336247717

  Charge       = 0
  Multiplicity = 1
  Electrons    = 42
  Nalpha       = 21
  Nbeta        = 21

  ==> Algorithm <==

  SCF Algorithm Type is DF.
  DIIS enabled.
  MOM disabled.
  Fractional occupation disabled.
  Guess Type is READ.
  Energy threshold   = 1.00e-08
  Density threshold  = 1.00e-08
  Integral threshold = 0.00e+00

  ==> Primary Basis <==

  Basis Set: CC-PVTZ
    Number of shells: 116
    Number of basis function: 304
    Number of Cartesian functions: 340
    Spherical Harmonics?: true
    Max angular momentum: 3

  ==> Pre-Iterations <==

   -------------------------------------------------------
    Irrep   Nso     Nmo     Nalpha   Nbeta   Ndocc  Nsocc
   -------------------------------------------------------
     A        304     304       0       0       0       0
   -------------------------------------------------------
    Total     304     304      21      21      21       0
   -------------------------------------------------------

 OEINTS: Overlap, kinetic, potential, dipole, and quadrupole integrals
         stored in file 35.

  ==> Integral Setup <==

  ==> DFJK: Density-Fitted J/K Matrices <==

    J tasked:                  Yes
    K tasked:                  Yes
    wK tasked:                  No
    OpenMP threads:              4
    Integrals threads:           4
    Memory (MB):              1430
    Algorithm:                Core
    Integral Cache:           NONE
    Schwarz Cutoff:          1E-12
    Fitting Condition:       1E-12

   => Auxiliary Basis Set <=

  Basis Set: 
    Number of shells: 235
    Number of basis function: 725
    Number of Cartesian functions: 865
    Spherical Harmonics?: true
    Max angular momentum: 4

  Minimum eigenvalue in the overlap matrix is 6.9551873793E-04.
  Using Symmetric Orthogonalization.
  SCF Guess: Reading in previously saved MOs, projecting if necessary.

  Using orbitals from previous SCF, no projection.
  Recomputing DOCC and SOCC from number of alpha and beta electrons from previous calculation.
              A 
    DOCC [    21 ]

  ==> Iterations <==

                           Total Energy        Delta E     RMS |[F,P]|

   @DF-RHF iter   0:  -212.38352036439423   -2.12384e+02   2.32877e-04 
   @DF-RHF iter   1:  -212.39015113475617   -6.63077e-03   4.20412e-05 
   @DF-RHF iter   2:  -212.39026993271207   -1.18798e-04   1.63279e-05 DIIS
   @DF-RHF iter   3:  -212.39028649353625   -1.65608e-05   7.91603e-06 DIIS
   @DF-RHF iter   4:  -212.39029052347283   -4.02994e-06   1.16342e-06 DIIS
   @DF-RHF iter   5:  -212.39029069417418   -1.70701e-07   3.70806e-07 DIIS
   @DF-RHF iter   6:  -212.39029071526593   -2.10918e-08   1.12549e-07 DIIS
   @DF-RHF iter   7:  -212.39029071704115   -1.77522e-09   3.65578e-08 DIIS
   @DF-RHF iter   8:  -212.39029071724022   -1.99066e-10   9.11480e-09 DIIS

  ==> Post-Iterations <==

    Orbital Energies (a.u.)
    -----------------------

    Doubly Occupied:                                                      

       1A    -15.527072     2A    -11.240011     3A    -11.239990  
       4A    -11.206444     5A    -11.200548     6A     -1.200807  
       7A     -1.026503     8A     -0.964277     9A     -0.835740  
      10A     -0.815287    11A     -0.663858    12A     -0.625992  
      13A     -0.607764    14A     -0.566342    15A     -0.560659  
      16A     -0.524606    17A     -0.505421    18A     -0.489739  
      19A     -0.484428    20A     -0.471664    21A     -0.356619  

    Virtual:                                                              

      22A      0.141299    23A      0.158256    24A      0.168354  
      25A      0.177055    26A      0.208745    27A      0.218324  
      28A      0.221835    29A      0.235074    30A      0.243635  
      31A      0.250738    32A      0.256015    33A      0.315428  
      34A      0.324910    35A      0.353829    36A      0.358580  
      37A      0.377003    38A      0.405542    39A      0.412410  
      40A      0.437870    41A      0.464453    42A      0.489669  
      43A      0.496100    44A      0.511800    45A      0.569262  
      46A      0.586227    47A      0.599858    48A      0.605538  
      49A      0.609828    50A      0.617452    51A      0.646509  
      52A      0.648143    53A      0.655904    54A      0.663926  
      55A      0.665381    56A      0.670678    57A      0.693075  
      58A      0.698167    59A      0.709600    60A      0.743611  
      61A      0.755738    62A      0.764236    63A      0.796074  
      64A      0.805728    65A      0.826212    66A      0.868683  
      67A      0.875935    68A      0.928876    69A      0.944720  
      70A      0.957696    71A      0.999349    72A      1.034803  
      73A      1.063305    74A      1.071802    75A      1.075231  
      76A      1.126456    77A      1.154881    78A      1.167329  
      79A      1.176630    80A      1.189541    81A      1.202698  
      82A      1.234962    83A      1.243149    84A      1.265657  
      85A      1.271120    86A      1.289322    87A      1.300827  
      88A      1.315855    89A      1.321823    90A      1.337192  
      91A      1.362118    92A      1.364642    93A      1.373074  
      94A      1.390154    95A      1.395394    96A      1.416083  
      97A      1.443850    98A      1.471258    99A      1.499754  
     100A      1.509459   101A      1.520959   102A      1.522698  
     103A      1.538319   104A      1.548350   105A      1.592083  
     106A      1.596975   107A      1.614748   108A      1.633997  
     109A      1.653709   110A      1.667303   111A      1.677891  
     112A      1.709961   113A      1.725605   114A      1.762531  
     115A      1.773906   116A      1.793401   117A      1.815968  
     118A      1.840199   119A      1.859209   120A      1.934985  
     121A      1.997466   122A      2.044494   123A      2.126061  
     124A      2.185670   125A      2.227757   126A      2.519483  
     127A      2.529380   128A      2.586907   129A      2.602379  
     130A      2.624865   131A      2.642650   132A      2.677427  
     133A      2.705811   134A      2.741926   135A      2.749127  
     136A      2.777541   137A      2.788150   138A      2.831615  
     139A      2.871839   140A      2.880196   141A      2.920475  
     142A      2.938885   143A      2.962288   144A      3.015469  
     145A      3.046890   146A      3.088032   147A      3.097415  
     148A      3.115415   149A      3.120507   150A      3.127788  
     151A      3.144038   152A      3.157559   153A      3.179163  
     154A      3.206177   155A      3.217860   156A      3.226376  
     157A      3.252822   158A      3.272707   159A      3.306628  
     160A      3.325248   161A      3.328497   162A      3.335512  
     163A      3.366614   164A      3.382970   165A      3.397616  
     166A      3.413599   167A      3.417631   168A      3.428529  
     169A      3.433526   170A      3.446327   171A      3.460783  
     172A      3.485313   173A      3.500506   174A      3.518641  
     175A      3.539601   176A      3.546345   177A      3.572916  
     178A      3.589312   179A      3.602856   180A      3.618844  
     181A      3.640860   182A      3.662898   183A      3.687647  
     184A      3.744375   185A      3.764463   186A      3.765305  
     187A      3.782517   188A      3.793439   189A      3.797737  
     190A      3.810693   191A      3.824797   192A      3.842571  
     193A      3.865046   194A      3.883790   195A      3.897994  
     196A      3.905032   197A      3.933719   198A      3.969984  
     199A      3.986061   200A      4.000571   201A      4.040655  
     202A      4.067884   203A      4.088700   204A      4.121149  
     205A      4.136576   206A      4.140187   207A      4.150192  
     208A      4.158462   209A      4.185545   210A      4.196514  
     211A      4.206256   212A      4.216880   213A      4.252925  
     214A      4.267758   215A      4.279689   216A      4.285059  
     217A      4.335308   218A      4.343704   219A      4.351724  
     220A      4.372097   221A      4.386849   222A      4.390253  
     223A      4.404454   224A      4.417248   225A      4.438247  
     226A      4.445881   227A      4.457903   228A      4.484701  
     229A      4.500686   230A      4.508249   231A      4.517636  
     232A      4.561479   233A      4.571450   234A      4.606785  
     235A      4.624106   236A      4.651935   237A      4.661920  
     238A      4.687021   239A      4.705955   240A      4.732425  
     241A      4.752792   242A      4.763577   243A      4.805925  
     244A      4.841281   245A      4.855432   246A      4.918890  
     247A      4.980412   248A      5.063098   249A      5.094579  
     250A      5.109451   251A      5.127986   252A      5.186755  
     253A      5.203143   254A      5.215075   255A      5.227471  
     256A      5.242845   257A      5.262000   258A      5.274513  
     259A      5.279967   260A      5.291073   261A      5.348771  
     262A      5.375125   263A      5.422485   264A      5.441511  
     265A      5.477913   266A      5.491530   267A      5.496927  
     268A      5.511362   269A      5.550203   270A      5.658601  
     271A      5.688421   272A      5.704411   273A      5.721342  
     274A      5.733966   275A      5.740594   276A      5.749067  
     277A      5.758850   278A      5.778144   279A      5.804179  
     280A      5.857215   281A      5.882854   282A      5.896660  
     283A      5.912549   284A      5.951297   285A      5.963921  
     286A      6.009114   287A      6.136062   288A      6.172016  
     289A      6.236065   290A      6.301215   291A      6.310521  
     292A      6.317370   293A      6.320022   294A      6.343719  
     295A      6.385528   296A      6.428653   297A      6.551685  
     298A      6.588647   299A      7.031417   300A     12.312297  
     301A     13.543309   302A     13.677354   303A     14.206004  
     304A     14.321613  

    Final Occupation by Irrep:
              A 
    DOCC [    21 ]

  Energy converged.

  @DF-RHF Final Energy:  -212.39029071724022

   => Energetics <=

    Nuclear Repulsion Energy =            189.0454143362477168
    One-Electron Energy =                -660.6438742645636921
    Two-Electron Energy =                 259.2081692110754148
    DFT Exchange-Correlation Energy =       0.0000000000000000
    Empirical Dispersion Energy =           0.0000000000000000
    PCM Polarization Energy =               0.0000000000000000
    EFP Energy =                            0.0000000000000000
    Total Energy =                       -212.3902907172405321

    Alert: EFP and PCM quantities not currently incorporated into SCF psivars.

Properties will be evaluated at   0.000000,   0.000000,   0.000000 Bohr
  ==> Properties <==


Properties computed using the SCF density matrix

  Nuclear Dipole Moment: (a.u.)
     X:    -0.1222      Y:    -0.4058      Z:    -0.1636

  Electronic Dipole Moment: (a.u.)
     X:     0.4881      Y:     0.2674      Z:     0.1393

  Dipole Moment: (a.u.)
     X:     0.3659      Y:    -0.1385      Z:    -0.0243     Total:     0.3920

  Dipole Moment: (Debye)
     X:     0.9301      Y:    -0.3519      Z:    -0.0617     Total:     0.9964


  Saving occupied orbitals to File 180.

*** tstop() called on cx1-27-1-1 at Fri Sep  9 20:43:23 2016
Module time:
	user time   =      24.94 seconds =       0.42 minutes
	system time =       0.35 seconds =       0.01 minutes
	total time  =          8 seconds =       0.13 minutes
Total time:
	user time   =     118.79 seconds =       1.98 minutes
	system time =       1.38 seconds =       0.02 minutes
	total time  =         36 seconds =       0.60 minutes

*** tstart() called on cx1-27-1-1
*** at Fri Sep  9 20:43:23 2016


         ------------------------------------------------------------
                                   SCF GRAD                          
                          Rob Parrish, Justin Turney,                
                       Andy Simmonett, and Alex Sokolov              
         ------------------------------------------------------------

  ==> Geometry <==

    Molecular point group: c1
    Full point group: C1

    Geometry (in Angstrom), charge = 0, multiplicity = 1:

       Center              X                  Y                   Z               Mass       
    ------------   -----------------  -----------------  -----------------  -----------------
           H          0.232211989427    -0.082636723702    -3.315308803993     1.007825032070
           C          0.198382151612     0.495895830254    -2.399352453734    12.000000000000
           C          0.261790280736    -0.414214145504    -1.184830303325    12.000000000000
           H         -0.714400202095     1.078535460841    -2.391259852237     1.007825032070
           H          1.036596520444     1.185684733994    -2.413929876575     1.007825032070
           N          0.178213146608     0.347754656750     0.046227581543    14.003074004780
           H         -0.576126396549    -1.102472302624    -1.210111958915     1.007825032070
           H          1.166957723642    -1.024656112481    -1.237732594551     1.007825032070
           C          0.219127774030    -0.427887541584     1.283761381951    12.000000000000
           H          0.872564826927     1.062859825481     0.047700420825     1.007825032070
           C         -0.876358258311    -0.023328649398     2.261120121055    12.000000000000
           H          0.131216618232    -1.486007640417     1.061747584346     1.007825032070
           H          1.184498379416    -0.313349156600     1.771276289851     1.007825032070
           H         -1.851983718261    -0.174848106715     1.816014183258     1.007825032070
           H         -0.821047264435    -0.601331726462     3.179154211187     1.007825032070
           H         -0.790307893045     1.026380798772     2.518101485849     1.007825032070

  Nuclear repulsion =  189.045414336247717

  ==> Basis Set <==

  Basis Set: CC-PVTZ
    Number of shells: 116
    Number of basis function: 304
    Number of Cartesian functions: 340
    Spherical Harmonics?: true
    Max angular momentum: 3

  ==> DFJKGrad: Density-Fitted SCF Gradients <==

    Gradient:                    1
    J tasked:                  Yes
    K tasked:                  Yes
    wK tasked:                  No
    OpenMP threads:              4
    Integrals threads:           4
    Memory (MB):              1430
    Schwarz Cutoff:          0E+00
    Fitting Condition:       1E-12

   => Auxiliary Basis Set <=

  Basis Set: 
    Number of shells: 235
    Number of basis function: 725
    Number of Cartesian functions: 865
    Spherical Harmonics?: true
    Max angular momentum: 4


  -Total Gradient:
     Atom            X                  Y                   Z
    ------   -----------------  -----------------  -----------------
       1       -0.000076995831     0.000069525730    -0.000097942454
       2       -0.000037848401    -0.000485814663    -0.000304091069
       3       -0.000251666214     0.000522001993    -0.001746195344
       4        0.000004044463     0.000002625531     0.000003804160
       5       -0.000051051439    -0.000067371713     0.000087918762
       6        0.002885060013     0.002899830593     0.000129141422
       7       -0.000062074181     0.000129838206     0.000023705204
       8       -0.000004962645    -0.000038095931    -0.000021475586
       9       -0.004198340873    -0.002418169291    -0.000554239049
      10        0.000502003611     0.000575262645    -0.001668040811
      11        0.000499502393    -0.001034936374     0.001497089650
      12        0.001461463942    -0.000781447563     0.002085064577
      13       -0.000733057743     0.000527961979    -0.000158244701
      14        0.000576709860    -0.000053001750    -0.000238478299
      15       -0.000550648131     0.000142689135     0.000966592884
      16        0.000037861177     0.000009101473    -0.000004609348


*** tstop() called on cx1-27-1-1 at Fri Sep  9 20:43:40 2016
Module time:
	user time   =      62.63 seconds =       1.04 minutes
	system time =       0.47 seconds =       0.01 minutes
	total time  =         17 seconds =       0.28 minutes
Total time:
	user time   =     181.44 seconds =       3.02 minutes
	system time =       1.85 seconds =       0.03 minutes
	total time  =         53 seconds =       0.88 minutes
CURRENT ENERGY: -212.3902907172

			-----------------------------------------
			 OPTKING 2.0: for geometry optimizations 
			  - R.A. King,  Bethel University        
			-----------------------------------------

	Previous internal coordinate definitions found.
	---Fragment 1 Geometry and Gradient---
	 H           0.4388170648       -0.1561607763       -6.2650256855
	 C           0.3748879362        0.9371073096       -4.5341190338
	 C           0.4947119348       -0.7827512954       -2.2390047872
	 H          -1.3500207312        2.0381366456       -4.5188262333
	 H           1.9588835339        2.2406194272       -4.5616663707
	 N           0.3367740404        0.6571610627        0.0873574689
	 H          -1.0887211074       -2.0833707211       -2.2867801925
	 H           2.2052305063       -1.9363194330       -2.3389756294
	 C           0.4140914810       -0.8085902693        2.4259574319
	 H           1.6489085561        2.0085139878        0.0901407318
	 C          -1.6560771025       -0.0440847584        4.2728977824
	 H           0.2479634725       -2.8081474718        2.0064121567
	 H           2.2383775419       -0.5921440899        3.3472270935
	 H          -3.4997420301       -0.3304150365        3.4317694598
	 H          -1.5515544719       -1.1363522780        6.0077307934
	 H          -1.4934654785        1.9395786177        4.7585221831
	            -0.0000769958        0.0000695257       -0.0000979425
	            -0.0000378484       -0.0004858147       -0.0003040911
	            -0.0002516662        0.0005220020       -0.0017461953
	             0.0000040445        0.0000026255        0.0000038042
	            -0.0000510514       -0.0000673717        0.0000879188
	             0.0028850600        0.0028998306        0.0001291414
	            -0.0000620742        0.0001298382        0.0000237052
	            -0.0000049626       -0.0000380959       -0.0000214756
	            -0.0041983409       -0.0024181693       -0.0005542390
	             0.0005020036        0.0005752626       -0.0016680408
	             0.0004995024       -0.0010349364        0.0014970896
	             0.0014614639       -0.0007814476        0.0020850646
	            -0.0007330577        0.0005279620       -0.0001582447
	             0.0005767099       -0.0000530018       -0.0002384783
	            -0.0005506481        0.0001426891        0.0009665929
	             0.0000378612        0.0000091015       -0.0000046093

	---Fragment 1 Intrafragment Coordinates---
	 - Coordinate -           - BOHR/RAD -       - ANG/DEG -
	 R(1,2)           =         2.048258	       1.083891
	 R(2,3)           =         2.870509	       1.519008
	 R(2,4)           =         2.046414	       1.082916
	 R(2,5)           =         2.051571	       1.085645
	 R(3,6)           =         2.740484	       1.450202
	 R(3,7)           =         2.049672	       1.084640
	 R(3,8)           =         2.065572	       1.093054
	 R(6,9)           =         2.761060	       1.461090
	 R(6,10)          =         1.883576	       0.996746
	 R(9,11)          =         2.877717	       1.522822
	 R(9,12)          =         2.049840	       1.084729
	 R(9,13)          =         2.055141	       1.087534
	 R(11,14)         =         2.046603	       1.083016
	 R(11,15)         =         2.052710	       1.086248
	 R(11,16)         =         2.048705	       1.084128
	 B(1,2,3)         =         1.933249	     110.767015
	 B(1,2,4)         =         1.896313	     108.650748
	 B(1,2,5)         =         1.879358	     107.679267
	 B(2,3,6)         =         1.940690	     111.193334
	 B(2,3,7)         =         1.906364	     109.226589
	 B(2,3,8)         =         1.907607	     109.297858
	 B(3,2,4)         =         1.930042	     110.583289
	 B(3,2,5)         =         1.938195	     111.050366
	 B(3,6,9)         =         2.024680	     116.005630
	 B(3,6,10)        =         1.915658	     109.759116
	 B(4,2,5)         =         1.884980	     108.001409
	 B(6,3,7)         =         1.884592	     107.979192
	 B(6,3,8)         =         1.963021	     112.472806
	 B(6,9,11)        =         1.963221	     112.484304
	 B(6,9,12)        =         1.920072	     110.012041
	 B(6,9,13)        =         1.926909	     110.403742
	 B(7,3,8)         =         1.859001	     106.512902
	 B(9,6,10)        =         1.939177	     111.106657
	 B(9,11,14)       =         1.925277	     110.310267
	 B(9,11,15)       =         1.943813	     111.372276
	 B(9,11,16)       =         1.930786	     110.625872
	 B(11,9,12)       =         1.909437	     109.402702
	 B(11,9,13)       =         1.899572	     108.837447
	 B(12,9,13)       =         1.840479	     105.451701
	 B(14,11,15)      =         1.895226	     108.588466
	 B(14,11,16)      =         1.880090	     107.721241
	 B(15,11,16)      =         1.886876	     108.110021
	 D(1,2,3,6)       =        -3.112720	    -178.345712
	 D(1,2,3,7)       =        -1.034592	     -59.277776
	 D(1,2,3,8)       =         0.992983	      56.893743
	 D(2,3,6,9)       =         3.133720	     179.548916
	 D(2,3,6,10)      =        -0.933937	     -53.510627
	 D(3,6,9,11)      =        -2.307924	    -132.234332
	*D(3,6,9,12)      =        -0.174534	     -10.000042
	 D(3,6,9,13)      =         1.849638	     105.976427
	 D(4,2,3,6)       =        -1.009352	     -57.831623
	 D(4,2,3,7)       =         1.068775	      61.236313
	 D(4,2,3,8)       =         3.096351	     177.407832
	 D(5,2,3,6)       =         1.083030	      62.053046
	 D(5,2,3,7)       =        -3.122028	    -178.879018
	 D(5,2,3,8)       =        -1.094452	     -62.707499
	 D(6,9,11,14)     =         1.049151	      60.111906
	 D(6,9,11,15)     =        -3.128238	    -179.234819
	 D(6,9,11,16)     =        -1.029270	     -58.972837
	 D(7,3,6,9)       =         1.042608	      59.737032
	 D(7,3,6,10)      =        -3.025048	    -173.322512
	 D(8,3,6,9)       =        -1.003505	     -57.496590
	 D(8,3,6,10)      =         1.212024	      69.443866
	 D(10,6,9,11)     =         1.771529	     101.501154
	 D(10,6,9,12)     =        -2.378265	    -136.264557
	 D(10,6,9,13)     =        -0.354094	     -20.288088
	 D(12,9,11,14)    =        -1.090241	     -62.466231
	 D(12,9,11,15)    =         1.015555	      58.187043
	 D(12,9,11,16)    =         3.114523	     178.449025
	 D(13,9,11,14)    =        -3.092955	    -177.213242
	 D(13,9,11,15)    =        -0.987158	     -56.559967
	 D(13,9,11,16)    =         1.111810	      63.702015

	Current energy   :      -212.3902907172

	Energy change for the previous step:
		Projected    :        -0.0014946190
		Actual       :        -0.0004099172

	Performing BFGS update.
	Previous computed or guess Hessian on step 1.
	Steps to be used in Hessian update: 1
	Taking RFO optimization step.
	Going to follow RFO solution 1.
	Using RFO vector 1.
	Norm of target step-size    0.04178
	Projected energy change by RFO approximation:        -0.0002276373

	Back-transformation to cartesian coordinates...
	Successfully converged to displaced geometry.

	Back-transformation to cartesian coordinates to adjust frozen coordinates...
	Successfully converged to displaced geometry.

	--- Internal Coordinate Step in ANG or DEG, aJ/ANG or AJ/DEG ---
	 ---------------------------------------------------------------------------
	   Coordinate                Previous        Force       Change         New 
	   ----------                --------       ------       ------       ------
	    1 R(1,2)          =      1.083891    -0.000356    -0.000044     1.083847
	    2 R(2,3)          =      1.519008     0.000275     0.000022     1.519030
	    3 R(2,4)          =      1.082916     0.000016     0.000005     1.082921
	    4 R(2,5)          =      1.085645     0.000687     0.000090     1.085735
	    5 R(3,6)          =      1.450202    -0.013565    -0.001503     1.448699
	    6 R(3,7)          =      1.084640     0.000288     0.000018     1.084658
	    7 R(3,8)          =      1.093054    -0.000150    -0.000029     1.093025
	    8 R(6,9)          =      1.461090    -0.040182    -0.004233     1.456857
	    9 R(6,10)         =      0.996746    -0.006261    -0.000697     0.996049
	   10 R(9,11)         =      1.522822    -0.006354    -0.000824     1.521998
	   11 R(9,12)         =      1.084729    -0.001788    -0.000250     1.084479
	   12 R(9,13)         =      1.087534     0.005487     0.000493     1.088027
	   13 R(11,14)        =      1.083016     0.003412     0.000450     1.083466
	   14 R(11,15)        =      1.086248    -0.005874    -0.000663     1.085585
	   15 R(11,16)        =      1.084128    -0.000088    -0.000077     1.084052
	   16 B(1,2,3)        =    110.767015    -0.000015    -0.061192   110.705823
	   17 B(1,2,4)        =    108.650748     0.000006     0.017789   108.668537
	   18 B(1,2,5)        =    107.679267    -0.000001    -0.016901   107.662366
	   19 B(2,3,6)        =    111.193334    -0.000067    -0.182267   111.011067
	   20 B(2,3,7)        =    109.226589     0.000024     0.096372   109.322962
	   21 B(2,3,8)        =    109.297858     0.000017    -0.020679   109.277179
	   22 B(3,2,4)        =    110.583289     0.000002     0.013155   110.596443
	   23 B(3,2,5)        =    111.050366     0.000011     0.039545   111.089910
	   24 B(3,6,9)        =    116.005630    -0.000069    -0.095030   115.910599
	   25 B(3,6,10)       =    109.759116     0.000108     0.485209   110.244325
	   26 B(4,2,5)        =    108.001409    -0.000003     0.008218   108.009627
	   27 B(6,3,7)        =    107.979192     0.000025     0.111061   108.090253
	   28 B(6,3,8)        =    112.472806     0.000016    -0.007632   112.465174
	   29 B(6,9,11)       =    112.484304    -0.000152    -0.346463   112.137841
	   30 B(6,9,12)       =    110.012041    -0.000097    -0.883024   109.129017
	   31 B(6,9,13)       =    110.403742     0.000092     0.377248   110.780990
	   32 B(7,3,8)        =    106.512902    -0.000011     0.018077   106.530979
	   33 B(9,6,10)       =    111.106657    -0.000076    -0.407877   110.698779
	   34 B(9,11,14)      =    110.310267     0.000068     0.248247   110.558514
	   35 B(9,11,15)      =    111.372276    -0.000108    -0.392953   110.979324
	   36 B(9,11,16)      =    110.625872     0.000014     0.054111   110.679983
	   37 B(11,9,12)      =    109.402702     0.000120     0.336704   109.739406
	   38 B(11,9,13)      =    108.837447     0.000058     0.484014   109.321462
	   39 B(12,9,13)      =    105.451701    -0.000009     0.065321   105.517022
	   40 B(14,11,15)     =    108.588466     0.000011    -0.009761   108.578705
	   41 B(14,11,16)     =    107.721241    -0.000021     0.019709   107.740950
	   42 B(15,11,16)     =    108.110021     0.000037     0.088874   108.198894
	   43 D(1,2,3,6)      =   -178.345712    -0.000002    -0.226907  -178.572619
	   44 D(1,2,3,7)      =    -59.277776    -0.000001    -0.140439   -59.418216
	   45 D(1,2,3,8)      =     56.893743     0.000001    -0.076206    56.817537
	   46 D(2,3,6,9)      =    179.548916     0.000010     0.423297   179.972214
	   47 D(2,3,6,10)     =    -53.510627    -0.000005     0.209370   -53.301258
	   48 D(3,6,9,11)     =   -132.234332     0.000005     0.428605  -131.805727
	   49 *D(3,6,9,12)    =    -10.000042    -0.000000     0.000000   -10.000042
	   50 D(3,6,9,13)     =    105.976427    -0.000003    -0.223830   105.752596
	   51 D(4,2,3,6)      =    -57.831623    -0.000002    -0.236204   -58.067827
	   52 D(4,2,3,7)      =     61.236313    -0.000001    -0.149737    61.086576
	   53 D(4,2,3,8)      =    177.407832     0.000001    -0.085503   177.322329
	   54 D(5,2,3,6)      =     62.053046    -0.000001    -0.191292    61.861754
	   55 D(5,2,3,7)      =   -178.879018     0.000000    -0.104824  -178.983842
	   56 D(5,2,3,8)      =    -62.707499     0.000002    -0.040591   -62.748089
	   57 D(6,9,11,14)    =     60.111906    -0.000013    -0.626968    59.484938
	   58 D(6,9,11,15)    =   -179.234819    -0.000015    -0.732964  -179.967783
	   59 D(6,9,11,16)    =    -58.972837    -0.000018    -0.844849   -59.817686
	   60 D(7,3,6,9)      =     59.737032     0.000009     0.343684    60.080716
	   61 D(7,3,6,10)     =   -173.322512    -0.000007     0.129756  -173.192756
	   62 D(8,3,6,9)      =    -57.496590     0.000006     0.255590   -57.241000
	   63 D(8,3,6,10)     =     69.443866    -0.000009     0.041663    69.485529
	   64 D(10,6,9,11)    =    101.501154    -0.000001     0.194931   101.696085
	   65 D(10,6,9,12)    =   -136.264557    -0.000006    -0.233673  -136.498230
	   66 D(10,6,9,13)    =    -20.288088    -0.000009    -0.457504   -20.745591
	   67 D(12,9,11,14)   =    -62.466231     0.000020     0.495130   -61.971101
	   68 D(12,9,11,15)   =     58.187043     0.000017     0.389134    58.576177
	   69 D(12,9,11,16)   =    178.449025     0.000014     0.277249   178.726274
	   70 D(13,9,11,14)   =   -177.213242     0.000000    -0.035232  -177.248474
	   71 D(13,9,11,15)   =    -56.559967    -0.000002    -0.141228   -56.701195
	   72 D(13,9,11,16)   =     63.702015    -0.000006    -0.253113    63.448902
	 ---------------------------------------------------------------------------

  ==> Convergence Check <==

  Measures of convergence in internal coordinates in au.
  Criteria marked as inactive (o), active & met (*), and active & unmet ( ).
  ---------------------------------------------------------------------------------------------
   Step     Total Energy     Delta E     MAX Force     RMS Force      MAX Disp      RMS Disp   
  ---------------------------------------------------------------------------------------------
    Convergence Criteria    1.00e-06 *    3.00e-04 *             o    1.20e-03 *             o
  ---------------------------------------------------------------------------------------------
      2    -212.39029072   -4.10e-04      4.88e-03      8.68e-04 o    1.54e-02      4.92e-03 o  ~
  ---------------------------------------------------------------------------------------------

	Writing optimization data to binary file.
	Structure for next step:
	Cartesian Geometry (in Angstrom)
	    H     0.2325703137  -0.0848624838  -3.3091802830
	    C     0.1971527368   0.4940644997  -2.3935855173
	    C     0.2578041967  -0.4168458229  -1.1794950665
	    H    -0.7154007168   1.0770931259  -2.3871984063
	    H     1.0358480526   1.1834325864  -2.4070723818
	    N     0.1772920374   0.3479564034   0.0482362658
	    H    -0.5811915155  -1.1038456818  -1.2039753751
	    H     1.1621875153  -1.0284269242  -1.2320501537
	    C     0.2252994228  -0.4235059289   1.2831346758
	    H     0.8689140801   1.0647144009   0.0537832258
	    C    -0.8760293185  -0.0215461337   2.2536926021
	    H     0.1382236367  -1.4783332952   1.0468061828
	    H     1.1920747387  -0.3131193291   1.7699239499
	    H    -1.8511304946  -0.1697800005   1.8052474463
	    H    -0.8224775037  -0.6068837914   3.1663841121
	    H    -0.7898015147   1.0262675411   2.5179261269
			--------------------------
			 OPTKING Finished Execution 
			--------------------------

    Structure for next step:
    Molecular point group: c1
    Full point group: C1

    Geometry (in Angstrom), charge = 0, multiplicity = 1:

    H            0.232540799372    -0.085154185843    -3.309995567430
    C            0.197123225226     0.493772753514    -2.394400871592
    C            0.257774680499    -0.417137499525    -1.180310513539
    H           -0.715430158762     1.076801335111    -2.388013761146
    H            1.035818476921     1.183140787567    -2.407887735068
    N            0.177262527326     0.347664668349     0.047420724962
    H           -0.581220967717    -1.104137305982    -1.204790820297
    H            1.162157930024    -1.028718554187    -1.232865596745
    C            0.225269909073    -0.423797605055     1.282319040730
    H            0.868884517178     1.064422611085     0.052967684577
    C           -0.876058748110    -0.021837840558     2.252876892848
    H            0.138194129630    -1.478624890762     1.045990565741
    H            1.192045151068    -0.313411013638     1.769108277682
    H           -1.851159849799    -0.170071696050     1.804431771385
    H           -0.822506937475    -0.607175453581     3.165568333172
    H           -0.789830950918     1.025975754226     2.517110397542

gradient() will perform analytic gradient computation.

*** tstart() called on cx1-27-1-1
*** at Fri Sep  9 20:43:40 2016


         ---------------------------------------------------------
                                   SCF
            by Justin Turney, Rob Parrish, and Andy Simmonett
                              RHF Reference
                        4 Threads,   2000 MiB Core
         ---------------------------------------------------------

  ==> Geometry <==

    Molecular point group: c1
    Full point group: C1

    Geometry (in Angstrom), charge = 0, multiplicity = 1:

       Center              X                  Y                   Z               Mass       
    ------------   -----------------  -----------------  -----------------  -----------------
           H          0.232540799372    -0.085154185843    -3.309995567430     1.007825032070
           C          0.197123225226     0.493772753514    -2.394400871592    12.000000000000
           C          0.257774680499    -0.417137499525    -1.180310513539    12.000000000000
           H         -0.715430158762     1.076801335111    -2.388013761146     1.007825032070
           H          1.035818476921     1.183140787567    -2.407887735068     1.007825032070
           N          0.177262527326     0.347664668349     0.047420724962    14.003074004780
           H         -0.581220967717    -1.104137305982    -1.204790820297     1.007825032070
           H          1.162157930024    -1.028718554187    -1.232865596745     1.007825032070
           C          0.225269909073    -0.423797605055     1.282319040730    12.000000000000
           H          0.868884517178     1.064422611085     0.052967684577     1.007825032070
           C         -0.876058748110    -0.021837840558     2.252876892848    12.000000000000
           H          0.138194129630    -1.478624890762     1.045990565741     1.007825032070
           H          1.192045151068    -0.313411013638     1.769108277682     1.007825032070
           H         -1.851159849799    -0.170071696050     1.804431771385     1.007825032070
           H         -0.822506937475    -0.607175453581     3.165568333172     1.007825032070
           H         -0.789830950918     1.025975754226     2.517110397542     1.007825032070

  Running in c1 symmetry.

  Rotational constants: A =      0.53055  B =      0.07118  C =      0.06907 [cm^-1]
  Rotational constants: A =  15905.56890  B =   2133.86909  C =   2070.56143 [MHz]
  Nuclear repulsion =  189.311217129880703

  Charge       = 0
  Multiplicity = 1
  Electrons    = 42
  Nalpha       = 21
  Nbeta        = 21

  ==> Algorithm <==

  SCF Algorithm Type is DF.
  DIIS enabled.
  MOM disabled.
  Fractional occupation disabled.
  Guess Type is READ.
  Energy threshold   = 1.00e-08
  Density threshold  = 1.00e-08
  Integral threshold = 0.00e+00

  ==> Primary Basis <==

  Basis Set: CC-PVTZ
    Number of shells: 116
    Number of basis function: 304
    Number of Cartesian functions: 340
    Spherical Harmonics?: true
    Max angular momentum: 3

  ==> Pre-Iterations <==

   -------------------------------------------------------
    Irrep   Nso     Nmo     Nalpha   Nbeta   Ndocc  Nsocc
   -------------------------------------------------------
     A        304     304       0       0       0       0
   -------------------------------------------------------
    Total     304     304      21      21      21       0
   -------------------------------------------------------

 OEINTS: Overlap, kinetic, potential, dipole, and quadrupole integrals
         stored in file 35.

  ==> Integral Setup <==

  ==> DFJK: Density-Fitted J/K Matrices <==

    J tasked:                  Yes
    K tasked:                  Yes
    wK tasked:                  No
    OpenMP threads:              4
    Integrals threads:           4
    Memory (MB):              1430
    Algorithm:                Core
    Integral Cache:           NONE
    Schwarz Cutoff:          1E-12
    Fitting Condition:       1E-12

   => Auxiliary Basis Set <=

  Basis Set: 
    Number of shells: 235
    Number of basis function: 725
    Number of Cartesian functions: 865
    Spherical Harmonics?: true
    Max angular momentum: 4

  Minimum eigenvalue in the overlap matrix is 6.8834639034E-04.
  Using Symmetric Orthogonalization.
  SCF Guess: Reading in previously saved MOs, projecting if necessary.

  Using orbitals from previous SCF, no projection.
  Recomputing DOCC and SOCC from number of alpha and beta electrons from previous calculation.
              A 
    DOCC [    21 ]

  ==> Iterations <==

                           Total Energy        Delta E     RMS |[F,P]|

   @DF-RHF iter   0:  -212.39317622169975   -2.12393e+02   5.44515e-05 
   @DF-RHF iter   1:  -212.39039751929474    2.77870e-03   6.83114e-06 
   @DF-RHF iter   2:  -212.39040119071350   -3.67142e-06   2.28093e-06 DIIS
   @DF-RHF iter   3:  -212.39040167631120   -4.85598e-07   8.74256e-07 DIIS
   @DF-RHF iter   4:  -212.39040173330804   -5.69968e-08   2.43780e-07 DIIS
   @DF-RHF iter   5:  -212.39040173851581   -5.20777e-09   7.41517e-08 DIIS
   @DF-RHF iter   6:  -212.39040173921191   -6.96105e-10   2.32181e-08 DIIS
   @DF-RHF iter   7:  -212.39040173927955   -6.76437e-11   7.69998e-09 DIIS

  ==> Post-Iterations <==

    Orbital Energies (a.u.)
    -----------------------

    Doubly Occupied:                                                      

       1A    -15.526331     2A    -11.240011     3A    -11.239295  
       4A    -11.206380     5A    -11.200287     6A     -1.202379  
       7A     -1.026655     8A     -0.963965     9A     -0.835903  
      10A     -0.815644    11A     -0.664557    12A     -0.626236  
      13A     -0.608251    14A     -0.566079    15A     -0.560348  
      16A     -0.525138    17A     -0.505880    18A     -0.490102  
      19A     -0.483995    20A     -0.471429    21A     -0.356546  

    Virtual:                                                              

      22A      0.141369    23A      0.158401    24A      0.168219  
      25A      0.176939    26A      0.208821    27A      0.218346  
      28A      0.221928    29A      0.235232    30A      0.244057  
      31A      0.251050    32A      0.255902    33A      0.315378  
      34A      0.325023    35A      0.354102    36A      0.358554  
      37A      0.376851    38A      0.405337    39A      0.412117  
      40A      0.437987    41A      0.464257    42A      0.490702  
      43A      0.497582    44A      0.512324    45A      0.570917  
      46A      0.586027    47A      0.600134    48A      0.605559  
      49A      0.609878    50A      0.617197    51A      0.646099  
      52A      0.648037    53A      0.656240    54A      0.663940  
[...]


*** tstop() called on cx1-27-1-1 at Fri Sep  9 20:44:54 2016
Module time:
	user time   =      63.57 seconds =       1.06 minutes
	system time =       0.50 seconds =       0.01 minutes
	total time  =         17 seconds =       0.28 minutes
Total time:
	user time   =     445.21 seconds =       7.42 minutes
	system time =       4.37 seconds =       0.07 minutes
	total time  =        127 seconds =       2.12 minutes
CURRENT ENERGY: -212.3904057828

			-----------------------------------------
			 OPTKING 2.0: for geometry optimizations 
			  - R.A. King,  Bethel University        
			-----------------------------------------

	Previous internal coordinate definitions found.
	---Fragment 1 Geometry and Gradient---
	 H           0.4387205840       -0.1589876582       -6.2548403955
	 C           0.3727660971        0.9338689205       -4.5237897562
	 C           0.4867948183       -0.7877393882       -2.2289708307
	 H          -1.3507354652        2.0370691523       -4.5108983212
	 H           1.9589670828        2.2349329330       -4.5484310445
	 N           0.3349117745        0.6545830152        0.0897694665
	 H          -1.0992164141       -2.0853718877       -2.2757201057
	 H           2.1950034191       -1.9451588999       -2.3300232374
	 C           0.4252681924       -0.8010887041        2.4223047326
	 H           1.6322525695        2.0179983116        0.0999459513
	 C          -1.6543755434       -0.0404728124        4.2557569620
	 H           0.2604556808       -2.7945136322        1.9745890256
	 H           2.2521898111       -0.5951389173        3.3447802749
	 H          -3.4967407903       -0.3232355198        3.4089667643
	 H          -1.5522354125       -1.1428834745        5.9825890594
	 H          -1.4919164693        1.9406733966        4.7511805322
	             0.0000026626        0.0000068953       -0.0000148977
	             0.0000041818       -0.0000071098       -0.0000073809
	            -0.0013604788       -0.0001293265        0.0000091838
	             0.0000043290       -0.0000119792        0.0000097230
	             0.0000016182       -0.0000038910        0.0000033893
	             0.0023216797        0.0001785876       -0.0000462720
	             0.0000040650       -0.0000022058       -0.0000028223
	            -0.0000080994        0.0000174337       -0.0000011705
	            -0.0027090871        0.0000705597        0.0002135430
	             0.0000150613        0.0000114912        0.0000035122
	             0.0000244987       -0.0000014808       -0.0000058473
	             0.0016909148       -0.0001198419       -0.0001467145
	             0.0000020624        0.0000058746        0.0000047925
	             0.0000089424       -0.0000032197       -0.0000021507
	            -0.0000091043        0.0000014810       -0.0000026641
	             0.0000067539       -0.0000132683       -0.0000142239

	---Fragment 1 Intrafragment Coordinates---
	 - Coordinate -           - BOHR/RAD -       - ANG/DEG -
	 R(1,2)           =         2.048224	       1.083874
	 R(2,3)           =         2.871085	       1.519313
	 R(2,4)           =         2.046381	       1.082898
	 R(2,5)           =         2.051684	       1.085705
	 R(3,6)           =         2.734944	       1.447270
	 R(3,7)           =         2.049748	       1.084680
	 R(3,8)           =         2.065867	       1.093210
	 R(6,9)           =         2.750975	       1.455754
	 R(6,10)          =         1.882046	       0.995936
	 R(9,11)          =         2.874892	       1.521327
	 R(9,12)          =         2.049721	       1.084666
	 R(9,13)          =         2.056944	       1.088488
	 R(11,14)         =         2.047271	       1.083369
	 R(11,15)         =         2.051266	       1.085483
	 R(11,16)         =         2.048604	       1.084075
	 B(1,2,3)         =         1.932953	     110.750030
	 B(1,2,4)         =         1.896618	     108.668193
	 B(1,2,5)         =         1.878961	     107.656541
	 B(2,3,6)         =         1.938224	     111.052049
	 B(2,3,7)         =         1.907790	     109.308305
	 B(2,3,8)         =         1.906776	     109.250233
	 B(3,2,4)         =         1.930159	     110.589963
	 B(3,2,5)         =         1.938154	     111.048030
	 B(3,6,9)         =         2.024149	     115.975187
	 B(3,6,10)        =         1.926602	     110.386167
	 B(4,2,5)         =         1.885303	     108.019905
	 B(6,3,7)         =         1.886228	     108.072908
	 B(6,3,8)         =         1.963679	     112.510546
	 B(6,9,11)        =         1.957334	     112.147000
	 B(6,9,12)        =         1.903680	     109.072839
	 B(6,9,13)        =         1.935257	     110.882085
	 B(7,3,8)         =         1.858762	     106.499203
	 B(9,6,10)        =         1.934894	     110.861238
	 B(9,11,14)       =         1.929066	     110.527345
	 B(9,11,15)       =         1.937639	     111.018552
	 B(9,11,16)       =         1.931276	     110.653985
	 B(11,9,12)       =         1.916057	     109.781971
	 B(11,9,13)       =         1.907087	     109.268062
	 B(12,9,13)       =         1.840813	     105.470834
	 B(14,11,15)      =         1.895240	     108.589273
	 B(14,11,16)      =         1.880694	     107.755850
	 B(15,11,16)      =         1.888303	     108.191767
	 D(1,2,3,6)       =        -3.116211	    -178.545760
	 D(1,2,3,7)       =        -1.036671	     -59.396871
	 D(1,2,3,8)       =         0.990952	      56.777369
	 D(2,3,6,9)       =         3.141251	     179.980440
	 D(2,3,6,10)      =        -0.923077	     -52.888392
	 D(3,6,9,11)      =        -2.300809	    -131.826661
	*D(3,6,9,12)      =        -0.174534	     -10.000042
	 D(3,6,9,13)      =         1.845179	     105.720949
	 D(4,2,3,6)       =        -1.012580	     -58.016539
	 D(4,2,3,7)       =         1.066961	      61.132350
	 D(4,2,3,8)       =         3.094584	     177.306590
	 D(5,2,3,6)       =         1.080258	      61.894229
	 D(5,2,3,7)       =        -3.123387	    -178.956882
	 D(5,2,3,8)       =        -1.095764	     -62.782642
	 D(6,9,11,14)     =         1.039639	      59.566953
	 D(6,9,11,15)     =        -3.139276	    -179.867290
	 D(6,9,11,16)     =        -1.042268	     -59.717536
	 D(7,3,6,9)       =         1.048827	      60.093379
	 D(7,3,6,10)      =        -3.015501	    -172.775453
	 D(8,3,6,9)       =        -0.998410	     -57.204667
	 D(8,3,6,10)      =         1.220448	      69.926502
	 D(10,6,9,11)     =         1.767658	     101.279328
	 D(10,6,9,12)     =        -2.389252	    -136.894054
	 D(10,6,9,13)     =        -0.369540	     -21.173062
	 D(12,9,11,14)    =        -1.079547	     -61.853494
	 D(12,9,11,15)    =         1.024722	      58.712262
	 D(12,9,11,16)    =         3.121731	     178.862017
	 D(13,9,11,14)    =        -3.090439	    -177.069127
	 D(13,9,11,15)    =        -0.986170	     -56.503371
	 D(13,9,11,16)    =         1.110839	      63.646384

	Current energy   :      -212.3904057828

	Energy change for the previous step:
		Projected    :        -0.0000026090
		Actual       :        -0.0000005626
	Energy ratio indicates iffy step: Trust radius decreased to 1.250e-01.


	Performing BFGS update.
	Previous computed or guess Hessian on step 1.
	Steps to be used in Hessian update: 4 3
	Taking RFO optimization step.
	Going to follow RFO solution 1.
	Using RFO vector 1.
	Norm of target step-size    0.00150
	Projected energy change by RFO approximation:        -0.0000001325

	Back-transformation to cartesian coordinates...
	Successfully converged to displaced geometry.

	Back-transformation to cartesian coordinates to adjust frozen coordinates...
	Successfully converged to displaced geometry.

	--- Internal Coordinate Step in ANG or DEG, aJ/ANG or AJ/DEG ---
	 ---------------------------------------------------------------------------
	   Coordinate                Previous        Force       Change         New 
	   ----------                --------       ------       ------       ------
	    1 R(1,2)          =      1.083874    -0.000074    -0.000015     1.083858
	    2 R(2,3)          =      1.519313     0.000023     0.000009     1.519322
	    3 R(2,4)          =      1.082898     0.000083     0.000016     1.082914
	    4 R(2,5)          =      1.085705     0.000010     0.000003     1.085707
	    5 R(3,6)          =      1.447270     0.000025    -0.000027     1.447243
	    6 R(3,7)          =      1.084680     0.000014     0.000006     1.084686
	    7 R(3,8)          =      1.093210     0.000135     0.000032     1.093242
	    8 R(6,9)          =      1.455754    -0.000321    -0.000090     1.455664
	    9 R(6,10)         =      0.995936    -0.000154    -0.000025     0.995911
	   10 R(9,11)         =      1.521327     0.000352     0.000073     1.521400
	   11 R(9,12)         =      1.084666    -0.000104    -0.000017     1.084649
	   12 R(9,13)         =      1.088488    -0.000038     0.000004     1.088492
	   13 R(11,14)        =      1.083369     0.000055     0.000010     1.083379
	   14 R(11,15)        =      1.085483     0.000029     0.000003     1.085486
	   15 R(11,16)        =      1.084075     0.000130     0.000025     1.084100
	   16 B(1,2,3)        =    110.750030    -0.000002    -0.010108   110.739922
	   17 B(1,2,4)        =    108.668193     0.000000    -0.000855   108.667338
	   18 B(1,2,5)        =    107.656541     0.000000     0.000986   107.657527
	   19 B(2,3,6)        =    111.052049    -0.000000    -0.000921   111.051128
	   20 B(2,3,7)        =    109.308305     0.000000    -0.003774   109.304532
	   21 B(2,3,8)        =    109.250233     0.000001     0.004915   109.255148
	   22 B(3,2,4)        =    110.589963     0.000002     0.007980   110.597944
	   23 B(3,2,5)        =    111.048030     0.000001     0.003088   111.051118
	   24 B(3,6,9)        =    115.975187     0.000004     0.016571   115.991758
	   25 B(3,6,10)       =    110.386167    -0.000002     0.002222   110.388389
	   26 B(4,2,5)        =    108.019905    -0.000001    -0.001146   108.018758
	   27 B(6,3,7)        =    108.072908    -0.000000    -0.004614   108.068294
	   28 B(6,3,8)        =    112.510546     0.000000     0.006479   112.517025
	   29 B(6,9,11)       =    112.147000     0.000001     0.004989   112.151989
	   30 B(6,9,12)       =    109.072839     0.000000     0.002264   109.075103
	   31 B(6,9,13)       =    110.882085    -0.000000    -0.000823   110.881262
	   32 B(7,3,8)        =    106.499203    -0.000000    -0.002575   106.496629
	   33 B(9,6,10)       =    110.861238    -0.000001     0.003403   110.864640
	   34 B(9,11,14)      =    110.527345     0.000001     0.005652   110.532998
	   35 B(9,11,15)      =    111.018552    -0.000001    -0.006697   111.011855
	   36 B(9,11,16)      =    110.653985     0.000001     0.006286   110.660270
	   37 B(11,9,12)      =    109.781971    -0.000001     0.000594   109.782565
	   38 B(11,9,13)      =    109.268062    -0.000000    -0.000625   109.267437
	   39 B(12,9,13)      =    105.470834    -0.000000    -0.007119   105.463715
	   40 B(14,11,15)     =    108.589273     0.000000     0.000659   108.589932
	   41 B(14,11,16)     =    107.755850    -0.000001    -0.001119   107.754731
	   42 B(15,11,16)     =    108.191767    -0.000000    -0.004920   108.186847
	   43 D(1,2,3,6)      =   -178.545760     0.000000     0.021667  -178.524093
	   44 D(1,2,3,7)      =    -59.396871    -0.000000     0.012997   -59.383874
	   45 D(1,2,3,8)      =     56.777369    -0.000000     0.010553    56.787923
	   46 D(2,3,6,9)      =    179.980440    -0.000000    -0.002965   179.977475
	   47 D(2,3,6,10)     =    -52.888392    -0.000000     0.017596   -52.870796
	   48 D(3,6,9,11)     =   -131.826661    -0.000000    -0.005613  -131.832274
	   49 *D(3,6,9,12)    =    -10.000042    -0.000000     0.000000   -10.000042
	   50 D(3,6,9,13)     =    105.720949    -0.000000    -0.007755   105.713194
	   51 D(4,2,3,6)      =    -58.016539     0.000000     0.019203   -57.997337
	   52 D(4,2,3,7)      =     61.132350    -0.000000     0.010533    61.142883
	   53 D(4,2,3,8)      =    177.306590    -0.000000     0.008090   177.314679
	   54 D(5,2,3,6)      =     61.894229     0.000000     0.025054    61.919283
	   55 D(5,2,3,7)      =   -178.956882     0.000000     0.016384  -178.940498
	   56 D(5,2,3,8)      =    -62.782642     0.000000     0.013941   -62.768701
	   57 D(6,9,11,14)    =     59.566953     0.000000     0.001848    59.568802
	   58 D(6,9,11,15)    =   -179.867290     0.000000     0.002018  -179.865272
	   59 D(6,9,11,16)    =    -59.717536    -0.000000    -0.004416   -59.721952
	   60 D(7,3,6,9)      =     60.093379    -0.000000     0.005129    60.098507
	   61 D(7,3,6,10)     =   -172.775453     0.000000     0.025689  -172.749764
	   62 D(8,3,6,9)      =    -57.204667     0.000000     0.007456   -57.197210
	   63 D(8,3,6,10)     =     69.926502     0.000000     0.028017    69.954519
	   64 D(10,6,9,11)    =    101.279328    -0.000000    -0.025724   101.253603
	   65 D(10,6,9,12)    =   -136.894054    -0.000000    -0.020111  -136.914165
	   66 D(10,6,9,13)    =    -21.173062    -0.000000    -0.027867   -21.200929
	   67 D(12,9,11,14)   =    -61.853494    -0.000000    -0.004786   -61.858280
	   68 D(12,9,11,15)   =     58.712262    -0.000000    -0.004616    58.707646
	   69 D(12,9,11,16)   =    178.862017    -0.000000    -0.011050   178.850966
	   70 D(13,9,11,14)   =   -177.069127     0.000000     0.003772  -177.065355
	   71 D(13,9,11,15)   =    -56.503371     0.000000     0.003942   -56.499428
	   72 D(13,9,11,16)   =     63.646384    -0.000000    -0.002492    63.643892
	 ---------------------------------------------------------------------------

  ==> Convergence Check <==

  Measures of convergence in internal coordinates in au.
  Criteria marked as inactive (o), active & met (*), and active & unmet ( ).
  ---------------------------------------------------------------------------------------------
   Step     Total Energy     Delta E     MAX Force     RMS Force      MAX Disp      RMS Disp   
  ---------------------------------------------------------------------------------------------
    Convergence Criteria    1.00e-06 *    3.00e-04 *             o    1.20e-03 *             o
  ---------------------------------------------------------------------------------------------
      5    -212.39040578   -5.63e-07 *    4.94e-05 *    1.21e-05 o    4.89e-04 *    1.77e-04 o  ~
  ---------------------------------------------------------------------------------------------


  **** Optimization is complete! (in 5 steps) ****

  ==> Optimization Summary <==

  Measures of convergence in internal coordinates in au.
  --------------------------------------------------------------------------------------------------------------- ~
   Step         Total Energy             Delta E       MAX Force       RMS Force        MAX Disp        RMS Disp  ~
  --------------------------------------------------------------------------------------------------------------- ~
      1    -212.389880800032   -212.389880800032      0.01012205      0.00177211      0.07992818      0.02043188  ~
      2    -212.390290717240     -0.000409917208      0.00487725      0.00086831      0.01541168      0.00492401  ~
      3    -212.390401739280     -0.000111022039      0.00077176      0.00013754      0.00541239      0.00180008  ~
      4    -212.390405220230     -0.000003480950      0.00026892      0.00004254      0.00336099      0.00090980  ~
      5    -212.390405782803     -0.000000562573      0.00004945      0.00001209      0.00048899      0.00017695  ~
  --------------------------------------------------------------------------------------------------------------- ~

	Writing optimization data to binary file.
	Final energy is   -212.3904057828030
	Final (previous) structure:
	Cartesian Geometry (in Angstrom)
	    H     0.2321609517  -0.0841326516  -3.3099192334
	    C     0.1972593378   0.4941821863  -2.3938866183
	    C     0.2576007427  -0.4168537624  -1.1795206523
	    H    -0.7147784776   1.0779706500  -2.3870647642
	    H     1.0366408118   1.1826756612  -2.4069262274
	    N     0.1772276915   0.3463904392   0.0475039593
	    H    -0.5816803180  -1.1035313587  -1.2042593050
	    H     1.1615458708  -1.0293338355  -1.2329952869
	    C     0.2250422522  -0.4239179167   1.2818285546
	    H     0.8637509244   1.0678787950   0.0528891236
	    C    -0.8754578989  -0.0214172915   2.2520497616
	    H     0.1378272206  -1.4787930362   1.0449075885
	    H     1.1918076085  -0.3149339750   1.7699816244
	    H    -1.8503956719  -0.1710488831   1.8039476543
	    H    -0.8214076654  -0.6047879330   3.1658500203
	    H    -0.7894882529   1.0269602092   2.5142166435
	Saving final (previous) structure.
			--------------------------
			 OPTKING Finished Execution 
			--------------------------

    Final optimized geometry and variables:
    Molecular point group: c1
    Full point group: C1

    Geometry (in Angstrom), charge = 0, multiplicity = 1:

    H            0.232160933984    -0.084132645187    -3.309918980685
    C            0.197259322742     0.494182148553    -2.393886435448
    C            0.257600723078    -0.416853730567    -1.179520562243
    H           -0.714778423024     1.077970567727    -2.387064581871
    H            1.036640732610     1.182675570849    -2.406926043585
    N            0.177227677935     0.346390412796     0.047503955717
    H           -0.581680273624    -1.103531274420    -1.204259213079
    H            1.161545782145    -1.029333756907    -1.232995192734
    C            0.225042234971    -0.423917884282     1.281828456727
    H            0.863750858451     1.067878713466     0.052889119537
    C           -0.875457832024    -0.021417289879     2.252049589600
    H            0.137827210116    -1.478792923245     1.044907508672
    H            1.191807517464    -0.314933950961     1.769981489202
    H           -1.850395530582    -0.171048870082     1.803947516499
    H           -0.821407602674    -0.604787886798     3.165849778572
    H           -0.789488192660     1.026960130793     2.514216451539

	Cleaning optimization helper files.


Properties will be evaluated at   0.000000,   0.000000,   0.000000 Bohr

Properties computed using the  density matrix

  Nuclear Dipole Moment: (a.u.)
     X:    -0.1262      Y:    -0.4051      Z:    -0.1777

  Electronic Dipole Moment: (a.u.)
     X:     0.4905      Y:     0.2745      Z:     0.1507

  Dipole Moment: (a.u.)
     X:     0.3643      Y:    -0.1306      Z:    -0.0270     Total:     0.3879

  Dipole Moment: (Debye)
     X:     0.9260      Y:    -0.3319      Z:    -0.0687     Total:     0.9861

  Quadrupole Moment: (Debye Ang)
    XX:   -34.0737     YY:   -33.9530     ZZ:   -34.0371
    XY:     1.6462     XZ:     0.5368     YZ:     0.1931

  Traceless Quadrupole Moment: (Debye Ang)
    XX:    -0.0524     YY:     0.0683     ZZ:    -0.0158
    XY:     1.6462     XZ:     0.5368     YZ:     0.1931

  Mulliken Charges: (a.u.)
   Center  Symbol    Alpha    Beta     Spin     Total
       1     H     0.45418  0.45418  0.00000  0.09164
       2     C     3.14410  3.14410  0.00000 -0.28820
       3     C     3.02075  3.02075  0.00000 -0.04150
       4     H     0.44973  0.44973  0.00000  0.10054
       5     H     0.45950  0.45950  0.00000  0.08100
       6     N     3.64341  3.64341  0.00000 -0.28682
       7     H     0.45930  0.45930  0.00000  0.08141
       8     H     0.47349  0.47349  0.00000  0.05302
       9     C     3.03599  3.03599  0.00000 -0.07198
      10     H     0.44199  0.44199  0.00000  0.11603
      11     C     3.12729  3.12729  0.00000 -0.25457
      12     H     0.45819  0.45819  0.00000  0.08362
      13     H     0.45939  0.45939  0.00000  0.08122
      14     H     0.45511  0.45511  0.00000  0.08978
      15     H     0.46026  0.46026  0.00000  0.07948
      16     H     0.45733  0.45733  0.00000  0.08534

   Total alpha = 21.00000, Total beta = 21.00000, Total charge =  0.00000


*** PSI4 exiting successfully. Buy a developer a beer!
