    -----------------------------------------------------------------------
          Psi4: An Open-Source Ab Initio Electronic Structure Package
                              Psi4 (no tag) Driver

                          Git: Rev {detached?}  

    J. M. Turney, A. C. Simmonett, R. M. Parrish, E. G. Hohenstein,
    F. A. Evangelista, J. T. Fermann, B. J. Mintz, L. A. Burns, J. J. Wilke,
    M. L. Abrams, N. J. Russ, M. L. Leininger, C. L. Janssen, E. T. Seidl,
    W. D. Allen, H. F. Schaefer, R. A. King, E. F. Valeev, C. D. Sherrill,
    and T. D. Crawford, WIREs Comput. Mol. Sci. 2, 556-565 (2012)
    (doi: 10.1002/wcms.93)

                         Additional Contributions by
    A. E. DePrince, M. Saitow, U. Bozkaya, A. Yu. Sokolov
    -----------------------------------------------------------------------


    Psi4 started on: Fri Sep  2 20:43:20 2016

    Process ID:  15805
    PSI4DATADIR: /export131/home/mjharvey/miniconda3/share
    Memory level set to 256.000 MB

  ==> Input File <==

--------------------------------------------------------------------------
set {
	reference rhf
	basis 6-31G*
}


set_num_threads( 4 )
memory 2 gb

molecule MOL {
0 1

H	 -2.393105	 -0.229623	 3.168715
C	 -2.800014	 -0.589496	 2.215542
C	 -2.662563	 0.370133	 1.061059
O	 -3.303273	 -1.663738	 2.148570
C	 -1.222047	 0.867591	 0.877474
H	 -3.033482	 -0.115947	 0.166154
H	 -3.310621	 1.219812	 1.272532
C	 -0.248279	 -0.229906	 0.440924
H	 -1.224461	 1.662782	 0.137914
H	 -0.874602	 1.318748	 1.805642
C	 1.180775	 0.282413	 0.250794
H	 -0.602644	 -0.671050	 -0.488411
H	 -0.246121	 -1.034357	 1.173995
C	 2.148627	 -0.814315	 -0.201312
H	 1.170899	 1.092245	 -0.474331
H	 1.536955	 0.712566	 1.185934
C	 3.580890	 -0.659131	 0.322722
H	 2.166869	 -0.852443	 -1.289387
H	 1.762857	 -1.776509	 0.128956
C	 4.324889	 0.564933	 -0.213704
H	 4.142010	 -1.551473	 0.056605
H	 3.564836	 -0.624694	 1.410140
H	 4.342616	 0.565491	 -1.300421
H	 3.866655	 1.493402	 0.110242
H	 5.353900	 0.572371	 0.132816

	symmetry c1
}
set optking {
	frozen_dihedral = ("
		8 11 14 18
	")
}

ee = optimize('scf')
oeprop('DIPOLE', 'QUADRUPOLE', 'MULLIKEN_CHARGES')
f=open( 'psi4out.xyz', 'w' )
f.write( "25  " )
f.write( str(ee) + "\n" )
f.write( MOL.save_string_xyz() )
f.close()
--------------------------------------------------------------------------

  Memory set to   2.000 GiB by Python script.
gradient() will perform analytic gradient computation.

*** tstart() called on cx1-1-2-2.cx1.hpc.ic.ac.uk
*** at Fri Sep  2 20:43:21 2016


         ---------------------------------------------------------
                                   SCF
            by Justin Turney, Rob Parrish, and Andy Simmonett
                              RHF Reference
                        4 Threads,   2000 MiB Core
         ---------------------------------------------------------

  ==> Geometry <==

    Molecular point group: c1
    Full point group: C1

    Geometry (in Angstrom), charge = 0, multiplicity = 1:

       Center              X                  Y                   Z               Mass       
    ------------   -----------------  -----------------  -----------------  -----------------
           H         -2.511285267355    -0.016468154353     2.398643929574     1.007825032070
           C         -2.918194267355    -0.376341154353     1.445470929574    12.000000000000
           C         -2.780743267355     0.583287845647     0.290987929574    12.000000000000
           O         -3.421453267355    -1.450583154353     1.378498929574    15.994914619560
           C         -1.340227267355     1.080745845647     0.107402929574    12.000000000000
           H         -3.151662267355     0.097207845647    -0.603917070426     1.007825032070
           H         -3.428801267355     1.432966845647     0.502460929574     1.007825032070
           C         -0.366459267355    -0.016751154353    -0.329147070426    12.000000000000
           H         -1.342641267355     1.875936845647    -0.632157070426     1.007825032070
           H         -0.992782267355     1.531902845647     1.035570929574     1.007825032070
           C          1.062594732645     0.495567845647    -0.519277070426    12.000000000000
           H         -0.720824267355    -0.457895154353    -1.258482070426     1.007825032070
           H         -0.364301267355    -0.821202154353     0.403923929574     1.007825032070
           C          2.030446732645    -0.601160154353    -0.971383070426    12.000000000000
           H          1.052718732645     1.305399845647    -1.244402070426     1.007825032070
           H          1.418774732645     0.925720845647     0.415862929574     1.007825032070
           C          3.462709732645    -0.445976154353    -0.447349070426    12.000000000000
           H          2.048688732645    -0.639288154353    -2.059458070426     1.007825032070
           H          1.644676732645    -1.563354154353    -0.641115070426     1.007825032070
           C          4.206708732645     0.778087845647    -0.983775070426    12.000000000000
           H          4.023829732645    -1.338318154353    -0.713466070426     1.007825032070
           H          3.446655732645    -0.411539154353     0.640068929574     1.007825032070
           H          4.224435732645     0.778645845647    -2.070492070426     1.007825032070
           H          3.748474732645     1.706556845647    -0.659829070426     1.007825032070
           H          5.235719732645     0.785525845647    -0.637255070426     1.007825032070

  Running in c1 symmetry.

  Rotational constants: A =      0.14088  B =      0.01586  C =      0.01497 [cm^-1]
  Rotational constants: A =   4223.54895  B =    475.55497  C =    448.93159 [MHz]
  Nuclear repulsion =  439.582148565131547

  Charge       = 0
  Multiplicity = 1
  Electrons    = 72
  Nalpha       = 36
  Nbeta        = 36

  ==> Algorithm <==

  SCF Algorithm Type is DF.
  DIIS enabled.
  MOM disabled.
  Fractional occupation disabled.
  Guess Type is CORE.
  Energy threshold   = 1.00e-08
  Density threshold  = 1.00e-08
  Integral threshold = 0.00e+00

  ==> Primary Basis <==

  Basis Set: 6-31G*
    Number of shells: 86
    Number of basis function: 167
    Number of Cartesian functions: 167
    Spherical Harmonics?: false
    Max angular momentum: 2

  ==> Pre-Iterations <==

   -------------------------------------------------------
    Irrep   Nso     Nmo     Nalpha   Nbeta   Ndocc  Nsocc
   -------------------------------------------------------
     A        167     167       0       0       0       0
   -------------------------------------------------------
    Total     167     167      36      36      36       0
   -------------------------------------------------------

 OEINTS: Overlap, kinetic, potential, dipole, and quadrupole integrals
         stored in file 35.

  ==> Integral Setup <==

  ==> DFJK: Density-Fitted J/K Matrices <==

    J tasked:                  Yes
    K tasked:                  Yes
    wK tasked:                  No
    OpenMP threads:              4
    Integrals threads:           4
    Memory (MB):              1430
    Algorithm:                Core
    Integral Cache:           NONE
    Schwarz Cutoff:          1E-12
    Fitting Condition:       1E-12

   => Auxiliary Basis Set <=

  Basis Set: 
    Number of shells: 360
    Number of basis function: 1129
    Number of Cartesian functions: 1129
    Spherical Harmonics?: false
    Max angular momentum: 3

  Minimum eigenvalue in the overlap matrix is 3.1427744662E-03.
  Using Symmetric Orthogonalization.
  SCF Guess: Core (One-Electron) Hamiltonian.

  ==> Iterations <==

                           Total Energy        Delta E     RMS |[F,P]|

   @DF-RHF iter   1:  -292.22552094144055   -2.92226e+02   5.76915e-02 
   @DF-RHF iter   2:   -28.91830776638398    2.63307e+02   7.45044e-02 DIIS
   @DF-RHF iter   3:  -267.86524250004004   -2.38947e+02   4.51421e-02 DIIS
   @DF-RHF iter   4:  -213.63898528594473    5.42263e+01   6.36490e-02 DIIS
   @DF-RHF iter   5:  -361.99870740155529   -1.48360e+02   2.75926e-02 DIIS
   @DF-RHF iter   6:  -370.53382038313737   -8.53511e+00   2.54654e-02 DIIS
   @DF-RHF iter   7:  -384.49759473716881   -1.39638e+01   8.27892e-03 DIIS
   @DF-RHF iter   8:  -386.79935457582087   -2.30176e+00   4.67985e-03 DIIS
   @DF-RHF iter   9:  -387.07793138323404   -2.78577e-01   1.48379e-03 DIIS
   @DF-RHF iter  10:  -387.11075191820044   -3.28205e-02   6.44700e-04 DIIS
   @DF-RHF iter  11:  -387.11842579723941   -7.67388e-03   2.02233e-04 DIIS
   @DF-RHF iter  12:  -387.11930505617181   -8.79259e-04   6.33294e-05 DIIS
   @DF-RHF iter  13:  -387.11942454732230   -1.19491e-04   2.81001e-05 DIIS
   @DF-RHF iter  14:  -387.11944017068345   -1.56234e-05   8.10652e-06 DIIS
   @DF-RHF iter  15:  -387.11944256053823   -2.38985e-06   2.72145e-06 DIIS
   @DF-RHF iter  16:  -387.11944278406850   -2.23530e-07   8.16142e-07 DIIS
   @DF-RHF iter  17:  -387.11944280322757   -1.91591e-08   3.18790e-07 DIIS
   @DF-RHF iter  18:  -387.11944280590671   -2.67914e-09   7.66494e-08 DIIS
   @DF-RHF iter  19:  -387.11944280614102   -2.34309e-10   1.79624e-08 DIIS
   @DF-RHF iter  20:  -387.11944280615683   -1.58025e-11   7.56007e-09 DIIS

  ==> Post-Iterations <==

    Orbital Energies (a.u.)
    -----------------------

    Doubly Occupied:                                                      

       1A    -20.562058     2A    -11.326200     3A    -11.235203  
       4A    -11.234593     5A    -11.224261     6A    -11.219319  
       7A    -11.217956     8A    -11.216096     9A    -11.210693  
      10A     -1.402046    11A     -1.104105    12A     -1.069629  
      13A     -1.013343    14A     -0.942288    15A     -0.874836  
      16A     -0.821891    17A     -0.788120    18A     -0.780872  
      19A     -0.665142    20A     -0.660514    21A     -0.634303  
      22A     -0.624564    23A     -0.602155    24A     -0.593164  
      25A     -0.575541    26A     -0.552080    27A     -0.532908  
      28A     -0.525634    29A     -0.510460    30A     -0.493765  
      31A     -0.491249    32A     -0.481517    33A     -0.460870  
      34A     -0.459369    35A     -0.440938    36A     -0.409603  

    Virtual:                                                              

      37A      0.160241    38A      0.223958    39A      0.238032  
      40A      0.256037    41A      0.266512    42A      0.271558  
      43A      0.282196    44A      0.299266    45A      0.304532  
      46A      0.308447    47A      0.312990    48A      0.327675  
      49A      0.335505    50A      0.341042    51A      0.347581  
      52A      0.350749    53A      0.362460    54A      0.388371  
      55A      0.400046    56A      0.424288    57A      0.435373  
      58A      0.461712    59A      0.476323    60A      0.486694  
      61A      0.501933    62A      0.684177    63A      0.701659  
      64A      0.723317    65A      0.739843    66A      0.748262  
      67A      0.757789    68A      0.775379    69A      0.786286  
      70A      0.801809    71A      0.849302    72A      0.878007  
      73A      0.900736    74A      0.920297    75A      0.938539  
      76A      0.944535    77A      0.961907    78A      0.977731  
      79A      0.989978    80A      1.019834    81A      1.043236  
      82A      1.066061    83A      1.093425    84A      1.112210  
      85A      1.123068    86A      1.126395    87A      1.137275  
      88A      1.148458    89A      1.156835    90A      1.163055  
      91A      1.181196    92A      1.190125    93A      1.194964  
      94A      1.201686    95A      1.205951    96A      1.212800  
      97A      1.229744    98A      1.243993    99A      1.248480  
     100A      1.262764   101A      1.277826   102A      1.302654  
     103A      1.335099   104A      1.358681   105A      1.392959  
     106A      1.407290   107A      1.464965   108A      1.615749  
     109A      1.634399   110A      1.679478   111A      1.729074  
     112A      1.759340   113A      1.780420   114A      1.837947  
     115A      1.845493   116A      1.870958   117A      1.897027  
     118A      1.944716   119A      1.950520   120A      2.062492  
     121A      2.076977   122A      2.118515   123A      2.140467  
     124A      2.150465   125A      2.160284   126A      2.200428  
     127A      2.220863   128A      2.246108   129A      2.264965  
     130A      2.288641   131A      2.301638   132A      2.333867  
     133A      2.348124   134A      2.375983   135A      2.394786  
     136A      2.422490   137A      2.481265   138A      2.531769  
     139A      2.570560   140A      2.616793   141A      2.641676  
     142A      2.665796   143A      2.684735   144A      2.708232  
     145A      2.728413   146A      2.773858   147A      2.791371  
     148A      2.823425   149A      2.902770   150A      2.938278  
     151A      2.968371   152A      2.987139   153A      3.005608  
     154A      3.020420   155A      3.125171   156A      3.187036  
     157A      3.265387   158A      3.368453   159A      4.312394  
     160A      4.524679   161A      4.570978   162A      4.636228  
     163A      4.730154   164A      4.818017   165A      4.875294  
     166A      4.923981   167A      5.005928  

    Final Occupation by Irrep:
              A 
    DOCC [    36 ]

  Energy converged.

  @DF-RHF Final Energy:  -387.11944280615683

   => Energetics <=

    Nuclear Repulsion Energy =            439.5821485651315470
    One-Electron Energy =               -1395.4886133926804632
    Two-Electron Energy =                 568.7870220213918628
    DFT Exchange-Correlation Energy =       0.0000000000000000
    Empirical Dispersion Energy =           0.0000000000000000
    PCM Polarization Energy =               0.0000000000000000
    EFP Energy =                            0.0000000000000000
    Total Energy =                       -387.1194428061570534

    Alert: EFP and PCM quantities not currently incorporated into SCF psivars.

Properties will be evaluated at   0.000000,   0.000000,   0.000000 Bohr
  ==> Properties <==


Properties computed using the SCF density matrix

  Nuclear Dipole Moment: (a.u.)
     X:    13.4191      Y:     4.8602      Z:    -4.7970

  Electronic Dipole Moment: (a.u.)
     X:   -12.8374      Y:    -3.8132      Z:     4.6334

  Dipole Moment: (a.u.)
     X:     0.5817      Y:     1.0469      Z:    -0.1637     Total:     1.2088

  Dipole Moment: (Debye)
     X:     1.4784      Y:     2.6610      Z:    -0.4160     Total:     3.0724


  Saving occupied orbitals to File 180.

*** tstop() called on cx1-1-2-2.cx1.hpc.ic.ac.uk at Fri Sep  2 20:43:31 2016
Module time:
	user time   =      31.76 seconds =       0.53 minutes
	system time =       0.41 seconds =       0.01 minutes
	total time  =         10 seconds =       0.17 minutes
Total time:
	user time   =      31.76 seconds =       0.53 minutes
	system time =       0.41 seconds =       0.01 minutes
	total time  =         10 seconds =       0.17 minutes

*** tstart() called on cx1-1-2-2.cx1.hpc.ic.ac.uk
*** at Fri Sep  2 20:43:31 2016


         ------------------------------------------------------------
                                   SCF GRAD                          
                          Rob Parrish, Justin Turney,                
                       Andy Simmonett, and Alex Sokolov              
         ------------------------------------------------------------

  ==> Geometry <==

    Molecular point group: c1
    Full point group: C1

    Geometry (in Angstrom), charge = 0, multiplicity = 1:

       Center              X                  Y                   Z               Mass       
    ------------   -----------------  -----------------  -----------------  -----------------
           H         -2.511285267355    -0.016468154353     2.398643929574     1.007825032070
           C         -2.918194267355    -0.376341154353     1.445470929574    12.000000000000
           C         -2.780743267355     0.583287845647     0.290987929574    12.000000000000
           O         -3.421453267355    -1.450583154353     1.378498929574    15.994914619560
           C         -1.340227267355     1.080745845647     0.107402929574    12.000000000000
           H         -3.151662267355     0.097207845647    -0.603917070426     1.007825032070
           H         -3.428801267355     1.432966845647     0.502460929574     1.007825032070
           C         -0.366459267355    -0.016751154353    -0.329147070426    12.000000000000
           H         -1.342641267355     1.875936845647    -0.632157070426     1.007825032070
           H         -0.992782267355     1.531902845647     1.035570929574     1.007825032070
           C          1.062594732645     0.495567845647    -0.519277070426    12.000000000000
           H         -0.720824267355    -0.457895154353    -1.258482070426     1.007825032070
           H         -0.364301267355    -0.821202154353     0.403923929574     1.007825032070
           C          2.030446732645    -0.601160154353    -0.971383070426    12.000000000000
           H          1.052718732645     1.305399845647    -1.244402070426     1.007825032070
           H          1.418774732645     0.925720845647     0.415862929574     1.007825032070
           C          3.462709732645    -0.445976154353    -0.447349070426    12.000000000000
           H          2.048688732645    -0.639288154353    -2.059458070426     1.007825032070
           H          1.644676732645    -1.563354154353    -0.641115070426     1.007825032070
           C          4.206708732645     0.778087845647    -0.983775070426    12.000000000000
           H          4.023829732645    -1.338318154353    -0.713466070426     1.007825032070
           H          3.446655732645    -0.411539154353     0.640068929574     1.007825032070
           H          4.224435732645     0.778645845647    -2.070492070426     1.007825032070
           H          3.748474732645     1.706556845647    -0.659829070426     1.007825032070
           H          5.235719732645     0.785525845647    -0.637255070426     1.007825032070

  Nuclear repulsion =  439.582148565131547

  ==> Basis Set <==

  Basis Set: 6-31G*
    Number of shells: 86
    Number of basis function: 167
    Number of Cartesian functions: 167
    Spherical Harmonics?: false
    Max angular momentum: 2

  ==> DFJKGrad: Density-Fitted SCF Gradients <==

    Gradient:                    1
    J tasked:                  Yes
    K tasked:                  Yes
    wK tasked:                  No
    OpenMP threads:              4
    Integrals threads:           4
    Memory (MB):              1430
    Schwarz Cutoff:          0E+00
    Fitting Condition:       1E-12

   => Auxiliary Basis Set <=

  Basis Set: 
    Number of shells: 360
    Number of basis function: 1129
    Number of Cartesian functions: 1129
    Spherical Harmonics?: false
    Max angular momentum: 3


  -Total Gradient:
     Atom            X                  Y                   Z
    ------   -----------------  -----------------  -----------------
       1        0.000263453985    -0.000115207806    -0.000137850173
       2       -0.000750035201     0.000282501716     0.000344015487
       3        0.000339466115    -0.000294947104    -0.000179875172
       4        0.000288306354     0.000015902839    -0.000149296488
       5        0.000128442472     0.000188083254     0.000267397653
       6        0.000001844003     0.000043236799     0.000007310060
       7       -0.000002999293     0.000005087567     0.000073220730
       8        0.000864444435    -0.001503849056     0.000253894004
       9        0.000021413151    -0.000162486582     0.000025810246
      10       -0.000054439682     0.000118166125     0.000088241314
      11        0.000969519107    -0.002442907423    -0.001902852632
      12       -0.000017505438     0.000200945157     0.000191623009
      13       -0.000344077065    -0.000158925782     0.000005390770
      14       -0.001589702247     0.002705537018     0.001288978388
      15       -0.000876718935    -0.001135476390    -0.000994652667
      16        0.001952067501     0.000028172802    -0.000265082955
      17       -0.000753494224     0.000815037620     0.001781450819
      18        0.000076586819     0.001517650551    -0.000668039724
      19       -0.001755733826     0.000151542926    -0.000165453352
      20        0.000115169696     0.000208346869     0.000172384997
      21       -0.000195671827     0.000003644502     0.000033048810
      22        0.000410181318     0.000078069472     0.000053046238
      23       -0.000042126899     0.000042005364    -0.000147671764
      24        0.000834511182    -0.000444588064     0.000019991971
      25        0.000117098506    -0.000145542374     0.000004970428


*** tstop() called on cx1-1-2-2.cx1.hpc.ic.ac.uk at Fri Sep  2 20:43:41 2016
Module time:
	user time   =      36.90 seconds =       0.61 minutes
	system time =       0.30 seconds =       0.01 minutes
	total time  =         10 seconds =       0.17 minutes
Total time:
	user time   =      68.68 seconds =       1.14 minutes
	system time =       0.71 seconds =       0.01 minutes
	total time  =         20 seconds =       0.33 minutes
CURRENT ENERGY: -387.1194428062

			-----------------------------------------
			 OPTKING 2.0: for geometry optimizations 
			  - R.A. King,  Bethel University        
			-----------------------------------------

	Internal coordinates to be generated automatically.
	Detected frag with atoms:  1 2 3 4 5 6 7 8 9 10 11 12 13 14 15 16 17 18 19 20
	 21 22 23 24 25
	---Fragment 1 Bond Connectivity---
	 1 : 2
	 2 : 1 3 4
	 3 : 2 5 6 7
	 4 : 2
	 5 : 3 8 9 10
	 6 : 3
	 7 : 3
	 8 : 5 11 12 13
	 9 : 5
	 10 : 5
	 11 : 8 14 15 16
	 12 : 8
	 13 : 8
	 14 : 11 17 18 19
	 15 : 11
	 16 : 11
	 17 : 14 20 21 22
	 18 : 14
	 19 : 14
	 20 : 17 23 24 25
	 21 : 17
	 22 : 17
	 23 : 20
	 24 : 20
	 25 : 20

	Assuming in current code that numbering for constraints corresponds to unified fragment.
	Frozen dihedral atom list: 
	     8    11    14    18
	---Fragment 1 Geometry and Gradient---
	 H          -4.7456413969       -0.0311203016        4.5327801172
	 C          -5.5145879679       -0.7111817143        2.7315441899
	 C          -5.2548432212        1.1022542849        0.5498874949
	 O          -6.4656096518       -2.7412048947        2.6049854514
	 C          -2.5326624911        2.0423136675        0.2029621228
	 H          -5.9557785487        0.1836962062       -1.1412378701
	 H          -6.4794953594        2.7079148958        0.9495135494
	 C          -0.6925076542       -0.0316550941       -0.6219978205
	 H          -2.5372242900        3.5450068809       -1.1946037361
	 H          -1.8760865949        2.8948768405        1.9569454481
	 C           2.0080130349        0.9364875085       -0.9812914502
	 H          -1.3621604552       -0.8652964393       -2.3781864563
	 H          -0.6884296252       -1.5518471715        0.7633056054
	 C           3.8369882521       -1.1360280537       -1.8356479732
	 H           1.9893500997        2.4668482022       -2.3515791123
	 H           2.6810956890        1.7493588738        0.7858670457
	 C           6.5435730724       -0.8427727935       -0.8453672289
	 H           3.8714606362       -1.2080795317       -3.8918117353
	 H           3.1079886018       -2.9543112004       -1.2115319028
	 C           7.9495274255        1.4703729356       -1.8590654595
	 H           7.6039362001       -2.5290547904       -1.3482554782
	 H           6.5132354090       -0.7776962947        1.2095549831
	 H           7.9830266007        1.4714274028       -3.9126629734
	 H           7.0835906607        3.2249250685       -1.2468962376
	 H           9.8940764032        1.4844287186       -1.2042375599
	             0.0002634540       -0.0001152078       -0.0001378502
	            -0.0007500352        0.0002825017        0.0003440155
	             0.0003394661       -0.0002949471       -0.0001798752
	             0.0002883064        0.0000159028       -0.0001492965
	             0.0001284425        0.0001880833        0.0002673977
	             0.0000018440        0.0000432368        0.0000073101
	            -0.0000029993        0.0000050876        0.0000732207
	             0.0008644444       -0.0015038491        0.0002538940
	             0.0000214132       -0.0001624866        0.0000258102
	            -0.0000544397        0.0001181661        0.0000882413
	             0.0009695191       -0.0024429074       -0.0019028526
	            -0.0000175054        0.0002009452        0.0001916230
	            -0.0003440771       -0.0001589258        0.0000053908
	            -0.0015897022        0.0027055370        0.0012889784
	            -0.0008767189       -0.0011354764       -0.0009946527
	             0.0019520675        0.0000281728       -0.0002650830
	            -0.0007534942        0.0008150376        0.0017814508
	             0.0000765868        0.0015176506       -0.0006680397
	            -0.0017557338        0.0001515429       -0.0001654534
	             0.0001151697        0.0002083469        0.0001723850
	            -0.0001956718        0.0000036445        0.0000330488
	             0.0004101813        0.0000780695        0.0000530462
	            -0.0000421269        0.0000420054       -0.0001476718
	             0.0008345112       -0.0004445881        0.0000199920
	             0.0001170985       -0.0001455424        0.0000049704

	Previous optimization step data not found.  Starting new optimization.

	---Fragment 1 Intrafragment Coordinates---
	 - Coordinate -           - BOHR/RAD -       - ANG/DEG -
	 R(1,2)           =         2.073213	       1.097097
	 R(2,3)           =         2.848797	       1.507518
	 R(2,4)           =         2.245318	       1.188171
	 R(3,5)           =         2.900748	       1.535010
	 R(3,6)           =         2.048161	       1.083840
	 R(3,7)           =         2.058548	       1.089337
	 R(5,8)           =         2.892763	       1.530784
	 R(5,9)           =         2.052145	       1.085948
	 R(5,10)          =         2.057769	       1.088925
	 R(8,11)          =         2.891229	       1.529973
	 R(8,12)          =         2.056111	       1.088047
	 R(8,13)          =         2.056712	       1.088365
	 R(11,14)         =         2.893164	       1.530996
	 R(11,15)         =         2.054274	       1.087075
	 R(11,16)         =         2.058312	       1.089212
	 R(14,17)         =         2.896939	       1.532994
	 R(14,18)         =         2.057715	       1.088896
	 R(14,19)         =         2.055995	       1.087986
	 R(17,20)         =         2.890490	       1.529582
	 R(17,21)         =         2.054462	       1.087174
	 R(17,22)         =         2.056176	       1.088082
	 R(20,23)         =         2.053871	       1.086862
	 R(20,24)         =         2.050134	       1.084884
	 R(20,25)         =         2.051894	       1.085815
	 B(1,2,3)         =         2.007250	     115.006939
	 B(1,2,4)         =         2.097443	     120.174623
	 B(2,3,5)         =         1.964324	     112.547463
	 B(2,3,6)         =         1.891918	     108.398934
	 B(2,3,7)         =         1.868793	     107.073969
	 B(3,2,4)         =         2.178492	     124.818421
	 B(3,5,8)         =         1.980924	     113.498562
	 B(3,5,9)         =         1.893012	     108.461612
	 B(3,5,10)        =         1.908961	     109.375419
	 B(5,3,6)         =         1.947385	     111.576938
	 B(5,3,7)         =         1.905754	     109.191647
	 B(5,8,11)        =         1.970917	     112.925209
	 B(5,8,12)        =         1.904017	     109.092118
	 B(5,8,13)        =         1.916759	     109.822178
	 B(6,3,7)         =         1.882318	     107.848878
	 B(8,5,9)         =         1.909420	     109.401707
	 B(8,5,10)        =         1.914688	     109.703561
	 B(8,11,14)       =         1.968494	     112.786403
	 B(8,11,15)       =         1.900606	     108.896699
	 B(8,11,16)       =         1.908146	     109.328688
	 B(9,5,10)        =         1.852313	     106.129745
	 B(11,8,12)       =         1.911159	     109.501333
	 B(11,8,13)       =         1.906416	     109.229584
	 B(11,14,17)      =         2.001127	     114.656143
	 B(11,14,18)      =         1.907898	     109.314490
	 B(11,14,19)      =         1.896245	     108.646808
	 B(12,8,13)       =         1.850705	     106.037593
	 B(14,11,15)      =         1.920287	     110.024323
	 B(14,11,16)      =         1.906790	     109.251033
	 B(14,17,20)      =         1.999369	     114.555402
	 B(14,17,21)      =         1.891728	     108.388011
	 B(14,17,22)      =         1.908210	     109.332359
	 B(15,11,16)      =         1.856107	     106.347123
	 B(17,14,18)      =         1.906541	     109.236727
	 B(17,14,19)      =         1.893394	     108.483514
	 B(17,20,23)      =         1.937991	     111.038716
	 B(17,20,24)      =         1.954884	     112.006606
	 B(17,20,25)      =         1.933199	     110.764149
	 B(18,14,19)      =         1.852824	     106.158983
	 B(20,17,21)      =         1.896477	     108.660157
	 B(20,17,22)      =         1.909576	     109.410635
	 B(21,17,22)      =         1.852739	     106.154108
	 B(23,20,24)      =         1.880745	     107.758739
	 B(23,20,25)      =         1.879297	     107.675787
	 B(24,20,25)      =         1.874575	     107.405240
	 D(1,2,3,5)       =         0.911727	      52.238108
	 D(1,2,3,6)       =         3.074187	     176.137947
	 D(1,2,3,7)       =        -1.182515	     -67.753126
	 D(2,3,5,8)       =         1.166880	      66.857305
	 D(2,3,5,9)       =        -2.990402	    -171.337398
	 D(2,3,5,10)      =        -0.977464	     -56.004540
	 D(3,5,8,11)      =         3.133358	     179.528176
	 D(3,5,8,12)      =         1.004026	      57.526436
	 D(3,5,8,13)      =        -1.017394	     -58.292364
	 D(4,2,3,5)       =        -2.230679	    -127.808478
	 D(4,2,3,6)       =        -0.068219	      -3.908638
	 D(4,2,3,7)       =         1.958264	     112.200288
	 D(5,8,11,14)     =        -3.130080	    -179.340350
	 D(5,8,11,15)     =        -0.993162	     -56.904017
	 D(5,8,11,16)     =         1.028036	      58.902113
	 D(6,3,5,8)       =        -0.964520	     -55.262910
	 D(6,3,5,9)       =         1.161384	      66.542386
	 D(6,3,5,10)      =        -3.108863	    -178.124755
	 D(7,3,5,8)       =        -3.043568	    -174.383578
	 D(7,3,5,9)       =        -0.917664	     -52.578281
	 D(7,3,5,10)      =         1.095274	      62.754578
	 D(8,11,14,17)    =        -2.565178	    -146.973848
	*D(8,11,14,18)    =         1.570796	      89.999976
	 D(8,11,14,19)    =        -0.443947	     -25.436312
	 D(9,5,8,11)      =         1.016623	      58.248195
	 D(9,5,8,12)      =        -1.112709	     -63.753545
	 D(9,5,8,13)      =        -3.134129	    -179.572345
	 D(10,5,8,11)     =        -1.008641	     -57.790882
	 D(10,5,8,12)     =        -3.137973	    -179.792622
	 D(10,5,8,13)     =         1.123793	      64.388578
	 D(11,14,17,20)   =        -1.152772	     -66.048997
	 D(11,14,17,21)   =         3.009745	     172.445696
	 D(11,14,17,22)   =         0.997406	      57.147135
	 D(12,8,11,14)    =        -1.004767	     -57.568918
	 D(12,8,11,15)    =         1.132150	      64.867415
	 D(12,8,11,16)    =        -3.129837	    -179.326455
	 D(13,8,11,14)    =         1.014880	      58.148346
	 D(13,8,11,15)    =        -3.131388	    -179.415321
	 D(13,8,11,16)    =        -1.110190	     -63.609190
	 D(14,17,20,23)   =        -0.975995	     -55.920410
	 D(14,17,20,24)   =         1.127583	      64.605735
	 D(14,17,20,25)   =        -3.063188	    -175.507770
	 D(15,11,14,17)   =         1.592168	      91.224531
	 D(15,11,14,18)   =        -0.555043	     -31.801645
	 D(15,11,14,19)   =        -2.569787	    -147.237933
	 D(16,11,14,17)   =        -0.439342	     -25.172441
	 D(16,11,14,18)   =        -2.586554	    -148.198617
	 D(16,11,14,19)   =         1.681888	      96.365095
	 D(18,14,17,20)   =         0.995169	      57.018981
	 D(18,14,17,21)   =        -1.125499	     -64.486326
	 D(18,14,17,22)   =        -3.137838	    -179.784888
	 D(19,14,17,20)   =         3.007626	     172.324257
	 D(19,14,17,21)   =         0.886958	      50.818950
	 D(19,14,17,22)   =        -1.125382	     -64.479611
	 D(21,17,20,23)   =         1.142068	      65.435691
	 D(21,17,20,24)   =        -3.037539	    -174.038165
	 D(21,17,20,25)   =        -0.945125	     -54.151669
	 D(22,17,20,23)   =        -3.125439	    -179.074444
	 D(22,17,20,24)   =        -1.021861	     -58.548299
	 D(22,17,20,25)   =         1.070553	      61.338196

	Current energy   :      -387.1194428062

	Generating empirical Hessian (Schlegel '84) for each fragment.
	Taking RFO optimization step.
	Going to follow RFO solution 1.
	Using RFO vector 1.
	Norm of target step-size    0.44049
	Projected energy change by RFO approximation:        -0.0004120029

	Back-transformation to cartesian coordinates...
	Successfully converged to displaced geometry.

	Back-transformation to cartesian coordinates to adjust frozen coordinates...
	Successfully converged to displaced geometry.

	--- Internal Coordinate Step in ANG or DEG, aJ/ANG or AJ/DEG ---
	 ---------------------------------------------------------------------------
	   Coordinate                Previous        Force       Change         New 
	   ----------                --------       ------       ------       ------
	    1 R(1,2)          =      1.097097     0.000493     0.000093     1.097190
	    2 R(2,3)          =      1.507518     0.000453     0.000092     1.507610
	    3 R(2,4)          =      1.188171     0.001055     0.000061     1.188232
	    4 R(3,5)          =      1.535010     0.000955     0.000211     1.535221
	    5 R(3,6)          =      1.083840     0.000215     0.000039     1.083879
	    6 R(3,7)          =      1.089337    -0.000165    -0.000030     1.089307
	    7 R(5,8)          =      1.530784    -0.000037    -0.000008     1.530776
	    8 R(5,9)          =      1.085948     0.001126     0.000204     1.086153
	    9 R(5,10)         =      1.088925    -0.000880    -0.000161     1.088763
	   10 R(8,11)         =      1.529973     0.001062     0.000231     1.530203
	   11 R(8,12)         =      1.088047     0.001973     0.000361     1.088408
	   12 R(8,13)         =      1.088365    -0.000992    -0.000181     1.088184
	   13 R(11,14)        =      1.530996     0.049374     0.010772     1.541769
	   14 R(11,15)        =      1.087075     0.001437     0.000262     1.087337
	   15 R(11,16)        =      1.089212    -0.003476    -0.000638     1.088574
	   16 R(14,17)        =      1.532994    -0.009602    -0.002108     1.530886
	   17 R(14,18)        =      1.088896    -0.005072    -0.000930     1.087966
	   18 R(14,19)        =      1.087986    -0.003611    -0.000660     1.087326
	   19 R(17,20)        =      1.529582    -0.001722    -0.000374     1.529208
	   20 R(17,21)        =      1.087174     0.000923     0.000168     1.087343
	   21 R(17,22)        =      1.088082    -0.000407    -0.000074     1.088007
	   22 R(20,23)        =      1.086862    -0.001211    -0.000220     1.086641
	   23 R(20,24)        =      1.084884     0.005990     0.001083     1.085968
	   24 R(20,25)        =      1.085815    -0.000919    -0.000167     1.085649
	   25 B(1,2,3)        =    115.006939    -0.000002    -0.048000   114.958939
	   26 B(1,2,4)        =    120.174623    -0.000007    -0.073292   120.101332
	   27 B(2,3,5)        =    112.547463    -0.000003    -0.009533   112.537930
	   28 B(2,3,6)        =    108.398934    -0.000000    -0.021859   108.377075
	   29 B(2,3,7)        =    107.073969     0.000003     0.038048   107.112018
	   30 B(3,2,4)        =    124.818421     0.000009    -0.014328   124.804093
	   31 B(3,5,8)        =    113.498562     0.000012     0.045024   113.543587
	   32 B(3,5,9)        =    108.461612    -0.000006     0.003894   108.465506
	   33 B(3,5,10)       =    109.375419     0.000001    -0.000393   109.375026
	   34 B(5,3,6)        =    111.576938     0.000000    -0.017330   111.559608
	   35 B(5,3,7)        =    109.191647     0.000001     0.019782   109.211429
	   36 B(5,8,11)       =    112.925209     0.000035     0.121999   113.047208
	   37 B(5,8,12)       =    109.092118    -0.000014    -0.037581   109.054537
	   38 B(5,8,13)       =    109.822178     0.000010     0.130098   109.952275
	   39 B(6,3,7)        =    107.848878    -0.000001    -0.006937   107.841941
	   40 B(8,5,9)        =    109.401707     0.000002     0.040700   109.442407
	   41 B(8,5,10)       =    109.703561    -0.000011    -0.077460   109.626101
	   42 B(8,11,14)      =    112.786403     0.000084     0.411378   113.197781
	   43 B(8,11,15)      =    108.896699    -0.000018     0.688714   109.585413
	   44 B(8,11,16)      =    109.328688    -0.000092    -1.339203   107.989485
	   45 B(9,5,10)       =    106.129745     0.000001    -0.014639   106.115106
	   46 B(11,8,12)      =    109.501333    -0.000009    -0.060327   109.441006
	   47 B(11,8,13)      =    109.229584    -0.000031    -0.174196   109.055388
	   48 B(11,14,17)     =    114.656143    -0.000101    -0.642223   114.013920
	   49 B(11,14,18)     =    109.314490     0.000068    -0.047634   109.266855
	   50 B(11,14,19)     =    108.646808     0.000116     1.596699   110.243506
	   51 B(12,8,13)      =    106.037593     0.000008     0.013020   106.050613
	   52 B(14,11,15)     =    110.024323    -0.000032     0.401369   110.425693
	   53 B(14,11,16)     =    109.251033     0.000066     0.234713   109.485746
	   54 B(14,17,20)     =    114.555402    -0.000177    -0.685203   113.870200
	   55 B(14,17,21)     =    108.388011     0.000080     0.580853   108.968864
	   56 B(14,17,22)     =    109.332359     0.000015    -0.385023   108.947335
	   57 B(15,11,16)     =    106.347123    -0.000016    -0.480466   105.866657
	   58 B(17,14,18)     =    109.236727    -0.000045    -1.772413   107.464314
	   59 B(17,14,19)     =    108.483514    -0.000004     0.175331   108.658844
	   60 B(17,20,23)     =    111.038716    -0.000001    -0.037863   111.000853
	   61 B(17,20,24)     =    112.006606    -0.000041    -0.222340   111.784266
	   62 B(17,20,25)     =    110.764149     0.000024     0.176374   110.940522
	   63 B(18,14,19)     =    106.158983    -0.000028     0.763073   106.922057
	   64 B(20,17,21)     =    108.660157     0.000055     0.458884   109.119040
	   65 B(20,17,22)     =    109.410635     0.000061    -0.085159   109.325477
	   66 B(21,17,22)     =    106.154108    -0.000023     0.183484   106.337593
	   67 B(23,20,24)     =    107.758739     0.000006    -0.091129   107.667610
	   68 B(23,20,25)     =    107.675787    -0.000004     0.040837   107.716624
	   69 B(24,20,25)     =    107.405240     0.000017     0.141600   107.546839
	   70 D(1,2,3,5)      =     52.238108     0.000004     2.249690    54.487798
	   71 D(1,2,3,6)      =    176.137947     0.000003     2.205260   178.343207
	   72 D(1,2,3,7)      =    -67.753126     0.000003     2.205925   -65.547201
	   73 D(2,3,5,8)      =     66.857305    -0.000001     0.519494    67.376799
	   74 D(2,3,5,9)      =   -171.337398     0.000000     0.604122  -170.733276
	   75 D(2,3,5,10)     =    -56.004540     0.000000     0.588655   -55.415885
	   76 D(3,5,8,11)     =    179.528176     0.000001    -0.128133   179.400044
	   77 D(3,5,8,12)     =     57.526436     0.000000    -0.106205    57.420232
	   78 D(3,5,8,13)     =    -58.292364    -0.000001    -0.173236   -58.465600
	   79 D(4,2,3,5)      =   -127.808478    -0.000003    -1.953310  -129.761788
	   80 D(4,2,3,6)      =     -3.908638    -0.000003    -1.997740    -5.906378
	   81 D(4,2,3,7)      =    112.200288    -0.000003    -1.997075   110.203214
	   82 D(5,8,11,14)    =   -179.340350     0.000009     2.767744  -176.572606
	   83 D(5,8,11,15)    =    -56.904017     0.000010     4.075565   -52.828452
	   84 D(5,8,11,16)    =     58.902113    -0.000009     3.144303    62.046416
	   85 D(6,3,5,8)      =    -55.262910    -0.000000     0.567719   -54.695192
	   86 D(6,3,5,9)      =     66.542386     0.000001     0.652347    67.194734
	   87 D(6,3,5,10)     =   -178.124755     0.000001     0.636880  -177.487875
	   88 D(7,3,5,8)      =   -174.383578    -0.000000     0.574261  -173.809316
	   89 D(7,3,5,9)      =    -52.578281     0.000001     0.658890   -51.919391
	   90 D(7,3,5,10)     =     62.754578     0.000001     0.643422    63.398000
	   91 D(8,11,14,17)   =   -146.973848    -0.000018    -2.776347  -149.750195
	   92 *D(8,11,14,18)  =     89.999976     0.000000     0.000000    89.999976
	   93 D(8,11,14,19)   =    -25.436312    -0.000015    -1.792783   -27.229095
	   94 D(9,5,8,11)     =     58.248195     0.000000    -0.193099    58.055097
	   95 D(9,5,8,12)     =    -63.753545    -0.000000    -0.171171   -63.924715
	   96 D(9,5,8,13)     =   -179.572345    -0.000002    -0.238202  -179.810546
	   97 D(10,5,8,11)    =    -57.790882     0.000001    -0.154763   -57.945645
	   98 D(10,5,8,12)    =   -179.792622     0.000001    -0.132835  -179.925457
	   99 D(10,5,8,13)    =     64.388578    -0.000001    -0.199866    64.188712
	  100 D(11,14,17,20)  =    -66.048997     0.000014     7.295501   -58.753496
	  101 D(11,14,17,21)  =    172.445696     0.000011     6.738791   179.184487
	  102 D(11,14,17,22)  =     57.147135     0.000006     6.411790    63.558925
	  103 D(12,8,11,14)   =    -57.568918     0.000008     2.759084   -54.809834
	  104 D(12,8,11,15)   =     64.867415     0.000009     4.066906    68.934320
	  105 D(12,8,11,16)   =   -179.326455    -0.000009     3.135643  -176.190812
	  106 D(13,8,11,14)   =     58.148346     0.000005     2.643819    60.792165
	  107 D(13,8,11,15)   =   -179.415321     0.000006     3.951640  -175.463681
	  108 D(13,8,11,16)   =    -63.609190    -0.000012     3.020378   -60.588813
	  109 D(14,17,20,23)  =    -55.920410    -0.000007    -4.227551   -60.147961
	  110 D(14,17,20,24)  =     64.605735    -0.000011    -4.521316    60.084419
	  111 D(14,17,20,25)  =   -175.507770    -0.000009    -4.370240  -179.878010
	  112 D(15,11,14,17)  =     91.224531    -0.000021    -4.256897    86.967634
	  113 D(15,11,14,18)  =    -31.801645    -0.000003    -1.480550   -33.282195
	  114 D(15,11,14,19)  =   -147.237933    -0.000018    -3.273333  -150.511266
	  115 D(16,11,14,17)  =    -25.172441    -0.000021    -4.042924   -29.215365
	  116 D(16,11,14,18)  =   -148.198617    -0.000003    -1.266577  -149.465195
	  117 D(16,11,14,19)  =     96.365095    -0.000019    -3.059360    93.305734
	  118 D(18,14,17,20)  =     57.018981     0.000010     5.483161    62.502141
	  119 D(18,14,17,21)  =    -64.486326     0.000007     4.926451   -59.559876
	  120 D(18,14,17,22)  =   -179.784888     0.000001     4.599450  -175.185438
	  121 D(19,14,17,20)  =    172.324257    -0.000004     5.537784   177.862041
	  122 D(19,14,17,21)  =     50.818950    -0.000007     4.981074    55.800024
	  123 D(19,14,17,22)  =    -64.479611    -0.000012     4.654073   -59.825539
	  124 D(21,17,20,23)  =     65.435691    -0.000001    -3.604527    61.831163
	  125 D(21,17,20,24)  =   -174.038165    -0.000006    -3.898292  -177.936457
	  126 D(21,17,20,25)  =    -54.151669    -0.000003    -3.747217   -57.898886
	  127 D(22,17,20,23)  =   -179.074444     0.000007    -3.177642  -182.252086
	  128 D(22,17,20,24)  =    -58.548299     0.000002    -3.471407   -62.019706
	  129 D(22,17,20,25)  =     61.338196     0.000005    -3.320331    58.017865
	 ---------------------------------------------------------------------------

  ==> Convergence Check <==

  Measures of convergence in internal coordinates in au.
  Criteria marked as inactive (o), active & met (*), and active & unmet ( ).
  --------------------------------------------------------------------------------------------- ~
   Step     Total Energy     Delta E     MAX Force     RMS Force      MAX Disp      RMS Disp    ~
  --------------------------------------------------------------------------------------------- ~
    Convergence Criteria    1.00e-06 *    3.00e-04 *             o    1.20e-03 *             o  ~
  --------------------------------------------------------------------------------------------- ~
      1    -387.11944281   -3.87e+02      5.99e-03      7.36e-04 o    1.27e-01      3.88e-02 o  ~
  ---------------------------------------------------------------------------------------------

	Writing optimization data to binary file.
	Structure for next step:
	Cartesian Geometry (in Angstrom)
	    H    -2.5652726182   0.0891598925   2.4081183118
	    C    -2.9284260390  -0.3166702692   1.4556228407
	    C    -2.7647442434   0.5999104873   0.2698840303
	    O    -3.4717320243  -1.3730126827   1.4263785077
	    C    -1.3162300746   1.0753688065   0.0891946977
	    H    -3.1281097277   0.0856111920  -0.6123038506
	    H    -3.4066488939   1.4631857218   0.4410654957
	    C    -0.3501262733  -0.0440509683  -0.3068080345
	    H    -1.3011402180   1.8515191323  -0.6704699371
	    H    -0.9731822804   1.5461052205   1.0090484383
	    C     1.0871925354   0.4448793471  -0.4980780283
	    H    -0.7008203067  -0.5069809574  -1.2273190082
	    H    -0.3612114248  -0.8282566052   0.4475413246
	    C     2.0465271485  -0.6624399540  -0.9782571347
	    H     1.0979702789   1.2829513629  -1.1907686213
	    H     1.4370625109   0.8408713984   0.4536443280
	    C     3.4915935021  -0.4827651043  -0.5059091487
	    H     2.0583995693  -0.6803025996  -2.0660118342
	    H     1.6916461254  -1.6362543184  -0.6495889157
	    C     4.1288533564   0.8342015715  -0.9508525296
	    H     4.0902526736  -1.3112653619  -0.8767308156
	    H     3.5189714892  -0.5472730728   0.5798389549
	    H     4.1515442544   0.9092447222  -2.0346620585
	    H     3.5837909003   1.6938114718  -0.5722982550
	    H     5.1509001853   0.9111281082  -0.5928919117
			--------------------------
			 OPTKING Finished Execution 
			--------------------------

    Structure for next step:
    Molecular point group: c1
    Full point group: C1

    Geometry (in Angstrom), charge = 0, multiplicity = 1:

    H           -2.562634410554     0.084292232695     2.404073128408
    C           -2.925787803663    -0.321537898065     1.451577729984
    C           -2.762106020494     0.595042788453     0.265839010146
    O           -3.469093747451    -1.377880230863     1.422333399210
    C           -1.313591962314     1.070501071340     0.085149691345
    H           -3.125471477090     0.080743532466    -0.616348803391
    H           -3.404010621976     1.458317957013     0.437020462495
    C           -0.347488234856    -0.048918617990    -0.310853010610
    H           -1.298502106856     1.846651337941    -0.674514885395
    H           -0.970544194348     1.541237449462     1.005003361743
    C            1.089830464147     0.440011660127    -0.502122989826
    H           -0.698182241401    -0.511848571705    -1.231363913979
    H           -0.358573385485    -0.833124194915     0.443496290883
    C            2.049165003986    -0.667307556407    -0.982302059500
    H            1.100608206820     1.278083611902    -1.194813529929
    H            1.439700412853     0.836003681160     0.449599293814
    C            3.494231247184    -0.487632720452    -0.509954109640
    H            2.061037423830    -0.685170200689    -2.070056675932
    H            1.694284008009    -1.641121846454    -0.653633865657
    C            4.131491052853     0.829333854745    -0.954897456508
    H            4.092890373031    -1.316132914731    -0.880775748221
    H            3.521609232212    -0.552140684027     0.575793911044
    H            4.154181949143     0.904376999782    -2.038706902644
    H            3.586428638337     1.688943689456    -0.576343210804
    H            5.153537803745     0.906260385629    -0.596936865968

gradient() will perform analytic gradient computation.

*** tstart() called on cx1-1-2-2.cx1.hpc.ic.ac.uk
*** at Fri Sep  2 20:43:42 2016


         ---------------------------------------------------------
                                   SCF
            by Justin Turney, Rob Parrish, and Andy Simmonett
                              RHF Reference
                        4 Threads,   2000 MiB Core
         ---------------------------------------------------------

  ==> Geometry <==

    Molecular point group: c1
    Full point group: C1

    Geometry (in Angstrom), charge = 0, multiplicity = 1:

       Center              X                  Y                   Z               Mass       
    ------------   -----------------  -----------------  -----------------  -----------------
           H         -2.562634410554     0.084292232695     2.404073128408     1.007825032070
           C         -2.925787803663    -0.321537898065     1.451577729984    12.000000000000
           C         -2.762106020494     0.595042788453     0.265839010146    12.000000000000
           O         -3.469093747451    -1.377880230863     1.422333399210    15.994914619560
           C         -1.313591962314     1.070501071340     0.085149691345    12.000000000000
           H         -3.125471477090     0.080743532466    -0.616348803391     1.007825032070
           H         -3.404010621976     1.458317957013     0.437020462495     1.007825032070
           C         -0.347488234856    -0.048918617990    -0.310853010610    12.000000000000
           H         -1.298502106856     1.846651337941    -0.674514885395     1.007825032070
           H         -0.970544194348     1.541237449462     1.005003361743     1.007825032070
           C          1.089830464147     0.440011660127    -0.502122989826    12.000000000000
           H         -0.698182241401    -0.511848571705    -1.231363913979     1.007825032070
           H         -0.358573385485    -0.833124194915     0.443496290883     1.007825032070
           C          2.049165003986    -0.667307556407    -0.982302059500    12.000000000000
           H          1.100608206820     1.278083611902    -1.194813529929     1.007825032070
           H          1.439700412853     0.836003681160     0.449599293814     1.007825032070
           C          3.494231247184    -0.487632720452    -0.509954109640    12.000000000000
           H          2.061037423830    -0.685170200689    -2.070056675932     1.007825032070
           H          1.694284008009    -1.641121846454    -0.653633865657     1.007825032070
           C          4.131491052853     0.829333854745    -0.954897456508    12.000000000000
           H          4.092890373031    -1.316132914731    -0.880775748221     1.007825032070
           H          3.521609232212    -0.552140684027     0.575793911044     1.007825032070
           H          4.154181949143     0.904376999782    -2.038706902644     1.007825032070
           H          3.586428638337     1.688943689456    -0.576343210804     1.007825032070
           H          5.153537803745     0.906260385629    -0.596936865968     1.007825032070

  Running in c1 symmetry.

  Rotational constants: A =      0.14159  B =      0.01586  C =      0.01499 [cm^-1]
  Rotational constants: A =   4244.65949  B =    475.47591  C =    449.45721 [MHz]
  Nuclear repulsion =  439.682043100694329

  Charge       = 0
  Multiplicity = 1
  Electrons    = 72
  Nalpha       = 36
  Nbeta        = 36

  ==> Algorithm <==

  SCF Algorithm Type is DF.
  DIIS enabled.
  MOM disabled.
  Fractional occupation disabled.
  Guess Type is READ.
  Energy threshold   = 1.00e-08
  Density threshold  = 1.00e-08
  Integral threshold = 0.00e+00

  ==> Primary Basis <==

  Basis Set: 6-31G*
    Number of shells: 86
    Number of basis function: 167
    Number of Cartesian functions: 167
    Spherical Harmonics?: false
    Max angular momentum: 2

  ==> Pre-Iterations <==

   -------------------------------------------------------
    Irrep   Nso     Nmo     Nalpha   Nbeta   Ndocc  Nsocc
   -------------------------------------------------------
     A        167     167       0       0       0       0
   -------------------------------------------------------
    Total     167     167      36      36      36       0
   -------------------------------------------------------

 OEINTS: Overlap, kinetic, potential, dipole, and quadrupole integrals
         stored in file 35.

  ==> Integral Setup <==

  ==> DFJK: Density-Fitted J/K Matrices <==

    J tasked:                  Yes
    K tasked:                  Yes
    wK tasked:                  No
    OpenMP threads:              4
    Integrals threads:           4
    Memory (MB):              1430
    Algorithm:                Core
    Integral Cache:           NONE
    Schwarz Cutoff:          1E-12
    Fitting Condition:       1E-12

   => Auxiliary Basis Set <=

  Basis Set: 
    Number of shells: 360
    Number of basis function: 1129
    Number of Cartesian functions: 1129
    Spherical Harmonics?: false
    Max angular momentum: 3

  Minimum eigenvalue in the overlap matrix is 3.1536150577E-03.
  Using Symmetric Orthogonalization.
  SCF Guess: Reading in previously saved MOs, projecting if necessary.

  Using orbitals from previous SCF, no projection.
  Recomputing DOCC and SOCC from number of alpha and beta electrons from previous calculation.
              A 
    DOCC [    36 ]

  ==> Iterations <==

                           Total Energy        Delta E     RMS |[F,P]|

   @DF-RHF iter   0:  -387.09276390357235   -3.87093e+02   1.06300e-03 
   @DF-RHF iter   1:  -387.11815815078029   -2.53942e-02   2.00655e-04 
   @DF-RHF iter   2:  -387.11920120100564   -1.04305e-03   7.12762e-05 DIIS
   @DF-RHF iter   3:  -387.11935903197690   -1.57831e-04   3.01884e-05 DIIS
   @DF-RHF iter   4:  -387.11938528863556   -2.62567e-05   1.01974e-05 DIIS
   @DF-RHF iter   5:  -387.11939280867767   -7.52004e-06   6.15154e-06 DIIS
   @DF-RHF iter   6:  -387.11939537970312   -2.57103e-06   2.55822e-06 DIIS
   @DF-RHF iter   7:  -387.11939593797189   -5.58269e-07   8.73627e-07 DIIS
   @DF-RHF iter   8:  -387.11939598583098   -4.78591e-08   3.43944e-07 DIIS
   @DF-RHF iter   9:  -387.11939599275485   -6.92387e-09   1.18672e-07 DIIS
   @DF-RHF iter  10:  -387.11939599356282   -8.07972e-10   3.07059e-08 DIIS
   @DF-RHF iter  11:  -387.11939599360579   -4.29736e-11   8.78150e-09 DIIS

  ==> Post-Iterations <==

    Orbital Energies (a.u.)
    -----------------------

    Doubly Occupied:                                                      

       1A    -20.562163     2A    -11.326245     3A    -11.235318  
       4A    -11.234737     5A    -11.224361     6A    -11.220638  
       7A    -11.217672     8A    -11.217052     9A    -11.210567  
      10A     -1.402070    11A     -1.103616    12A     -1.069964  
      13A     -1.012697    14A     -0.941129    15A     -0.876470  
      16A     -0.822023    17A     -0.788034    18A     -0.779672  
      19A     -0.665252    20A     -0.660513    21A     -0.635148  
      22A     -0.624445    23A     -0.603121    24A     -0.592599  
      25A     -0.574560    26A     -0.552581    27A     -0.534378  
      28A     -0.523233    29A     -0.511746    30A     -0.494556  
      31A     -0.490485    32A     -0.480866    33A     -0.462232  
      34A     -0.457854    35A     -0.441646    36A     -0.409613  

    Virtual:                                                              

      37A      0.159305    38A      0.223925    39A      0.238724  
      40A      0.257284    41A      0.265910    42A      0.270534  
      43A      0.284349    44A      0.301021    45A      0.304326  
      46A      0.305976    47A      0.315184    48A      0.326652  
      49A      0.336838    50A      0.340569    51A      0.346562  
      52A      0.352320    53A      0.363538    54A      0.388266  
      55A      0.398654    56A      0.422099    57A      0.433842  
      58A      0.458393    59A      0.474631    60A      0.486406  
      61A      0.499197    62A      0.688653    63A      0.699812  
      64A      0.727351    65A      0.736838    66A      0.748046  
      67A      0.756092    68A      0.776513    69A      0.784867  
      70A      0.809218    71A      0.852991    72A      0.875441  
      73A      0.896359    74A      0.919919    75A      0.940371  
      76A      0.944902    77A      0.956198    78A      0.973569  
      79A      0.988442    80A      1.018892    81A      1.049556  
      82A      1.063322    83A      1.094562    84A      1.112577  
      85A      1.125594    86A      1.128576    87A      1.136050  
      88A      1.152357    89A      1.157960    90A      1.163959  
      91A      1.181689    92A      1.190466    93A      1.194383  
      94A      1.202345    95A      1.203893    96A      1.213428  
      97A      1.229074    98A      1.241662    99A      1.244953  
     100A      1.261701   101A      1.284439   102A      1.310293  
     103A      1.336721   104A      1.357414   105A      1.388704  
     106A      1.407387   107A      1.476477   108A      1.617157  
     109A      1.637902   110A      1.683468   111A      1.725664  
     112A      1.753455   113A      1.778799   114A      1.833220  
     115A      1.841896   116A      1.872181   117A      1.898880  
     118A      1.943856   119A      1.948219   120A      2.071641  
     121A      2.077304   122A      2.111598   123A      2.138502  
     124A      2.149486   125A      2.158166   126A      2.203409  
     127A      2.222145   128A      2.246645   129A      2.265120  
     130A      2.290304   131A      2.306333   132A      2.335400  
     133A      2.340186   134A      2.374540   135A      2.396189  
     136A      2.413556   137A      2.484108   138A      2.531294  
     139A      2.566646   140A      2.616996   141A      2.648186  
     142A      2.661031   143A      2.686038   144A      2.708568  
     145A      2.728558   146A      2.770103   147A      2.786554  
     148A      2.819338   149A      2.901657   150A      2.940525  
     151A      2.969504   152A      2.981429   153A      3.005980  
     154A      3.020012   155A      3.123916   156A      3.188348  
     157A      3.266400   158A      3.368702   159A      4.313183  
     160A      4.524582   161A      4.571950   162A      4.638865  
     163A      4.730194   164A      4.813356   165A      4.872156  
     166A      4.923933   167A      5.004588  

    Final Occupation by Irrep:
              A 
    DOCC [    36 ]

  Energy converged.

  @DF-RHF Final Energy:  -387.11939599360579

   => Energetics <=

    Nuclear Repulsion Energy =            439.6820431006943295
    One-Electron Energy =               -1395.6843710746484248
    Two-Electron Energy =                 568.8829319803485305
    DFT Exchange-Correlation Energy =       0.0000000000000000
    Empirical Dispersion Energy =           0.0000000000000000
    PCM Polarization Energy =               0.0000000000000000
    EFP Energy =                            0.0000000000000000
    Total Energy =                       -387.1193959936056217

    Alert: EFP and PCM quantities not currently incorporated into SCF psivars.

Properties will be evaluated at   0.000000,   0.000000,   0.000000 Bohr
  ==> Properties <==


Properties computed using the SCF density matrix

  Nuclear Dipole Moment: (a.u.)
     X:    13.4701      Y:     4.7608      Z:    -4.8854

  Electronic Dipole Moment: (a.u.)
     X:   -12.8574      Y:    -3.7332      Z:     4.6868

  Dipole Moment: (a.u.)
     X:     0.6127      Y:     1.0276      Z:    -0.1985     Total:     1.2127

  Dipole Moment: (Debye)
     X:     1.5572      Y:     2.6119      Z:    -0.5046     Total:     3.0824


  Saving occupied orbitals to File 180.

*** tstop() called on cx1-1-2-2.cx1.hpc.ic.ac.uk at Fri Sep  2 20:43:51 2016
Module time:
	user time   =      26.30 seconds =       0.44 minutes
	system time =       0.29 seconds =       0.00 minutes
	total time  =          9 seconds =       0.15 minutes
Total time:
	user time   =      96.60 seconds =       1.61 minutes
	system time =       1.06 seconds =       0.02 minutes
	total time  =         30 seconds =       0.50 minutes

*** tstart() called on cx1-1-2-2.cx1.hpc.ic.ac.uk
*** at Fri Sep  2 20:43:51 2016


         ------------------------------------------------------------
                                   SCF GRAD                          
                          Rob Parrish, Justin Turney,                
                       Andy Simmonett, and Alex Sokolov              
         ------------------------------------------------------------

  ==> Geometry <==

    Molecular point group: c1
    Full point group: C1

    Geometry (in Angstrom), charge = 0, multiplicity = 1:

       Center              X                  Y                   Z               Mass       
    ------------   -----------------  -----------------  -----------------  -----------------
           H         -2.562634410554     0.084292232695     2.404073128408     1.007825032070
           C         -2.925787803663    -0.321537898065     1.451577729984    12.000000000000
           C         -2.762106020494     0.595042788453     0.265839010146    12.000000000000
           O         -3.469093747451    -1.377880230863     1.422333399210    15.994914619560
           C         -1.313591962314     1.070501071340     0.085149691345    12.000000000000
           H         -3.125471477090     0.080743532466    -0.616348803391     1.007825032070
           H         -3.404010621976     1.458317957013     0.437020462495     1.007825032070
           C         -0.347488234856    -0.048918617990    -0.310853010610    12.000000000000
           H         -1.298502106856     1.846651337941    -0.674514885395     1.007825032070
           H         -0.970544194348     1.541237449462     1.005003361743     1.007825032070
           C          1.089830464147     0.440011660127    -0.502122989826    12.000000000000
           H         -0.698182241401    -0.511848571705    -1.231363913979     1.007825032070
           H         -0.358573385485    -0.833124194915     0.443496290883     1.007825032070
           C          2.049165003986    -0.667307556407    -0.982302059500    12.000000000000
           H          1.100608206820     1.278083611902    -1.194813529929     1.007825032070
           H          1.439700412853     0.836003681160     0.449599293814     1.007825032070
           C          3.494231247184    -0.487632720452    -0.509954109640    12.000000000000
           H          2.061037423830    -0.685170200689    -2.070056675932     1.007825032070
           H          1.694284008009    -1.641121846454    -0.653633865657     1.007825032070
           C          4.131491052853     0.829333854745    -0.954897456508    12.000000000000
           H          4.092890373031    -1.316132914731    -0.880775748221     1.007825032070
           H          3.521609232212    -0.552140684027     0.575793911044     1.007825032070
           H          4.154181949143     0.904376999782    -2.038706902644     1.007825032070
           H          3.586428638337     1.688943689456    -0.576343210804     1.007825032070
           H          5.153537803745     0.906260385629    -0.596936865968     1.007825032070

  Nuclear repulsion =  439.682043100694329

  ==> Basis Set <==

  Basis Set: 6-31G*
    Number of shells: 86
    Number of basis function: 167
    Number of Cartesian functions: 167
    Spherical Harmonics?: false
    Max angular momentum: 2

  ==> DFJKGrad: Density-Fitted SCF Gradients <==

    Gradient:                    1
    J tasked:                  Yes
    K tasked:                  Yes
    wK tasked:                  No
    OpenMP threads:              4
    Integrals threads:           4
    Memory (MB):              1430
    Schwarz Cutoff:          0E+00
    Fitting Condition:       1E-12

   => Auxiliary Basis Set <=

  Basis Set: 
    Number of shells: 360
    Number of basis function: 1129
    Number of Cartesian functions: 1129
    Spherical Harmonics?: false
    Max angular momentum: 3


  -Total Gradient:
     Atom            X                  Y                   Z
    ------   -----------------  -----------------  -----------------
       1       -0.002910303741     0.001337329919     0.000514307858
       2        0.008425097370    -0.004089039225    -0.001810922478
       3       -0.002968885546     0.001400712577     0.000693332219
       4       -0.002712878055     0.001422822281     0.000639720264
       5       -0.000068236849    -0.000278164371     0.000357196414
       6       -0.000063511855    -0.000044187472     0.000097713330
       7        0.000077320013     0.000436962998    -0.000594385366
       8        0.000772440570    -0.000235816734     0.003748114345
       9       -0.000199437501     0.000067096571     0.000041162110
      10        0.000034548938    -0.000141630339    -0.000105678604
      11       -0.000083666540     0.002694902965    -0.004797751285
      12        0.000469789474     0.000112317339    -0.000049929337
      13       -0.000201270770     0.000036072023     0.000021263498
      14       -0.002437312681    -0.004361885089     0.003341413952
      15       -0.000439981653     0.000977431672     0.000312988844
      16       -0.000574222462     0.000151608116    -0.000318389024
      17       -0.000130370457    -0.001083656595    -0.002492965427
      18        0.003773714066     0.002339170825     0.000302869265
      19        0.000670520917    -0.000925566708    -0.000230577624
      20       -0.000424687560     0.000056799537     0.000337935501
      21        0.000208622529    -0.000062393895    -0.000130782076
      22       -0.000572435213    -0.000174336119    -0.000319530574
      23        0.000010994964    -0.000121147511     0.000189172871
      24       -0.000631099848     0.000475794618     0.000027166243
      25       -0.000024748111     0.000008802619     0.000226555081


*** tstop() called on cx1-1-2-2.cx1.hpc.ic.ac.uk at Fri Sep  2 20:44:01 2016
Module time:
	user time   =      36.89 seconds =       0.61 minutes
	system time =       0.28 seconds =       0.00 minutes
	total time  =         10 seconds =       0.17 minutes
Total time:
	user time   =     133.51 seconds =       2.23 minutes
	system time =       1.34 seconds =       0.02 minutes
	total time  =         40 seconds =       0.67 minutes
CURRENT ENERGY: -387.1193959936

			-----------------------------------------
			 OPTKING 2.0: for geometry optimizations 
			  - R.A. King,  Bethel University        
			-----------------------------------------

	Previous internal coordinate definitions found.
	---Fragment 1 Geometry and Gradient---
	 H          -4.8426772147        0.1592892349        4.5430398161
	 C          -5.5289376719       -0.6076185687        2.7430843703
	 C          -5.2196239287        1.1244679075        0.5023629246
	 O          -6.5556371120       -2.6038162802        2.6878205942
	 C          -2.4823290591        2.0229538498        0.1609095969
	 H          -5.9062851278        0.1525831634       -1.1647304407
	 H          -6.4326478290        2.7558215534        0.8258489886
	 C          -0.6566575983       -0.0924427908       -0.5874270576
	 H          -2.4538133649        3.4896652916       -1.2746484060
	 H          -1.8340627272        2.9125166852        1.8991811163
	 C           2.0594811085        0.8315015329       -0.9488749358
	 H          -1.3193732271       -0.9672536220       -2.3269405673
	 H          -0.6776054971       -1.5743765631        0.8380865307
	 C           3.8723606586       -1.2610285280       -1.8562818722
	 H           2.0798480905        2.4152280014       -2.2578703514
	 H           2.7206394937        1.5798180035        0.8496195348
	 C           6.6031401021       -0.9214922951       -0.9636736076
	 H           3.8947962807       -1.2947840337       -3.9118401971
	 H           3.2017327665       -3.1012708405       -1.2351889973
	 C           7.8073866104        1.5672138582       -1.8044946778
	 H           7.7344418970       -2.4871307633       -1.6644249486
	 H           6.6548769959       -1.0433946796        1.0880928009
	 H           7.8502661901        1.7090248505       -3.8525977112
	 H           6.7773679216        3.1916410269       -1.0891308270
	 H           9.7387750646        1.7125839339       -1.1280471953
	            -0.0029103037        0.0013373299        0.0005143079
	             0.0084250974       -0.0040890392       -0.0018109225
	            -0.0029688855        0.0014007126        0.0006933322
	            -0.0027128781        0.0014228223        0.0006397203
	            -0.0000682368       -0.0002781644        0.0003571964
	            -0.0000635119       -0.0000441875        0.0000977133
	             0.0000773200        0.0004369630       -0.0005943854
	             0.0007724406       -0.0002358167        0.0037481143
	            -0.0001994375        0.0000670966        0.0000411621
	             0.0000345489       -0.0001416303       -0.0001056786
	            -0.0000836665        0.0026949030       -0.0047977513
	             0.0004697895        0.0001123173       -0.0000499293
	            -0.0002012708        0.0000360720        0.0000212635
	            -0.0024373127       -0.0043618851        0.0033414140
	            -0.0004399817        0.0009774317        0.0003129888
	            -0.0005742225        0.0001516081       -0.0003183890
	            -0.0001303705       -0.0010836566       -0.0024929654
	             0.0037737141        0.0023391708        0.0003028693
	             0.0006705209       -0.0009255667       -0.0002305776
	            -0.0004246876        0.0000567995        0.0003379355
	             0.0002086225       -0.0000623939       -0.0001307821
	            -0.0005724352       -0.0001743361       -0.0003195306
	             0.0000109950       -0.0001211475        0.0001891729
	            -0.0006310998        0.0004757946        0.0000271662
	            -0.0000247481        0.0000088026        0.0002265551

	---Fragment 1 Intrafragment Coordinates---
	 - Coordinate -           - BOHR/RAD -       - ANG/DEG -
	 R(1,2)           =         2.073389	       1.097190
	 R(2,3)           =         2.848970	       1.507610
	 R(2,4)           =         2.245433	       1.188232
	 R(3,5)           =         2.901146	       1.535221
	 R(3,6)           =         2.048234	       1.083879
	 R(3,7)           =         2.058491	       1.089307
	 R(5,8)           =         2.892747	       1.530776
	 R(5,9)           =         2.052531	       1.086153
	 R(5,10)          =         2.057464	       1.088763
	 R(8,11)          =         2.891665	       1.530203
	 R(8,12)          =         2.056792	       1.088408
	 R(8,13)          =         2.056369	       1.088184
	 R(11,14)         =         2.913520	       1.541769
	 R(11,15)         =         2.054768	       1.087337
	 R(11,16)         =         2.057107	       1.088574
	 R(14,17)         =         2.892955	       1.530886
	 R(14,18)         =         2.055958	       1.087966
	 R(14,19)         =         2.054748	       1.087326
	 R(17,20)         =         2.889783	       1.529208
	 R(17,21)         =         2.054780	       1.087343
	 R(17,22)         =         2.056036	       1.088007
	 R(20,23)         =         2.053454	       1.086641
	 R(20,24)         =         2.052181	       1.085968
	 R(20,25)         =         2.051579	       1.085649
	 B(1,2,3)         =         2.006412	     114.958939
	 B(1,2,4)         =         2.096164	     120.101332
	 B(2,3,5)         =         1.964157	     112.537930
	 B(2,3,6)         =         1.891537	     108.377075
	 B(2,3,7)         =         1.869457	     107.112018
	 B(3,2,4)         =         2.178242	     124.804093
	 B(3,5,8)         =         1.981709	     113.543587
	 B(3,5,9)         =         1.893080	     108.465506
	 B(3,5,10)        =         1.908954	     109.375026
	 B(5,3,6)         =         1.947082	     111.559608
	 B(5,3,7)         =         1.906099	     109.211429
	 B(5,8,11)        =         1.973046	     113.047208
	 B(5,8,12)        =         1.903361	     109.054537
	 B(5,8,13)        =         1.919029	     109.952275
	 B(6,3,7)         =         1.882197	     107.841941
	 B(8,5,9)         =         1.910130	     109.442407
	 B(8,5,10)        =         1.913336	     109.626101
	 B(8,11,14)       =         1.975674	     113.197781
	 B(8,11,15)       =         1.912626	     109.585413
	 B(8,11,16)       =         1.884772	     107.989485
	 B(9,5,10)        =         1.852058	     106.115106
	 B(11,8,12)       =         1.910106	     109.441006
	 B(11,8,13)       =         1.903376	     109.055388
	 B(11,14,17)      =         1.989918	     114.013920
	 B(11,14,18)      =         1.907066	     109.266855
	 B(11,14,19)      =         1.924112	     110.243506
	 B(12,8,13)       =         1.850932	     106.050613
	 B(14,11,15)      =         1.927292	     110.425693
	 B(14,11,16)      =         1.910887	     109.485746
	 B(14,17,20)      =         1.987410	     113.870200
	 B(14,17,21)      =         1.901865	     108.968864
	 B(14,17,22)      =         1.901490	     108.947335
	 B(15,11,16)      =         1.847722	     105.866657
	 B(17,14,18)      =         1.875606	     107.464314
	 B(17,14,19)      =         1.896455	     108.658844
	 B(17,20,23)      =         1.937330	     111.000853
	 B(17,20,24)      =         1.951003	     111.784266
	 B(17,20,25)      =         1.936277	     110.940522
	 B(18,14,19)      =         1.866142	     106.922057
	 B(20,17,21)      =         1.904487	     109.119040
	 B(20,17,22)      =         1.908090	     109.325477
	 B(21,17,22)      =         1.855941	     106.337593
	 B(23,20,24)      =         1.879154	     107.667610
	 B(23,20,25)      =         1.880010	     107.716624
	 B(24,20,25)      =         1.877046	     107.546839
	 D(1,2,3,5)       =         0.950991	      54.487798
	 D(1,2,3,6)       =         3.112676	     178.343207
	 D(1,2,3,7)       =        -1.144014	     -65.547201
	 D(2,3,5,8)       =         1.175947	      67.376799
	 D(2,3,5,9)       =        -2.979858	    -170.733276
	 D(2,3,5,10)      =        -0.967190	     -55.415885
	 D(3,5,8,11)      =         3.131121	     179.400044
	 D(3,5,8,12)      =         1.002172	      57.420232
	 D(3,5,8,13)      =        -1.020417	     -58.465600
	 D(4,2,3,5)       =        -2.264770	    -129.761788
	 D(4,2,3,6)       =        -0.103086	      -5.906378
	 D(4,2,3,7)       =         1.923409	     110.203214
	 D(5,8,11,14)     =        -3.081773	    -176.572606
	 D(5,8,11,15)     =        -0.922030	     -52.828452
	 D(5,8,11,16)     =         1.082914	      62.046416
	 D(6,3,5,8)       =        -0.954611	     -54.695192
	 D(6,3,5,9)       =         1.172769	      67.194734
	 D(6,3,5,10)      =        -3.097748	    -177.487875
	 D(7,3,5,8)       =        -3.033545	    -173.809316
	 D(7,3,5,9)       =        -0.906164	     -51.919391
	 D(7,3,5,10)      =         1.106504	      63.398000
	 D(8,11,14,17)    =        -2.613634	    -149.750195
	*D(8,11,14,18)    =         1.570796	      89.999976
	 D(8,11,14,19)    =        -0.475237	     -27.229095
	 D(9,5,8,11)      =         1.013253	      58.055097
	 D(9,5,8,12)      =        -1.115697	     -63.924715
	 D(9,5,8,13)      =        -3.138286	    -179.810546
	 D(10,5,8,11)     =        -1.011342	     -57.945645
	 D(10,5,8,12)     =        -3.140292	    -179.925457
	 D(10,5,8,13)     =         1.120304	      64.188712
	 D(11,14,17,20)   =        -1.025442	     -58.753496
	 D(11,14,17,21)   =         3.127359	     179.184487
	 D(11,14,17,22)   =         1.109313	      63.558925
	 D(12,8,11,14)    =        -0.956612	     -54.809834
	 D(12,8,11,15)    =         1.203131	      68.934320
	 D(12,8,11,16)    =        -3.075110	    -176.190812
	 D(13,8,11,14)    =         1.061023	      60.792165
	 D(13,8,11,15)    =        -3.062419	    -175.463681
	 D(13,8,11,16)    =        -1.057474	     -60.588813
	 D(14,17,20,23)   =        -1.049780	     -60.147961
	 D(14,17,20,24)   =         1.048671	      60.084419
	 D(14,17,20,25)   =        -3.139464	    -179.878010
	 D(15,11,14,17)   =         1.517872	      86.967634
	 D(15,11,14,18)   =        -0.580884	     -33.282195
	 D(15,11,14,19)   =        -2.626917	    -150.511266
	 D(16,11,14,17)   =        -0.509904	     -29.215365
	 D(16,11,14,18)   =        -2.608660	    -149.465195
	 D(16,11,14,19)   =         1.628492	      93.305734
	 D(18,14,17,20)   =         1.090868	      62.502141
	 D(18,14,17,21)   =        -1.039516	     -59.559876
	 D(18,14,17,22)   =        -3.057563	    -175.185438
	 D(19,14,17,20)   =         3.104278	     177.862041
	 D(19,14,17,21)   =         0.973894	      55.800024
	 D(19,14,17,22)   =        -1.044153	     -59.825539
	 D(21,17,20,23)   =         1.079157	      61.831163
	 D(21,17,20,24)   =        -3.105577	    -177.936457
	 D(21,17,20,25)   =        -1.010526	     -57.898886
	 D(22,17,20,23)   =         3.102286	     177.747914
	 D(22,17,20,24)   =        -1.082448	     -62.019706
	 D(22,17,20,25)   =         1.012603	      58.017865

	Current energy   :      -387.1193959936

	Energy change for the previous step:
		Projected    :        -0.0004120029
		Actual       :         0.0000468126

	Performing BFGS update.
	Previous computed or guess Hessian on step 1.
	Steps to be used in Hessian update: 1
	Taking RFO optimization step.
	Going to follow RFO solution 1.
	Using RFO vector 1.
	Norm of target step-size    0.39120
	Projected energy change by RFO approximation:        -0.0051808610

	Back-transformation to cartesian coordinates...
	Successfully converged to displaced geometry.

	Back-transformation to cartesian coordinates to adjust frozen coordinates...
	Successfully converged to displaced geometry.

	--- Internal Coordinate Step in ANG or DEG, aJ/ANG or AJ/DEG ---
	 ---------------------------------------------------------------------------
	   Coordinate                Previous        Force       Change         New 
	   ----------                --------       ------       ------       ------
	    1 R(1,2)          =      1.097190     0.000182     0.000107     1.097297
	    2 R(2,3)          =      1.507610     0.000107     0.000100     1.507710
	    3 R(2,4)          =      1.188232     0.000331     0.000069     1.188301
	    4 R(3,5)          =      1.535221     0.000441     0.000253     1.535473
	    5 R(3,6)          =      1.083879     0.000307     0.000064     1.083943
	    6 R(3,7)          =      1.089307    -0.001708    -0.000180     1.089126
	    7 R(5,8)          =      1.530776    -0.002326    -0.000252     1.530524
	    8 R(5,9)          =      1.086153    -0.000135     0.000187     1.086340
	    9 R(5,10)         =      1.088763     0.001150    -0.000056     1.088707
	   10 R(8,11)         =      1.530203     0.001473     0.000379     1.530582
	   11 R(8,12)         =      1.088408     0.001293     0.000465     1.088873
	   12 R(8,13)         =      1.088184     0.000076    -0.000170     1.088014
	   13 R(11,14)        =      1.541769    -0.021833     0.008207     1.549976
	   14 R(11,15)        =      1.087337    -0.004528    -0.000141     1.087195
	   15 R(11,16)        =      1.088574     0.003359    -0.000325     1.088249
	   16 R(14,17)        =      1.530886     0.018528    -0.000098     1.530788
	   17 R(14,18)        =      1.087966     0.002472    -0.000688     1.087278
	   18 R(14,19)        =      1.087326    -0.004452    -0.001035     1.086291
	   19 R(17,20)        =      1.529208     0.002562    -0.000097     1.529111
	   20 R(17,21)        =      1.087343    -0.001705     0.000015     1.087357
	   21 R(17,22)        =      1.088007     0.002661     0.000161     1.088169
	   22 R(20,23)        =      1.086641     0.001622    -0.000073     1.086568
	   23 R(20,24)        =      1.085968    -0.005791     0.000552     1.086520
	   24 R(20,25)        =      1.085649    -0.000429    -0.000200     1.085449
	   25 B(1,2,3)        =    114.958939     0.000013    -0.305505   114.653435
[...]
	 D(19,14,17,21)   =         0.914917	      52.420866
	 D(19,14,17,22)   =        -1.102576	     -63.172973
	 D(21,17,20,23)   =         1.104332	      63.273540
	 D(21,17,20,24)   =        -3.079547	    -176.445047
	 D(21,17,20,25)   =        -0.984829	     -56.426522
	 D(22,17,20,23)   =         3.124941	     179.045943
	 D(22,17,20,24)   =        -1.058937	     -60.672644
	 D(22,17,20,25)   =         1.035781	      59.345881

	Current energy   :      -387.1197955673

	Energy change for the previous step:
		Projected    :        -0.0000003111
		Actual       :        -0.0000001401

	Performing BFGS update.
	Previous computed or guess Hessian on step 1.
	Steps to be used in Hessian update: 8 7
	Taking RFO optimization step.
	Going to follow RFO solution 1.
	Using RFO vector 1.
	Norm of target step-size    0.03082
	Projected energy change by RFO approximation:         0.0000006259

	Back-transformation to cartesian coordinates...
	Successfully converged to displaced geometry.

	Back-transformation to cartesian coordinates to adjust frozen coordinates...
	Successfully converged to displaced geometry.

	--- Internal Coordinate Step in ANG or DEG, aJ/ANG or AJ/DEG ---
	 ---------------------------------------------------------------------------
	   Coordinate                Previous        Force       Change         New 
	   ----------                --------       ------       ------       ------
	    1 R(1,2)          =      1.097189     0.000021     0.000000     1.097189
	    2 R(2,3)          =      1.507567     0.000001     0.000023     1.507590
	    3 R(2,4)          =      1.188217     0.000020     0.000001     1.188218
	    4 R(3,5)          =      1.535176     0.000034    -0.000012     1.535164
	    5 R(3,6)          =      1.083881     0.000033     0.000001     1.083882
	    6 R(3,7)          =      1.089247     0.000009     0.000008     1.089255
	    7 R(5,8)          =      1.530494     0.000073     0.000001     1.530494
	    8 R(5,9)          =      1.086099     0.000015    -0.000002     1.086097
	    9 R(5,10)         =      1.088892    -0.000033     0.000003     1.088895
	   10 R(8,11)         =      1.530313     0.000001    -0.000008     1.530305
	   11 R(8,12)         =      1.088512    -0.000033    -0.000014     1.088499
	   12 R(8,13)         =      1.088137    -0.000026     0.000012     1.088149
	   13 R(11,14)        =      1.538579     0.000399     0.000037     1.538616
	   14 R(11,15)        =      1.086804    -0.000015     0.000021     1.086825
	   15 R(11,16)        =      1.089021    -0.000014    -0.000025     1.088995
	   16 R(14,17)        =      1.533485    -0.000153    -0.000007     1.533479
	   17 R(14,18)        =      1.088048     0.000073    -0.000015     1.088033
	   18 R(14,19)        =      1.086680    -0.000049     0.000021     1.086701
	   19 R(17,20)        =      1.529435    -0.000048    -0.000004     1.529431
	   20 R(17,21)        =      1.087248    -0.000009     0.000006     1.087254
	   21 R(17,22)        =      1.088156     0.000004    -0.000015     1.088141
	   22 R(20,23)        =      1.086783    -0.000011    -0.000012     1.086772
	   23 R(20,24)        =      1.085527    -0.000010     0.000007     1.085534
	   24 R(20,25)        =      1.085611    -0.000008     0.000007     1.085618
	   25 B(1,2,3)        =    115.000326     0.000000     0.001908   115.002235
	   26 B(1,2,4)        =    120.154676    -0.000000    -0.006435   120.148241
	   27 B(2,3,5)        =    112.541039    -0.000000     0.000333   112.541372
	   28 B(2,3,6)        =    108.390107     0.000000     0.000279   108.390386
	   29 B(2,3,7)        =    107.086464    -0.000000     0.002150   107.088614
	   30 B(3,2,4)        =    124.843853     0.000000     0.004575   124.848427
	   31 B(3,5,8)        =    113.517258     0.000001    -0.000864   113.516394
	   32 B(3,5,9)        =    108.486416    -0.000001    -0.003880   108.482536
	   33 B(3,5,10)       =    109.365682     0.000000     0.004154   109.369836
	   34 B(5,3,6)        =    111.557141     0.000000     0.000966   111.558107
	   35 B(5,3,7)        =    109.205916     0.000000    -0.002728   109.203189
	   36 B(5,8,11)       =    112.984384     0.000001    -0.000159   112.984226
	   37 B(5,8,12)       =    109.060660    -0.000001    -0.006127   109.054533
	   38 B(5,8,13)       =    109.938140     0.000001     0.008734   109.946874
	   39 B(6,3,7)        =    107.859137    -0.000000    -0.000996   107.858141
	   40 B(8,5,9)        =    109.410528    -0.000000    -0.002107   109.408421
	   41 B(8,5,10)       =    109.673992    -0.000000     0.002817   109.676809
	   42 B(8,11,14)      =    113.059962     0.000002    -0.003738   113.056224
	   43 B(8,11,15)      =    109.718313    -0.000001     0.003207   109.721520
	   44 B(8,11,16)      =    108.198577    -0.000001    -0.005067   108.193510
	   45 B(9,5,10)       =    106.115123     0.000000    -0.000157   106.114966
	   46 B(11,8,12)      =    109.710751    -0.000000    -0.009066   109.701685
	   47 B(11,8,13)      =    108.879163     0.000000     0.008039   108.887202
	   48 B(11,14,17)     =    114.005683     0.000001     0.003520   114.009202
	   49 B(11,14,18)     =    109.388711     0.000001    -0.009925   109.378787
	   50 B(11,14,19)     =    109.630056     0.000000     0.008206   109.638263
	   51 B(12,8,13)      =    106.032625     0.000000    -0.001534   106.031092
	   52 B(14,11,15)     =    110.189936    -0.000001     0.008968   110.198904
	   53 B(14,11,16)     =    109.340384     0.000001    -0.002434   109.337951
	   54 B(14,17,20)     =    113.943249    -0.000000     0.000182   113.943430
	   55 B(14,17,21)     =    108.719776     0.000000     0.003728   108.723504
	   56 B(14,17,22)     =    109.289692    -0.000000    -0.004642   109.285050
	   57 B(15,11,16)     =    106.074429     0.000000    -0.001084   106.073345
	   58 B(17,14,18)     =    107.886412    -0.000001    -0.003823   107.882588
	   59 B(17,14,19)     =    108.661829    -0.000001     0.004592   108.666420
	   60 B(17,20,23)     =    110.995372    -0.000000    -0.004769   110.990604
	   61 B(17,20,24)     =    111.806770     0.000000    -0.000188   111.806582
	   62 B(17,20,25)     =    110.972551    -0.000000     0.003992   110.976543
	   63 B(18,14,19)     =    107.025658    -0.000000    -0.003126   107.022532
	   64 B(20,17,21)     =    108.891945    -0.000000     0.000017   108.891962
	   65 B(20,17,22)     =    109.441855     0.000001     0.000180   109.442035
	   66 B(21,17,22)     =    106.268971     0.000000     0.000621   106.269592
	   67 B(23,20,24)     =    107.697119     0.000000    -0.000429   107.696691
	   68 B(23,20,25)     =    107.678850     0.000000     0.001569   107.680419
	   69 B(24,20,25)     =    107.502685     0.000000    -0.000089   107.502596
	   70 D(1,2,3,5)      =     52.647612    -0.000000    -0.001350    52.646261
	   71 D(1,2,3,6)      =    176.511399     0.000000     0.000312   176.511711
	   72 D(1,2,3,7)      =    -67.365635    -0.000000     0.000409   -67.365226
	   73 D(2,3,5,8)      =     67.098517     0.000000     0.399081    67.497598
	   74 D(2,3,5,9)      =   -171.054688     0.000000     0.393025  -170.661663
	   75 D(2,3,5,10)     =    -55.730845     0.000000     0.392943   -55.337902
	   76 D(3,5,8,11)     =   -179.742876    -0.000000    -0.332605  -180.075481
	   77 D(3,5,8,12)     =     57.970308    -0.000000    -0.316485    57.653822
	   78 D(3,5,8,13)     =    -57.889479    -0.000000    -0.316035   -58.205514
	   79 D(4,2,3,5)      =   -127.742947    -0.000000     0.006947  -127.736000
	   80 D(4,2,3,6)      =     -3.879160     0.000000     0.008609    -3.870551
	   81 D(4,2,3,7)      =    112.243807    -0.000000     0.008706   112.252512
	   82 D(5,8,11,14)    =   -177.973061     0.000000     0.229491  -177.743570
	   83 D(5,8,11,15)    =    -54.533900     0.000000     0.240876   -54.293024
	   84 D(5,8,11,16)    =     60.771965     0.000000     0.238501    61.010466
	   85 D(6,3,5,8)      =    -54.990905     0.000000     0.397764   -54.593142
	   86 D(6,3,5,9)      =     66.855890     0.000000     0.391707    67.247597
	   87 D(6,3,5,10)     =   -177.820267     0.000000     0.391625  -177.428642
	   88 D(7,3,5,8)      =   -174.121274     0.000000     0.400164  -173.721109
	   89 D(7,3,5,9)      =    -52.274478     0.000000     0.394108   -51.880371
	   90 D(7,3,5,10)     =     63.049364     0.000000     0.394026    63.443390
	   91 D(8,11,14,17)   =   -149.125608     0.000000    -0.009777  -149.135385
	   92 *D(8,11,14,18)  =     89.999976     0.000000    -0.000000    89.999976
	   93 D(8,11,14,19)   =    -27.070304    -0.000000     0.004800   -27.065505
	   94 D(9,5,8,11)     =     58.926274    -0.000000    -0.325514    58.600760
	   95 D(9,5,8,12)     =    -63.360543    -0.000000    -0.309394   -63.669937
	   96 D(9,5,8,13)     =   -179.220330    -0.000000    -0.308943  -179.529273
	   97 D(10,5,8,11)    =    -57.083474    -0.000000    -0.325720   -57.409194
	   98 D(10,5,8,12)    =   -179.370291    -0.000000    -0.309600  -179.679891
	   99 D(10,5,8,13)    =     64.769922    -0.000000    -0.309150    64.460773
	  100 D(11,14,17,20)  =    -63.355988    -0.000000    -0.070379   -63.426367
	  101 D(11,14,17,21)  =    175.007483    -0.000000    -0.073246   174.934237
	  102 D(11,14,17,22)  =     59.413643    -0.000000    -0.073514    59.340129
	  103 D(12,8,11,14)   =    -56.050844     0.000000     0.214958   -55.835886
	  104 D(12,8,11,15)   =     67.388318     0.000000     0.226343    67.614661
	  105 D(12,8,11,16)   =   -177.305818    -0.000000     0.223968  -177.081850
	  106 D(13,8,11,14)   =     59.579908     0.000000     0.212638    59.792546
	  107 D(13,8,11,15)   =   -176.980931     0.000000     0.224023  -176.756908
	  108 D(13,8,11,16)   =    -61.675066    -0.000000     0.221648   -61.453418
	  109 D(14,17,20,23)  =    -58.267644     0.000000     0.176310   -58.091334
	  110 D(14,17,20,24)  =     62.013769     0.000000     0.172359    62.186128
	  111 D(14,17,20,25)  =   -177.967706     0.000000     0.174848  -177.792859
	  112 D(15,11,14,17)  =     87.695815     0.000000    -0.017990    87.677825
	  113 D(15,11,14,18)  =    -33.178601     0.000000    -0.008213   -33.186814
	  114 D(15,11,14,19)  =   -150.248881    -0.000000    -0.003413  -150.252294
	  115 D(16,11,14,17)  =    -28.518190    -0.000000    -0.020393   -28.538583
	  116 D(16,11,14,18)  =   -149.392606    -0.000000    -0.010616  -149.403222
	  117 D(16,11,14,19)  =     93.537114    -0.000000    -0.005817    93.531298
	  118 D(18,14,17,20)  =     58.352084     0.000000    -0.083497    58.268588
	  119 D(18,14,17,21)  =    -63.284445     0.000000    -0.086364   -63.370808
	  120 D(18,14,17,22)  =   -178.878284     0.000000    -0.086632  -178.964917
	  121 D(19,14,17,20)  =    174.057395    -0.000000    -0.086812   173.970583
	  122 D(19,14,17,21)  =     52.420866    -0.000000    -0.089679    52.331188
	  123 D(19,14,17,22)  =    -63.172973    -0.000000    -0.089947   -63.262921
	  124 D(21,17,20,23)  =     63.273540     0.000000     0.181236    63.454776
	  125 D(21,17,20,24)  =   -176.445047     0.000000     0.177285  -176.267761
	  126 D(21,17,20,25)  =    -56.426522     0.000000     0.179774   -56.246748
	  127 D(22,17,20,23)  =    179.045943     0.000000     0.182087   179.228030
	  128 D(22,17,20,24)  =    -60.672644     0.000000     0.178136   -60.494507
	  129 D(22,17,20,25)  =     59.345881     0.000000     0.180625    59.526506
	 ---------------------------------------------------------------------------

  ==> Convergence Check <==

  Measures of convergence in internal coordinates in au.
  Criteria marked as inactive (o), active & met (*), and active & unmet ( ).
  ---------------------------------------------------------------------------------------------
   Step     Total Energy     Delta E     MAX Force     RMS Force      MAX Disp      RMS Disp   
  ---------------------------------------------------------------------------------------------
    Convergence Criteria    1.00e-06 *    3.00e-04 *             o    1.20e-03 *             o
  ---------------------------------------------------------------------------------------------
      9    -387.11979557   -1.40e-07 *    4.84e-05 *    8.77e-06 o    6.98e-03      2.71e-03 o  ~
  ---------------------------------------------------------------------------------------------


  **** Optimization is complete! (in 9 steps) ****

  ==> Optimization Summary <==

  Measures of convergence in internal coordinates in au.
  --------------------------------------------------------------------------------------------------------------- ~
   Step         Total Energy             Delta E       MAX Force       RMS Force        MAX Disp        RMS Disp  ~
  --------------------------------------------------------------------------------------------------------------- ~
      1    -387.119442806157   -387.119442806157      0.00599293      0.00073553      0.12733052      0.03878229  ~
      2    -387.119395993606      0.000046812551      0.00265006      0.00064282      0.14630643      0.03430245  ~
      3    -387.117037342676      0.002358650929      0.00853974      0.00186657      0.11356282      0.02623953  ~
      4    -387.119711641117     -0.002674298441      0.00128090      0.00022380      0.03127818      0.01100563  ~
      5    -387.119786941823     -0.000075300706      0.00037617      0.00007689      0.03570295      0.01100624  ~
      6    -387.119778664333      0.000008277490      0.00111648      0.00013610      0.03211793      0.00835408  ~
      7    -387.119791434319     -0.000012769987      0.00019053      0.00004529      0.00781401      0.00275162  ~
      8    -387.119795427208     -0.000003992889      0.00001749      0.00000642      0.00800486      0.00275373  ~
      9    -387.119795567295     -0.000000140086      0.00004838      0.00000877      0.00698419      0.00271338  ~
  --------------------------------------------------------------------------------------------------------------- ~

	Writing optimization data to binary file.
	Final energy is   -387.1197955672947
	Final (previous) structure:
	Cartesian Geometry (in Angstrom)
	    H    -2.5247191092   0.0256658209   2.3987006287
	    C    -2.9236064717  -0.3479455460   1.4473190851
	    C    -2.7740819357   0.5941323459   0.2798909032
	    O    -3.4331242090  -1.4200303077   1.3935954067
	    C    -1.3290381738   1.0787093860   0.0960444972
	    H    -3.1438379245   0.0975559735  -0.6097665685
	    H    -3.4172141562   1.4511359108   0.4758118147
	    C    -0.3620926800  -0.0300920747  -0.3258398364
	    H    -1.3225508128   1.8668944179  -0.6511723776
	    H    -0.9811807480   1.5361735981   1.0209266954
	    C     1.0755225324   0.4648523334  -0.4994819757
	    H    -0.7129240187  -0.4726430821  -1.2563907965
	    H    -0.3721451284  -0.8311987827   0.4104812973
	    C     2.0395280162  -0.6374657929  -0.9715144690
	    H     1.0940502220   1.3015188873  -1.1928717272
	    H     1.4176945928   0.8580334917   0.4567047390
	    C     3.4783484436  -0.4647116445  -0.4699875237
	    H     2.0644759812  -0.6540612112  -2.0591495655
	    H     1.6722038144  -1.6072774392  -0.6468418191
	    C     4.1659141292   0.8022516013  -0.9810928315
	    H     4.0611007398  -1.3297515995  -0.7769306948
	    H     3.4822139307  -0.4650662919   0.6181614125
	    H     4.1910002956   0.8204509246  -2.0674339126
	    H     3.6555962814   1.7004727086  -0.6477111331
	    H     5.1905156218   0.8582458666  -0.6266802415
	Saving final (previous) structure.
			--------------------------
			 OPTKING Finished Execution 
			--------------------------

    Final optimized geometry and variables:
    Molecular point group: c1
    Full point group: C1

    Geometry (in Angstrom), charge = 0, multiplicity = 1:

    H           -2.524718916394     0.025665818912     2.398700445519
    C           -2.923606248482    -0.347945519397     1.447318974558
    C           -2.774081723870     0.594132300536     0.279890881822
    O           -3.433123946877    -1.420030199270     1.393595300271
    C           -1.329038072323     1.078709303651     0.096044489822
    H           -3.143837684436     0.097555966051    -0.609766521905
    H           -3.417213895223     1.451135799955     0.475811778340
    C           -0.362092652335    -0.030092072390    -0.325839811523
    H           -1.322550711841     1.866894275324    -0.651172327871
    H           -0.981180673086     1.536173480830     1.020926617487
    C            1.075522450247     0.464852297921    -0.499481937597
    H           -0.712923964271    -0.472643046024    -1.256390700591
    H           -0.372145099970    -0.831198719192     0.410481266000
    C            2.039527860489    -0.637465744256    -0.971514394828
    H            1.094050138462     1.301518787878    -1.192871636116
    H            1.417694484531     0.858033426136     0.456704704102
    C            3.478348178028    -0.464711609015    -0.469987487783
    H            2.064475823517    -0.654061161291    -2.059149408225
    H            1.672203686706    -1.607277316499    -0.646841769742
    C            4.165913811036     0.802251540054    -0.981092756564
    H            4.061100429709    -1.329751497982    -0.776930635433
    H            3.482213664826    -0.465066256392     0.618161365297
    H            4.190999975521     0.820450861956    -2.067433754678
    H            3.655596002203     1.700472578770    -0.647711083651
    H            5.190515225448     0.858245801108    -0.626680193660

	Cleaning optimization helper files.


Properties will be evaluated at   0.000000,   0.000000,   0.000000 Bohr

Properties computed using the  density matrix

  Nuclear Dipole Moment: (a.u.)
     X:    13.4402      Y:     4.8269      Z:    -4.8252

  Electronic Dipole Moment: (a.u.)
     X:   -12.8522      Y:    -3.7849      Z:     4.6495

  Dipole Moment: (a.u.)
     X:     0.5880      Y:     1.0421      Z:    -0.1757     Total:     1.2094

  Dipole Moment: (Debye)
     X:     1.4947      Y:     2.6486      Z:    -0.4466     Total:     3.0739

  Quadrupole Moment: (Debye Ang)
    XX:   -66.6977     YY:   -62.8629     ZZ:   -58.0380
    XY:   -10.2318     XZ:     2.7114     YZ:     3.6490

  Traceless Quadrupole Moment: (Debye Ang)
    XX:    -4.1648     YY:    -0.3301     ZZ:     4.4949
    XY:   -10.2318     XZ:     2.7114     YZ:     3.6490

  Mulliken Charges: (a.u.)
   Center  Symbol    Alpha    Beta     Spin     Total
       1     H     0.43261  0.43261  0.00000  0.13477
       2     C     2.83088  2.83088  0.00000  0.33824
       3     C     3.20810  3.20810  0.00000 -0.41621
       4     O     4.23775  4.23775  0.00000 -0.47549
       5     C     3.16701  3.16701  0.00000 -0.33402
       6     H     0.39966  0.39966  0.00000  0.20067
       7     H     0.40664  0.40664  0.00000  0.18672
       8     C     3.15617  3.15617  0.00000 -0.31234
       9     H     0.41276  0.41276  0.00000  0.17448
      10     H     0.41972  0.41972  0.00000  0.16057
      11     C     3.15493  3.15493  0.00000 -0.30985
      12     H     0.41788  0.41788  0.00000  0.16424
      13     H     0.41803  0.41803  0.00000  0.16395
      14     C     3.15459  3.15459  0.00000 -0.30919
      15     H     0.41991  0.41991  0.00000  0.16019
      16     H     0.42307  0.42307  0.00000  0.15386
      17     C     3.15359  3.15359  0.00000 -0.30719
      18     H     0.42181  0.42181  0.00000  0.15639
      19     H     0.41842  0.41842  0.00000  0.16316
      20     C     3.24143  3.24143  0.00000 -0.48286
      21     H     0.42061  0.42061  0.00000  0.15878
      22     H     0.42344  0.42344  0.00000  0.15312
      23     H     0.42211  0.42211  0.00000  0.15577
      24     H     0.42017  0.42017  0.00000  0.15965
      25     H     0.41870  0.41870  0.00000  0.16260

   Total alpha = 36.00000, Total beta = 36.00000, Total charge =  0.00000


*** PSI4 exiting successfully. Buy a developer a beer!
