    -----------------------------------------------------------------------
          Psi4: An Open-Source Ab Initio Electronic Structure Package
                              Psi4 (no tag) Driver

                          Git: Rev {detached?}  

    J. M. Turney, A. C. Simmonett, R. M. Parrish, E. G. Hohenstein,
    F. A. Evangelista, J. T. Fermann, B. J. Mintz, L. A. Burns, J. J. Wilke,
    M. L. Abrams, N. J. Russ, M. L. Leininger, C. L. Janssen, E. T. Seidl,
    W. D. Allen, H. F. Schaefer, R. A. King, E. F. Valeev, C. D. Sherrill,
    and T. D. Crawford, WIREs Comput. Mol. Sci. 2, 556-565 (2012)
    (doi: 10.1002/wcms.93)

                         Additional Contributions by
    A. E. DePrince, M. Saitow, U. Bozkaya, A. Yu. Sokolov
    -----------------------------------------------------------------------


    Psi4 started on: Fri Sep  2 11:37:36 2016

    Process ID:  24318
    PSI4DATADIR: /export131/home/mjharvey/miniconda3/share
    Memory level set to 256.000 MB

  ==> Input File <==

--------------------------------------------------------------------------
set {
	reference rhf
	basis 6-31G*
}


set_num_threads( 4 )
memory 2 gb

molecule MOL {
0 1

H	 1.098760	 -0.601048	 -0.229443
C	 0.850167	 0.441173	 0.000644
C	 -0.623425	 0.760064	 0.000248
O	 1.713366	 1.224810	 0.229871
C	 -1.518387	 -0.473136	 -0.000101
H	 -0.818289	 1.390622	 -0.866171
H	 -0.818694	 1.390413	 0.866696
H	 -1.333417	 -1.085530	 -0.874338
H	 -2.563510	 -0.183466	 -0.000351
H	 -1.333864	 -1.085676	 0.874123

	symmetry c1
}
set optking {
	frozen_dihedral = ("
		4 2 3 6
	")
}

ee = optimize('scf')
oeprop('DIPOLE', 'QUADRUPOLE', 'MULLIKEN_CHARGES')
f=open( 'psi4out.xyz', 'w' )
f.write( "10  " )
f.write( str(ee) + "\n" )
f.write( MOL.save_string_xyz() )
f.close()
--------------------------------------------------------------------------

  Memory set to   2.000 GiB by Python script.
gradient() will perform analytic gradient computation.

*** tstart() called on cx1-5-5-2.cx1.hpc.ic.ac.uk
*** at Fri Sep  2 11:37:36 2016


         ---------------------------------------------------------
                                   SCF
            by Justin Turney, Rob Parrish, and Andy Simmonett
                              RHF Reference
                        4 Threads,   2000 MiB Core
         ---------------------------------------------------------

  ==> Geometry <==

    Molecular point group: c1
    Full point group: C1

    Geometry (in Angstrom), charge = 0, multiplicity = 1:

       Center              X                  Y                   Z               Mass       
    ------------   -----------------  -----------------  -----------------  -----------------
           H          0.993814265017    -1.086075342775    -0.288968642569     1.007825032070
           C          0.745221265017    -0.043854342775    -0.058881642569    12.000000000000
           C         -0.728370734983     0.275036657225    -0.059277642569    12.000000000000
           O          1.608420265017     0.739782657225     0.170345357431    15.994914619560
           C         -1.623332734983    -0.958163342775    -0.059626642569    12.000000000000
           H         -0.923234734983     0.905594657225    -0.925696642569     1.007825032070
           H         -0.923639734983     0.905385657225     0.807170357431     1.007825032070
           H         -1.438362734983    -1.570557342775    -0.933863642569     1.007825032070
           H         -2.668455734983    -0.668493342775    -0.059876642569     1.007825032070
           H         -1.438809734983    -1.570703342775     0.814597357431     1.007825032070

  Running in c1 symmetry.

  Rotational constants: A =      1.08638  B =      0.13972  C =      0.13023 [cm^-1]
  Rotational constants: A =  32568.91987  B =   4188.75138  C =   3904.24585 [MHz]
  Nuclear repulsion =  116.952192762696768

  Charge       = 0
  Multiplicity = 1
  Electrons    = 32
  Nalpha       = 16
  Nbeta        = 16

  ==> Algorithm <==

  SCF Algorithm Type is DF.
  DIIS enabled.
  MOM disabled.
  Fractional occupation disabled.
  Guess Type is CORE.
  Energy threshold   = 1.00e-08
  Density threshold  = 1.00e-08
  Integral threshold = 0.00e+00

  ==> Primary Basis <==

  Basis Set: 6-31G*
    Number of shells: 36
    Number of basis function: 72
    Number of Cartesian functions: 72
    Spherical Harmonics?: false
    Max angular momentum: 2

  ==> Pre-Iterations <==

   -------------------------------------------------------
    Irrep   Nso     Nmo     Nalpha   Nbeta   Ndocc  Nsocc
   -------------------------------------------------------
     A         72      72       0       0       0       0
   -------------------------------------------------------
    Total      72      72      16      16      16       0
   -------------------------------------------------------

 OEINTS: Overlap, kinetic, potential, dipole, and quadrupole integrals
         stored in file 35.

  ==> Integral Setup <==

  ==> DFJK: Density-Fitted J/K Matrices <==

    J tasked:                  Yes
    K tasked:                  Yes
    wK tasked:                  No
    OpenMP threads:              4
    Integrals threads:           4
    Memory (MB):              1430
    Algorithm:                Core
    Integral Cache:           NONE
    Schwarz Cutoff:          1E-12
    Fitting Condition:       1E-12

   => Auxiliary Basis Set <=

  Basis Set: 
    Number of shells: 150
    Number of basis function: 474
    Number of Cartesian functions: 474
    Spherical Harmonics?: false
    Max angular momentum: 3

  Minimum eigenvalue in the overlap matrix is 4.4269848606E-03.
  Using Symmetric Orthogonalization.
  SCF Guess: Core (One-Electron) Hamiltonian.

  ==> Iterations <==

                           Total Energy        Delta E     RMS |[F,P]|

   @DF-RHF iter   1:  -151.35345294594504   -1.51353e+02   9.24978e-02 
   @DF-RHF iter   2:  -114.77429030617793    3.65792e+01   8.24429e-02 DIIS
   @DF-RHF iter   3:  -169.66120249603523   -5.48869e+01   6.35458e-02 DIIS
   @DF-RHF iter   4:  -191.24062007640572   -2.15794e+01   1.65313e-02 DIIS
   @DF-RHF iter   5:  -191.89381355571436   -6.53193e-01   4.94671e-03 DIIS
   @DF-RHF iter   6:  -191.94532854779641   -5.15150e-02   1.16862e-03 DIIS
   @DF-RHF iter   7:  -191.94848154281374   -3.15300e-03   5.14777e-04 DIIS
   @DF-RHF iter   8:  -191.94909996073159   -6.18418e-04   7.06697e-05 DIIS
   @DF-RHF iter   9:  -191.94912359750248   -2.36368e-05   3.59661e-05 DIIS
   @DF-RHF iter  10:  -191.94912740170798   -3.80421e-06   1.80921e-05 DIIS
   @DF-RHF iter  11:  -191.94912859262126   -1.19091e-06   4.25928e-06 DIIS
   @DF-RHF iter  12:  -191.94912867556422   -8.29430e-08   7.29372e-07 DIIS
   @DF-RHF iter  13:  -191.94912867960704   -4.04282e-09   2.79653e-07 DIIS
   @DF-RHF iter  14:  -191.94912868059282   -9.85779e-10   1.15657e-07 DIIS
   @DF-RHF iter  15:  -191.94912868083128   -2.38458e-10   4.75365e-08 DIIS
   @DF-RHF iter  16:  -191.94912868087533   -4.40536e-11   1.40783e-08 DIIS
   @DF-RHF iter  17:  -191.94912868087835   -3.01270e-12   4.98554e-09 DIIS

  ==> Post-Iterations <==

    Orbital Energies (a.u.)
    -----------------------

    Doubly Occupied:                                                      

       1A    -20.563319     2A    -11.328847     3A    -11.239371  
       4A    -11.232142     5A     -1.403670     6A     -1.068717  
       7A     -0.903336     8A     -0.798062     9A     -0.659296  
      10A     -0.641695    11A     -0.635359    12A     -0.554972  
      13A     -0.544562    14A     -0.525819    15A     -0.488713  
      16A     -0.413021  

    Virtual:                                                              

      17A      0.154286    18A      0.234413    19A      0.271391  
      20A      0.291350    21A      0.300211    22A      0.308091  
      23A      0.348253    24A      0.402683    25A      0.432181  
      26A      0.480695    27A      0.721261    28A      0.725966  
      29A      0.746874    30A      0.781458    31A      0.840963  
      32A      0.920563    33A      0.940655    34A      0.956458  
      35A      1.016380    36A      1.070590    37A      1.114301  
      38A      1.125826    39A      1.154253    40A      1.168167  
      41A      1.190024    42A      1.207712    43A      1.237519  
      44A      1.300895    45A      1.362629    46A      1.379014  
      47A      1.641421    48A      1.704970    49A      1.787180  
      50A      1.821161    51A      1.906498    52A      2.058597  
      53A      2.093758    54A      2.127631    55A      2.220899  
      56A      2.256363    57A      2.265020    58A      2.416965  
      59A      2.463145    60A      2.588926    61A      2.621873  
      62A      2.673079    63A      2.729522    64A      2.859937  
      65A      2.972533    66A      2.990654    67A      3.279414  
      68A      3.376239    69A      4.295769    70A      4.518985  
      71A      4.667719    72A      4.880075  

    Final Occupation by Irrep:
              A 
    DOCC [    16 ]

  Energy converged.

  @DF-RHF Final Energy:  -191.94912868087835

   => Energetics <=

    Nuclear Repulsion Energy =            116.9521927626967681
    One-Electron Energy =                -491.8008414212358730
    Two-Electron Energy =                 182.8995199776607592
    DFT Exchange-Correlation Energy =       0.0000000000000000
    Empirical Dispersion Energy =           0.0000000000000000
    PCM Polarization Energy =               0.0000000000000000
    EFP Energy =                            0.0000000000000000
    Total Energy =                       -191.9491286808783457

    Alert: EFP and PCM quantities not currently incorporated into SCF psivars.

Properties will be evaluated at   0.000000,   0.000000,   0.000000 Bohr
  ==> Properties <==


Properties computed using the SCF density matrix

  Nuclear Dipole Moment: (a.u.)
     X:    -5.9908      Y:    -2.8884      Z:    -0.5491

  Electronic Dipole Moment: (a.u.)
     X:     4.9835      Y:     2.2648      Z:     0.3459

  Dipole Moment: (a.u.)
     X:    -1.0074      Y:    -0.6236      Z:    -0.2033     Total:     1.2021

  Dipole Moment: (Debye)
     X:    -2.5605      Y:    -1.5850      Z:    -0.5167     Total:     3.0554


  Saving occupied orbitals to File 180.

*** tstop() called on cx1-5-5-2.cx1.hpc.ic.ac.uk at Fri Sep  2 11:37:38 2016
Module time:
	user time   =       4.57 seconds =       0.08 minutes
	system time =       0.08 seconds =       0.00 minutes
	total time  =          2 seconds =       0.03 minutes
Total time:
	user time   =       4.57 seconds =       0.08 minutes
	system time =       0.08 seconds =       0.00 minutes
	total time  =          2 seconds =       0.03 minutes

*** tstart() called on cx1-5-5-2.cx1.hpc.ic.ac.uk
*** at Fri Sep  2 11:37:38 2016


         ------------------------------------------------------------
                                   SCF GRAD                          
                          Rob Parrish, Justin Turney,                
                       Andy Simmonett, and Alex Sokolov              
         ------------------------------------------------------------

  ==> Geometry <==

    Molecular point group: c1
    Full point group: C1

    Geometry (in Angstrom), charge = 0, multiplicity = 1:

       Center              X                  Y                   Z               Mass       
    ------------   -----------------  -----------------  -----------------  -----------------
           H          0.993814265017    -1.086075342775    -0.288968642569     1.007825032070
           C          0.745221265017    -0.043854342775    -0.058881642569    12.000000000000
           C         -0.728370734983     0.275036657225    -0.059277642569    12.000000000000
           O          1.608420265017     0.739782657225     0.170345357431    15.994914619560
           C         -1.623332734983    -0.958163342775    -0.059626642569    12.000000000000
           H         -0.923234734983     0.905594657225    -0.925696642569     1.007825032070
           H         -0.923639734983     0.905385657225     0.807170357431     1.007825032070
           H         -1.438362734983    -1.570557342775    -0.933863642569     1.007825032070
           H         -2.668455734983    -0.668493342775    -0.059876642569     1.007825032070
           H         -1.438809734983    -1.570703342775     0.814597357431     1.007825032070

  Nuclear repulsion =  116.952192762696768

  ==> Basis Set <==

  Basis Set: 6-31G*
    Number of shells: 36
    Number of basis function: 72
    Number of Cartesian functions: 72
    Spherical Harmonics?: false
    Max angular momentum: 2

  ==> DFJKGrad: Density-Fitted SCF Gradients <==

    Gradient:                    1
    J tasked:                  Yes
    K tasked:                  Yes
    wK tasked:                  No
    OpenMP threads:              4
    Integrals threads:           4
    Memory (MB):              1430
    Schwarz Cutoff:          0E+00
    Fitting Condition:       1E-12

   => Auxiliary Basis Set <=

  Basis Set: 
    Number of shells: 150
    Number of basis function: 474
    Number of Cartesian functions: 474
    Spherical Harmonics?: false
    Max angular momentum: 3


  -Total Gradient:
     Atom            X                  Y                   Z
    ------   -----------------  -----------------  -----------------
       1       -0.001847661451     0.000495598234     0.000934417108
       2       -0.003087058544     0.004213311835    -0.000477268274
       3        0.001742490089    -0.009803052420    -0.003725710924
       4        0.002635031748    -0.000499397457     0.000367875092
       5       -0.001036417922    -0.001752808801     0.000868056803
       6        0.000160720281     0.002083761013     0.000373190453
       7       -0.000274779391     0.001588361984     0.001587084834
       8        0.001173769267     0.001238099349     0.001761114295
       9       -0.000475653877     0.001454625180     0.000039219739
      10        0.001009559800     0.000981501080    -0.001727979128


*** tstop() called on cx1-5-5-2.cx1.hpc.ic.ac.uk at Fri Sep  2 11:37:41 2016
Module time:
	user time   =       7.56 seconds =       0.13 minutes
	system time =       0.14 seconds =       0.00 minutes
	total time  =          3 seconds =       0.05 minutes
Total time:
	user time   =      12.16 seconds =       0.20 minutes
	system time =       0.22 seconds =       0.00 minutes
	total time  =          5 seconds =       0.08 minutes
CURRENT ENERGY: -191.9491286809

			-----------------------------------------
			 OPTKING 2.0: for geometry optimizations 
			  - R.A. King,  Bethel University        
			-----------------------------------------

	Internal coordinates to be generated automatically.
	Detected frag with atoms:  1 2 3 4 5 6 7 8 9 10
	---Fragment 1 Bond Connectivity---
	 1 : 2
	 2 : 1 3 4
	 3 : 2 5 6 7
	 4 : 2
	 5 : 3 8 9 10
	 6 : 3
	 7 : 3
	 8 : 5
	 9 : 5
	 10 : 5

	Assuming in current code that numbering for constraints corresponds to unified fragment.
	Frozen dihedral atom list: 
	     4     2     3     6
	---Fragment 1 Geometry and Gradient---
	 H           1.8780367878       -2.0523849575       -0.5460715954
	 C           1.4082640993       -0.0828726976       -0.1112701787
	 C          -1.3764212123        0.5197439587       -0.1120185103
	 O           3.0394738075        1.3979866200        0.3219060736
	 C          -3.0676542917       -1.8106663084       -0.1126780247
	 H          -1.7446608055        1.7113258896       -1.7493131366
	 H          -1.7454261446        1.7109309368        1.5253309181
	 H          -2.7181116489       -2.9679232538       -1.7647465299
	 H          -5.0426505368       -1.2632693395       -0.1131504562
	 H          -2.7189563564       -2.9681991539        1.5393659141
	            -0.0018476615        0.0004955982        0.0009344171
	            -0.0030870585        0.0042133118       -0.0004772683
	             0.0017424901       -0.0098030524       -0.0037257109
	             0.0026350317       -0.0004993975        0.0003678751
	            -0.0010364179       -0.0017528088        0.0008680568
	             0.0001607203        0.0020837610        0.0003731905
	            -0.0002747794        0.0015883620        0.0015870848
	             0.0011737693        0.0012380993        0.0017611143
	            -0.0004756539        0.0014546252        0.0000392197
	             0.0010095598        0.0009815011       -0.0017279791

	Previous optimization step data not found.  Starting new optimization.

	---Fragment 1 Intrafragment Coordinates---
	 - Coordinate -           - BOHR/RAD -       - ANG/DEG -
	 R(1,2)           =         2.070922	       1.095885
	 R(2,3)           =         2.849144	       1.507702
	 R(2,4)           =         2.245313	       1.188169
	 R(3,5)           =         2.879424	       1.523726
	 R(3,6)           =         2.058203	       1.089154
	 R(3,7)           =         2.058156	       1.089129
	 R(5,8)           =         2.047133	       1.083296
	 R(5,9)           =         2.049452	       1.084523
	 R(5,10)          =         2.047125	       1.083292
	 B(1,2,3)         =         2.007336	     115.011865
	 B(1,2,4)         =         2.097797	     120.194898
	 B(2,3,5)         =         1.985461	     113.758530
	 B(2,3,6)         =         1.872896	     107.309032
	 B(2,3,7)         =         1.872804	     107.303744
	 B(3,2,4)         =         2.178049	     124.793012
	 B(3,5,8)         =         1.936297	     110.941624
	 B(3,5,9)         =         1.928202	     110.477835
	 B(3,5,10)        =         1.936279	     110.940590
	 B(5,3,6)         =         1.942593	     111.302379
	 B(5,3,7)         =         1.942592	     111.302328
	 B(6,3,7)         =         1.839729	     105.408716
	 B(8,5,9)         =         1.891620	     108.381837
	 B(8,5,10)        =         1.878147	     107.609884
	 B(9,5,10)        =         1.891632	     108.382539
	 D(1,2,3,5)       =         0.233798	      13.395660
	 D(1,2,3,6)       =        -1.922882	    -110.173048
	 D(1,2,3,7)       =         2.390410	     136.960415
	 D(2,3,5,8)       =        -1.043358	     -59.780024
	 D(2,3,5,9)       =         3.141567	     179.998532
	 D(2,3,5,10)      =         1.043303	      59.776884
	 D(4,2,3,5)       =        -2.904774	    -166.431282
	*D(4,2,3,6)       =         1.221731	      70.000011
	 D(4,2,3,7)       =        -0.748162	     -42.866526
	 D(6,3,5,8)       =         1.074942	      61.589627
	 D(6,3,5,9)       =        -1.023318	     -58.631818
	 D(6,3,5,10)      =        -3.121582	    -178.853465
	 D(7,3,5,8)       =         3.121649	     178.857298
	 D(7,3,5,9)       =         1.023389	      58.635854
	 D(7,3,5,10)      =        -1.074875	     -61.585794

	Current energy   :      -191.9491286809

	Generating empirical Hessian (Schlegel '84) for each fragment.
	Taking RFO optimization step.
	Going to follow RFO solution 1.
	Using RFO vector 1.
	Norm of target step-size    0.22166
	Projected energy change by RFO approximation:         0.0004704375

	Back-transformation to cartesian coordinates...
	Successfully converged to displaced geometry.

	Back-transformation to cartesian coordinates to adjust frozen coordinates...
	Successfully converged to displaced geometry.

	--- Internal Coordinate Step in ANG or DEG, aJ/ANG or AJ/DEG ---
	 ---------------------------------------------------------------------------
	   Coordinate                Previous        Force       Change         New 
	   ----------                --------       ------       ------       ------
	    1 R(1,2)          =      1.095885     0.008953     0.001681     1.097566
	    2 R(2,3)          =      1.507702     0.025851     0.005247     1.512949
	    3 R(2,4)          =      1.188169    -0.013643    -0.000789     1.187380
	    4 R(3,5)          =      1.523726     0.016062     0.003431     1.527156
	    5 R(3,6)          =      1.089154    -0.007256    -0.001333     1.087822
	    6 R(3,7)          =      1.089129    -0.018382    -0.003376     1.085753
	    7 R(5,8)          =      1.083296     0.015824     0.002850     1.086146
	    8 R(5,9)          =      1.084523    -0.006977    -0.001262     1.083262
	    9 R(5,10)         =      1.083292     0.014644     0.002638     1.085930
	   10 B(1,2,3)        =    115.011865     0.000289     1.000357   116.012222
	   11 B(1,2,4)        =    120.194898     0.000036    -0.183754   120.011143
	   12 B(2,3,5)        =    113.758530    -0.000067    -0.408459   113.350071
	   13 B(2,3,6)        =    107.309032     0.000034    -0.187521   107.121511
	   14 B(2,3,7)        =    107.303744     0.000039     0.509817   107.813562
	   15 B(3,2,4)        =    124.793012    -0.000325    -1.257049   123.535963
	   16 B(3,5,8)        =    110.941624     0.000093     0.533039   111.474663
	   17 B(3,5,9)        =    110.477835     0.000085     0.213160   110.690995
	   18 B(3,5,10)       =    110.940590     0.000057     0.347646   111.288236
	   19 B(5,3,6)        =    111.302379    -0.000047    -0.825660   110.476719
	   20 B(5,3,7)        =    111.302328     0.000022     0.279424   111.581751
	   21 B(6,3,7)        =    105.408716     0.000030     0.728159   106.136875
	   22 B(8,5,9)        =    108.381837    -0.000115    -0.695524   107.686313
	   23 B(8,5,10)       =    107.609884    -0.000029     0.210375   107.820259
	   24 B(9,5,10)       =    108.382539    -0.000102    -0.670648   107.711891
	   25 D(1,2,3,5)      =     13.395660     0.000003     6.361361    19.757021
	   26 D(1,2,3,6)      =   -110.173048     0.000021     7.810371  -102.362676
	   27 D(1,2,3,7)      =    136.960415     0.000005     6.820165   143.780581
	   28 D(2,3,5,8)      =    -59.780024    -0.000002     0.351073   -59.428951
	   29 D(2,3,5,9)      =    179.998532     0.000004     0.733743   180.732275
	   30 D(2,3,5,10)     =     59.776884     0.000012     1.207312    60.984196
	   31 D(4,2,3,5)      =   -166.431282    -0.000018    -1.449010  -167.880292
	   32 *D(4,2,3,6)     =     70.000011     0.000000     0.000000    70.000011
	   33 D(4,2,3,7)      =    -42.866526    -0.000016    -0.990206   -43.856733
	   34 D(6,3,5,8)      =     61.589627    -0.000011    -0.786970    60.802657
	   35 D(6,3,5,9)      =    -58.631818    -0.000005    -0.404300   -59.036117
	   36 D(6,3,5,10)     =   -178.853465     0.000003     0.069269  -178.784197
	   37 D(7,3,5,8)      =    178.857298    -0.000007    -0.230688   178.626610
	   38 D(7,3,5,9)      =     58.635854    -0.000000     0.151983    58.787837
	   39 D(7,3,5,10)     =    -61.585794     0.000008     0.625551   -60.960243
	 ---------------------------------------------------------------------------

  ==> Convergence Check <==

  Measures of convergence in internal coordinates in au.
  Criteria marked as inactive (o), active & met (*), and active & unmet ( ).
  --------------------------------------------------------------------------------------------- ~
   Step     Total Energy     Delta E     MAX Force     RMS Force      MAX Disp      RMS Disp    ~
  --------------------------------------------------------------------------------------------- ~
    Convergence Criteria    1.00e-06 *    3.00e-04 *             o    1.20e-03 *             o  ~
  --------------------------------------------------------------------------------------------- ~
      1    -191.94912868   -1.92e+02      4.27e-03      1.41e-03 o    1.36e-01      3.55e-02 o  ~
  ---------------------------------------------------------------------------------------------

	Writing optimization data to binary file.
	Structure for next step:
	Cartesian Geometry (in Angstrom)
	    H     1.0175604799  -1.0683044571  -0.3615084010
	    C     0.7497249441  -0.0561926965  -0.0320469140
	    C    -0.7258984334   0.2774958678  -0.0462940408
	    O     1.6010119686   0.7432697369   0.1825237962
	    C    -1.6254927381  -0.9565595756  -0.0528699517
	    H    -0.9081284669   0.8859761462  -0.9294135972
	    H    -0.9302763354   0.9161572658   0.8076389961
	    H    -1.4362215077  -1.5819777428  -0.9204774295
	    H    -2.6696196397  -0.6689477159  -0.0759785451
	    H    -1.4694111097  -1.5629644911   0.8343476159
			--------------------------
			 OPTKING Finished Execution 
			--------------------------

    Structure for next step:
    Molecular point group: c1
    Full point group: C1

    Geometry (in Angstrom), charge = 0, multiplicity = 1:

    H            1.018561252628    -1.067637556189    -0.373473530553
    C            0.750725737199    -0.055525872894    -0.044012068736
    C           -0.724897527627     0.278162665996    -0.058259194447
    O            1.602012696745     0.743936499471     0.170558625033
    C           -1.624491763594    -0.955892683181    -0.064835104840
    H           -0.907127547204     0.886642897854    -0.941378683428
    H           -0.929275413994     0.916824015211     0.795673777255
    H           -1.435220547623    -1.581310802606    -0.932442516372
    H           -2.668618585428    -0.668280845436    -0.087943696467
    H           -1.468410147092    -1.562297552375     0.822382394954

gradient() will perform analytic gradient computation.

*** tstart() called on cx1-5-5-2.cx1.hpc.ic.ac.uk
*** at Fri Sep  2 11:37:41 2016


         ---------------------------------------------------------
                                   SCF
            by Justin Turney, Rob Parrish, and Andy Simmonett
                              RHF Reference
                        4 Threads,   2000 MiB Core
         ---------------------------------------------------------

  ==> Geometry <==

    Molecular point group: c1
    Full point group: C1

    Geometry (in Angstrom), charge = 0, multiplicity = 1:

       Center              X                  Y                   Z               Mass       
    ------------   -----------------  -----------------  -----------------  -----------------
           H          1.018561252628    -1.067637556189    -0.373473530553     1.007825032070
           C          0.750725737199    -0.055525872894    -0.044012068736    12.000000000000
           C         -0.724897527627     0.278162665996    -0.058259194447    12.000000000000
           O          1.602012696745     0.743936499471     0.170558625033    15.994914619560
           C         -1.624491763594    -0.955892683181    -0.064835104840    12.000000000000
           H         -0.907127547204     0.886642897854    -0.941378683428     1.007825032070
           H         -0.929275413994     0.916824015211     0.795673777255     1.007825032070
           H         -1.435220547623    -1.581310802606    -0.932442516372     1.007825032070
           H         -2.668618585428    -0.668280845436    -0.087943696467     1.007825032070
           H         -1.468410147092    -1.562297552375     0.822382394954     1.007825032070

  Running in c1 symmetry.

  Rotational constants: A =      1.07903  B =      0.13984  C =      0.13030 [cm^-1]
  Rotational constants: A =  32348.55226  B =   4192.28538  C =   3906.18198 [MHz]
  Nuclear repulsion =  116.877759803407741

  Charge       = 0
  Multiplicity = 1
  Electrons    = 32
  Nalpha       = 16
  Nbeta        = 16

  ==> Algorithm <==

  SCF Algorithm Type is DF.
  DIIS enabled.
  MOM disabled.
  Fractional occupation disabled.
  Guess Type is READ.
  Energy threshold   = 1.00e-08
  Density threshold  = 1.00e-08
  Integral threshold = 0.00e+00

  ==> Primary Basis <==

  Basis Set: 6-31G*
    Number of shells: 36
    Number of basis function: 72
    Number of Cartesian functions: 72
    Spherical Harmonics?: false
    Max angular momentum: 2

  ==> Pre-Iterations <==

   -------------------------------------------------------
    Irrep   Nso     Nmo     Nalpha   Nbeta   Ndocc  Nsocc
   -------------------------------------------------------
     A         72      72       0       0       0       0
   -------------------------------------------------------
    Total      72      72      16      16      16       0
   -------------------------------------------------------

 OEINTS: Overlap, kinetic, potential, dipole, and quadrupole integrals
         stored in file 35.

  ==> Integral Setup <==

  ==> DFJK: Density-Fitted J/K Matrices <==

    J tasked:                  Yes
    K tasked:                  Yes
    wK tasked:                  No
    OpenMP threads:              4
    Integrals threads:           4
    Memory (MB):              1430
    Algorithm:                Core
    Integral Cache:           NONE
    Schwarz Cutoff:          1E-12
    Fitting Condition:       1E-12

   => Auxiliary Basis Set <=

  Basis Set: 
    Number of shells: 150
    Number of basis function: 474
    Number of Cartesian functions: 474
    Spherical Harmonics?: false
    Max angular momentum: 3

  Minimum eigenvalue in the overlap matrix is 4.3994624488E-03.
  Using Symmetric Orthogonalization.
  SCF Guess: Reading in previously saved MOs, projecting if necessary.

  Using orbitals from previous SCF, no projection.
  Recomputing DOCC and SOCC from number of alpha and beta electrons from previous calculation.
              A 
    DOCC [    16 ]

  ==> Iterations <==

                           Total Energy        Delta E     RMS |[F,P]|

   @DF-RHF iter   0:  -191.94428844824301   -1.91944e+02   7.73297e-04 
   @DF-RHF iter   1:  -191.94849165292004   -4.20320e-03   1.53951e-04 
   @DF-RHF iter   2:  -191.94865708117726   -1.65428e-04   7.15496e-05 DIIS
   @DF-RHF iter   3:  -191.94872064643977   -6.35653e-05   3.21568e-05 DIIS
   @DF-RHF iter   4:  -191.94873477172570   -1.41253e-05   1.83119e-05 DIIS
   @DF-RHF iter   5:  -191.94874117135663   -6.39963e-06   7.68700e-06 DIIS
   @DF-RHF iter   6:  -191.94874178562628   -6.14270e-07   2.78120e-06 DIIS
   @DF-RHF iter   7:  -191.94874186323301   -7.76067e-08   7.89442e-07 DIIS
   @DF-RHF iter   8:  -191.94874186764480   -4.41179e-09   2.12922e-07 DIIS
   @DF-RHF iter   9:  -191.94874186799160   -3.46802e-10   6.15099e-08 DIIS
   @DF-RHF iter  10:  -191.94874186801604   -2.44427e-11   2.11053e-08 DIIS
   @DF-RHF iter  11:  -191.94874186801923   -3.18323e-12   6.61341e-09 DIIS

  ==> Post-Iterations <==

    Orbital Energies (a.u.)
    -----------------------

    Doubly Occupied:                                                      

       1A    -20.563228     2A    -11.328935     3A    -11.239503  
       4A    -11.231878     5A     -1.404425     6A     -1.066390  
       7A     -0.901720     8A     -0.797802     9A     -0.660758  
      10A     -0.640886    11A     -0.633737    12A     -0.554174  
      13A     -0.543928    14A     -0.524715    15A     -0.489669  
      16A     -0.412587  

    Virtual:                                                              

      17A      0.153624    18A      0.234816    19A      0.271560  
      20A      0.290454    21A      0.301482    22A      0.308767  
      23A      0.347824    24A      0.401728    25A      0.429934  
      26A      0.480074    27A      0.721681    28A      0.727345  
      29A      0.745241    30A      0.780964    31A      0.838288  
      32A      0.912188    33A      0.933452    34A      0.963969  
      35A      1.017492    36A      1.069071    37A      1.113801  
      38A      1.129223    39A      1.154482    40A      1.165051  
      41A      1.192967    42A      1.212792    43A      1.237307  
      44A      1.304445    45A      1.364565    46A      1.373109  
      47A      1.647655    48A      1.705724    49A      1.784294  
      50A      1.830866    51A      1.898403    52A      2.062489  
      53A      2.091415    54A      2.118499    55A      2.223813  
      56A      2.253583    57A      2.274132    58A      2.394514  
      59A      2.472141    60A      2.589484    61A      2.627422  
      62A      2.671448    63A      2.723989    64A      2.861508  
      65A      2.968926    66A      2.986726    67A      3.273496  
      68A      3.374713    69A      4.293333    70A      4.517356  
      71A      4.667364    72A      4.876105  

    Final Occupation by Irrep:
              A 
    DOCC [    16 ]

  Energy converged.

  @DF-RHF Final Energy:  -191.94874186801923

   => Energetics <=

    Nuclear Repulsion Energy =            116.8777598034077414
    One-Electron Energy =                -491.6643338025866115
    Two-Electron Energy =                 182.8378321311596153
    DFT Exchange-Correlation Energy =       0.0000000000000000
    Empirical Dispersion Energy =           0.0000000000000000
    PCM Polarization Energy =               0.0000000000000000
    EFP Energy =                            0.0000000000000000
    Total Energy =                       -191.9487418680192548

    Alert: EFP and PCM quantities not currently incorporated into SCF psivars.

Properties will be evaluated at   0.000000,   0.000000,   0.000000 Bohr
  ==> Properties <==


Properties computed using the SCF density matrix

  Nuclear Dipole Moment: (a.u.)
     X:    -5.9828      Y:    -2.8801      Z:    -0.6715

  Electronic Dipole Moment: (a.u.)
     X:     4.9958      Y:     2.2495      Z:     0.4637

  Dipole Moment: (a.u.)
     X:    -0.9871      Y:    -0.6306      Z:    -0.2078     Total:     1.1896

  Dipole Moment: (Debye)
     X:    -2.5088      Y:    -1.6029      Z:    -0.5282     Total:     3.0237


  Saving occupied orbitals to File 180.

*** tstop() called on cx1-5-5-2.cx1.hpc.ic.ac.uk at Fri Sep  2 11:37:44 2016
Module time:
	user time   =       6.33 seconds =       0.11 minutes
	system time =       0.13 seconds =       0.00 minutes
	total time  =          3 seconds =       0.05 minutes
Total time:
	user time   =      19.60 seconds =       0.33 minutes
	system time =       0.40 seconds =       0.01 minutes
	total time  =          8 seconds =       0.13 minutes

*** tstart() called on cx1-5-5-2.cx1.hpc.ic.ac.uk
*** at Fri Sep  2 11:37:44 2016


         ------------------------------------------------------------
                                   SCF GRAD                          
                          Rob Parrish, Justin Turney,                
                       Andy Simmonett, and Alex Sokolov              
         ------------------------------------------------------------

  ==> Geometry <==

    Molecular point group: c1
    Full point group: C1

    Geometry (in Angstrom), charge = 0, multiplicity = 1:

       Center              X                  Y                   Z               Mass       
    ------------   -----------------  -----------------  -----------------  -----------------
           H          1.018561252628    -1.067637556189    -0.373473530553     1.007825032070
           C          0.750725737199    -0.055525872894    -0.044012068736    12.000000000000
           C         -0.724897527627     0.278162665996    -0.058259194447    12.000000000000
           O          1.602012696745     0.743936499471     0.170558625033    15.994914619560
           C         -1.624491763594    -0.955892683181    -0.064835104840    12.000000000000
           H         -0.907127547204     0.886642897854    -0.941378683428     1.007825032070
           H         -0.929275413994     0.916824015211     0.795673777255     1.007825032070
           H         -1.435220547623    -1.581310802606    -0.932442516372     1.007825032070
           H         -2.668618585428    -0.668280845436    -0.087943696467     1.007825032070
           H         -1.468410147092    -1.562297552375     0.822382394954     1.007825032070

  Nuclear repulsion =  116.877759803407741

  ==> Basis Set <==

  Basis Set: 6-31G*
    Number of shells: 36
    Number of basis function: 72
    Number of Cartesian functions: 72
    Spherical Harmonics?: false
    Max angular momentum: 2

  ==> DFJKGrad: Density-Fitted SCF Gradients <==

    Gradient:                    1
    J tasked:                  Yes
    K tasked:                  Yes
    wK tasked:                  No
    OpenMP threads:              4
    Integrals threads:           4
    Memory (MB):              1430
    Schwarz Cutoff:          0E+00
    Fitting Condition:       1E-12

   => Auxiliary Basis Set <=

  Basis Set: 
    Number of shells: 150
    Number of basis function: 474
    Number of Cartesian functions: 474
    Spherical Harmonics?: false
    Max angular momentum: 3


  -Total Gradient:
     Atom            X                  Y                   Z
    ------   -----------------  -----------------  -----------------
       1        0.000473459529     0.001261039631    -0.005238818421
       2       -0.000220217347    -0.004275472320     0.016767914886
       3        0.000959641684     0.001300071001    -0.005482068813
       4       -0.000838331056     0.000843555931    -0.006255103359
       5        0.000210641315    -0.000242915477    -0.000614001796
       6       -0.001353492546     0.000772016789     0.000405882621
       7        0.000273073702     0.000383727085     0.000325821765
       8       -0.000161136304    -0.000246789744    -0.000068722066
       9        0.000551355204     0.000128026696     0.000080732435
      10        0.000105005814     0.000076740408     0.000078362746


*** tstop() called on cx1-5-5-2.cx1.hpc.ic.ac.uk at Fri Sep  2 11:37:46 2016
Module time:
	user time   =       7.35 seconds =       0.12 minutes
	system time =       0.14 seconds =       0.00 minutes
	total time  =          2 seconds =       0.03 minutes
Total time:
	user time   =      26.98 seconds =       0.45 minutes
	system time =       0.54 seconds =       0.01 minutes
	total time  =         10 seconds =       0.17 minutes
CURRENT ENERGY: -191.9487418680

			-----------------------------------------
			 OPTKING 2.0: for geometry optimizations 
			  - R.A. King,  Bethel University        
			-----------------------------------------

	Previous internal coordinate definitions found.
	---Fragment 1 Geometry and Gradient---
	 H           1.9248018170       -2.0175425904       -0.7057626906
	 C           1.4186660442       -0.1049286931       -0.0831707565
	 C          -1.3698578016        0.5256512591       -0.1100939222
	 O           3.0273652583        1.4058362443        0.3223090909
	 C          -3.0698445383       -1.8063753836       -0.1225205919
	 H          -1.7142226318        1.6755122546       -1.7789478990
	 H          -1.7560760345        1.7325463008        1.5036055301
	 H          -2.7121737753       -2.9882443479       -1.7620609906
	 H          -5.0429582796       -1.2628677777       -0.1661895014
	 H          -2.7748930288       -2.9523145121        1.5540775030
	             0.0004734595        0.0012610396       -0.0052388184
	            -0.0002202173       -0.0042754723        0.0167679149
	             0.0009596417        0.0013000710       -0.0054820688
	            -0.0008383311        0.0008435559       -0.0062551034
	             0.0002106413       -0.0002429155       -0.0006140018
	            -0.0013534925        0.0007720168        0.0004058826
	             0.0002730737        0.0003837271        0.0003258218
	            -0.0001611363       -0.0002467897       -0.0000687221
	             0.0005513552        0.0001280267        0.0000807324
	             0.0001050058        0.0000767404        0.0000783627

	---Fragment 1 Intrafragment Coordinates---
	 - Coordinate -           - BOHR/RAD -       - ANG/DEG -
	 R(1,2)           =         2.074099	       1.097566
	 R(2,3)           =         2.859059	       1.512949
	 R(2,4)           =         2.243822	       1.187380
	 R(3,5)           =         2.885907	       1.527156
	 R(3,6)           =         2.055685	       1.087822
	 R(3,7)           =         2.051776	       1.085753
	 R(5,8)           =         2.052519	       1.086146
	 R(5,9)           =         2.047067	       1.083262
	 R(5,10)          =         2.052110	       1.085930
	 B(1,2,3)         =         2.024795	     116.012222
	 B(1,2,4)         =         2.094590	     120.011143
	 B(2,3,5)         =         1.978332	     113.350071
	 B(2,3,6)         =         1.869623	     107.121511
	 B(2,3,7)         =         1.881702	     107.813562
	 B(3,2,4)         =         2.156109	     123.535963
	 B(3,5,8)         =         1.945600	     111.474663
	 B(3,5,9)         =         1.931922	     110.690995
	 B(3,5,10)        =         1.942346	     111.288236
	 B(5,3,6)         =         1.928182	     110.476719
	 B(5,3,7)         =         1.947469	     111.581751
	 B(6,3,7)         =         1.852438	     106.136875
	 B(8,5,9)         =         1.879481	     107.686313
	 B(8,5,10)        =         1.881819	     107.820259
	 B(9,5,10)        =         1.879927	     107.711891
	 D(1,2,3,5)       =         0.344825	      19.757021
	 D(1,2,3,6)       =        -1.786566	    -102.362676
	 D(1,2,3,7)       =         2.509445	     143.780581
	 D(2,3,5,8)       =        -1.037231	     -59.428951
	 D(2,3,5,9)       =        -3.128812	    -179.267725
	 D(2,3,5,10)      =         1.064375	      60.984196
	 D(4,2,3,5)       =        -2.930064	    -167.880292
	*D(4,2,3,6)       =         1.221731	      70.000011
	 D(4,2,3,7)       =        -0.765444	     -43.856733
	 D(6,3,5,8)       =         1.061207	      60.802657
	 D(6,3,5,9)       =        -1.030375	     -59.036117
	 D(6,3,5,10)      =        -3.120373	    -178.784197
	 D(7,3,5,8)       =         3.117622	     178.626610
	 D(7,3,5,9)       =         1.026041	      58.787837
	 D(7,3,5,10)      =        -1.063957	     -60.960243

	Current energy   :      -191.9487418680

	Energy change for the previous step:
		Projected    :         0.0004704375
		Actual       :         0.0003868129

	Performing BFGS update.
	Previous computed or guess Hessian on step 1.
	Steps to be used in Hessian update: 1
	Taking RFO optimization step.
	Going to follow RFO solution 1.
	Using RFO vector 1.
	Norm of target step-size    0.24014
	Projected energy change by RFO approximation:        -0.0020542941

	Back-transformation to cartesian coordinates...
	Successfully converged to displaced geometry.

	Back-transformation to cartesian coordinates to adjust frozen coordinates...
	Successfully converged to displaced geometry.

	--- Internal Coordinate Step in ANG or DEG, aJ/ANG or AJ/DEG ---
	 ---------------------------------------------------------------------------
	   Coordinate                Previous        Force       Change         New 
	   ----------                --------       ------       ------       ------
	    1 R(1,2)          =      1.097566    -0.004327     0.000998     1.098564
	    2 R(2,3)          =      1.512949     0.000348     0.003993     1.516942
	    3 R(2,4)          =      1.187380     0.009585    -0.000411     1.186969
	    4 R(3,5)          =      1.527156     0.001510     0.002703     1.529860
	    5 R(3,6)          =      1.087822    -0.002711    -0.001176     1.086645
	    6 R(3,7)          =      1.085753    -0.003547    -0.002774     1.082979
	    7 R(5,8)          =      1.086146    -0.001392     0.002072     1.088218
	    8 R(5,9)          =      1.083262     0.004112    -0.000704     1.082558
	    9 R(5,10)         =      1.085930    -0.000299     0.001978     1.087907
	   10 B(1,2,3)        =    116.012222    -0.000004     0.994908   117.007130
	   11 B(1,2,4)        =    120.011143    -0.000021     0.075245   120.086388
	   12 B(2,3,5)        =    113.350071     0.000142    -0.045107   113.304964
	   13 B(2,3,6)        =    107.121511    -0.000167    -0.383797   106.737714
	   14 B(2,3,7)        =    107.813562    -0.000028     0.253764   108.067325
	   15 B(3,2,4)        =    123.535963     0.000066    -0.629497   122.906467
	   16 B(3,5,8)        =    111.474663    -0.000037     0.326020   111.800684
	   17 B(3,5,9)        =    110.690995     0.000033     0.222584   110.913579
	   18 B(3,5,10)       =    111.288236     0.000017     0.289551   111.577787
	   19 B(5,3,6)        =    110.476719     0.000136    -0.090686   110.386032
	   20 B(5,3,7)        =    111.581751    -0.000052     0.148641   111.730392
	   21 B(6,3,7)        =    106.136875    -0.000051     0.111191   106.248066
	   22 B(8,5,9)        =    107.686313    -0.000001    -0.534219   107.152094
	   23 B(8,5,10)       =    107.820259     0.000004     0.140307   107.960566
	   24 B(9,5,10)       =    107.711891    -0.000016    -0.505136   107.206755
	   25 D(1,2,3,5)      =     19.757021    -0.000048    -8.091728    11.665292
	   26 D(1,2,3,6)      =   -102.362676    -0.000081    -7.681732  -110.044408
	   27 D(1,2,3,7)      =    143.780581    -0.000046    -7.743269   136.037312
	   28 D(2,3,5,8)      =    -59.428951     0.000004     0.253512   -59.175439
	   29 D(2,3,5,9)      =   -179.267725     0.000005     0.562598  -178.705127
	   30 D(2,3,5,10)     =     60.984196     0.000002     0.859860    61.844056
	   31 D(4,2,3,5)      =   -167.880292     0.000033    -0.409997  -168.290289
	   32 *D(4,2,3,6)     =     70.000011    -0.000000    -0.000000    70.000011
	   33 D(4,2,3,7)      =    -43.856733     0.000035    -0.061537   -43.918270
	   34 D(6,3,5,8)      =     60.802657    -0.000000    -0.334060    60.468596
	   35 D(6,3,5,9)      =    -59.036117     0.000001    -0.024974   -59.061092
	   36 D(6,3,5,10)     =   -178.784197    -0.000002     0.272288  -178.511908
	   37 D(7,3,5,8)      =    178.626610    -0.000002    -0.160038   178.466572
	   38 D(7,3,5,9)      =     58.787837    -0.000001     0.149048    58.936884
	   39 D(7,3,5,10)     =    -60.960243    -0.000004     0.446311   -60.513932
	 ---------------------------------------------------------------------------

  ==> Convergence Check <==

  Measures of convergence in internal coordinates in au.
  Criteria marked as inactive (o), active & met (*), and active & unmet ( ).
  ---------------------------------------------------------------------------------------------
   Step     Total Energy     Delta E     MAX Force     RMS Force      MAX Disp      RMS Disp   
  ---------------------------------------------------------------------------------------------
    Convergence Criteria    1.00e-06 *    3.00e-04 *             o    1.20e-03 *             o
  ---------------------------------------------------------------------------------------------
      2    -191.94874187    3.87e-04      4.66e-03      1.24e-03 o    1.41e-01      3.84e-02 o  ~
  ---------------------------------------------------------------------------------------------

	Writing optimization data to binary file.
	Structure for next step:
	Cartesian Geometry (in Angstrom)
	    H     1.0292793629  -1.0908921839  -0.2936924560
	    C     0.7546778029  -0.0499894798  -0.0747006986
	    C    -0.7251839707   0.2828922819  -0.0570255845
	    O     1.5996429496   0.7566754118   0.1355880105
	    C    -1.6242027751  -0.9548470247  -0.0724254521
	    H    -0.9173173647   0.9011667434  -0.9297337364
	    H    -0.9185121033   0.9081719716   0.8058149046
	    H    -1.4496262149  -1.5702185768  -0.9528005503
	    H    -2.6694294761  -0.6731700031  -0.0819526481
	    H    -1.4660705443  -1.5751686087   0.8071981587
			--------------------------
			 OPTKING Finished Execution 
			--------------------------

    Structure for next step:
    Molecular point group: c1
    Full point group: C1

    Geometry (in Angstrom), charge = 0, multiplicity = 1:

    H            1.029142250892    -1.096323676354    -0.277646827918
    C            0.754540711920    -0.055421051799    -0.058655087263
    C           -0.725320948735     0.277460684519    -0.040979974498
    O            1.599505794086     0.751243778189     0.151633605818
    C           -1.624339684422    -0.960278527565    -0.056379840880
    H           -0.917454328068     0.895735098825    -0.913688059712
    H           -0.918649066584     0.902740326488     0.821860448736
    H           -1.449763137603    -1.575650032717    -0.936754871897
    H           -2.669566305634    -0.678601527528    -0.065907036199
    H           -1.466207465772    -1.580600064185     0.823243702713

gradient() will perform analytic gradient computation.

*** tstart() called on cx1-5-5-2.cx1.hpc.ic.ac.uk
*** at Fri Sep  2 11:37:46 2016


         ---------------------------------------------------------
                                   SCF
            by Justin Turney, Rob Parrish, and Andy Simmonett
                              RHF Reference
                        4 Threads,   2000 MiB Core
         ---------------------------------------------------------

  ==> Geometry <==

    Molecular point group: c1
    Full point group: C1

    Geometry (in Angstrom), charge = 0, multiplicity = 1:

       Center              X                  Y                   Z               Mass       
    ------------   -----------------  -----------------  -----------------  -----------------
           H          1.029142250892    -1.096323676354    -0.277646827918     1.007825032070
           C          0.754540711920    -0.055421051799    -0.058655087263    12.000000000000
           C         -0.725320948735     0.277460684519    -0.040979974498    12.000000000000
           O          1.599505794086     0.751243778189     0.151633605818    15.994914619560
           C         -1.624339684422    -0.960278527565    -0.056379840880    12.000000000000
           H         -0.917454328068     0.895735098825    -0.913688059712     1.007825032070
           H         -0.918649066584     0.902740326488     0.821860448736     1.007825032070
           H         -1.449763137603    -1.575650032717    -0.936754871897     1.007825032070
           H         -2.669566305634    -0.678601527528    -0.065907036199     1.007825032070
           H         -1.466207465772    -1.580600064185     0.823243702713     1.007825032070

  Running in c1 symmetry.

  Rotational constants: A =      1.07612  B =      0.13974  C =      0.13001 [cm^-1]
  Rotational constants: A =  32261.24548  B =   4189.38815  C =   3897.70530 [MHz]
  Nuclear repulsion =  116.784123228469326

  Charge       = 0
  Multiplicity = 1
  Electrons    = 32
  Nalpha       = 16
  Nbeta        = 16

  ==> Algorithm <==

  SCF Algorithm Type is DF.
  DIIS enabled.
  MOM disabled.
  Fractional occupation disabled.
  Guess Type is READ.
  Energy threshold   = 1.00e-08
  Density threshold  = 1.00e-08
  Integral threshold = 0.00e+00

  ==> Primary Basis <==

  Basis Set: 6-31G*
    Number of shells: 36
    Number of basis function: 72
    Number of Cartesian functions: 72
    Spherical Harmonics?: false
    Max angular momentum: 2

  ==> Pre-Iterations <==

   -------------------------------------------------------
    Irrep   Nso     Nmo     Nalpha   Nbeta   Ndocc  Nsocc
   -------------------------------------------------------
     A         72      72       0       0       0       0
   -------------------------------------------------------
    Total      72      72      16      16      16       0
   -------------------------------------------------------

 OEINTS: Overlap, kinetic, potential, dipole, and quadrupole integrals
         stored in file 35.

  ==> Integral Setup <==

  ==> DFJK: Density-Fitted J/K Matrices <==

    J tasked:                  Yes
    K tasked:                  Yes
    wK tasked:                  No
    OpenMP threads:              4
    Integrals threads:           4
    Memory (MB):              1430
    Algorithm:                Core
    Integral Cache:           NONE
    Schwarz Cutoff:          1E-12
    Fitting Condition:       1E-12

   => Auxiliary Basis Set <=

  Basis Set: 
    Number of shells: 150
    Number of basis function: 474
    Number of Cartesian functions: 474
    Spherical Harmonics?: false
    Max angular momentum: 3

  Minimum eigenvalue in the overlap matrix is 4.4135129905E-03.
  Using Symmetric Orthogonalization.
  SCF Guess: Reading in previously saved MOs, projecting if necessary.

  Using orbitals from previous SCF, no projection.
  Recomputing DOCC and SOCC from number of alpha and beta electrons from previous calculation.
              A 
    DOCC [    16 ]

  ==> Iterations <==

                           Total Energy        Delta E     RMS |[F,P]|

   @DF-RHF iter   0:  -191.94653119079126   -1.91947e+02   6.15949e-04 
   @DF-RHF iter   1:  -191.94895100899177   -2.41982e-03   1.49925e-04 
   @DF-RHF iter   2:  -191.94911757267138   -1.66564e-04   7.25374e-05 DIIS
   @DF-RHF iter   3:  -191.94918690834194   -6.93357e-05   2.95142e-05 DIIS
   @DF-RHF iter   4:  -191.94920039750374   -1.34892e-05   1.61234e-05 DIIS
   @DF-RHF iter   5:  -191.94920431452633   -3.91702e-06   6.97427e-06 DIIS
   @DF-RHF iter   6:  -191.94920488831994   -5.73794e-07   2.88595e-06 DIIS
   @DF-RHF iter   7:  -191.94920498061489   -9.22950e-08   9.29058e-07 DIIS
   @DF-RHF iter   8:  -191.94920498865835   -8.04346e-09   2.72245e-07 DIIS
   @DF-RHF iter   9:  -191.94920498940493   -7.46581e-10   7.25379e-08 DIIS
   @DF-RHF iter  10:  -191.94920498945382   -4.88853e-11   2.49823e-08 DIIS
   @DF-RHF iter  11:  -191.94920498945996   -6.13909e-12   5.73885e-09 DIIS

  ==> Post-Iterations <==

    Orbital Energies (a.u.)
    -----------------------

    Doubly Occupied:                                                      

       1A    -20.562745     2A    -11.329159     3A    -11.239500  
       4A    -11.232106     5A     -1.404553     6A     -1.064690  
       7A     -0.900886     8A     -0.798160     9A     -0.659206  
      10A     -0.639395    11A     -0.635728    12A     -0.552433  
      13A     -0.543607    14A     -0.525421    15A     -0.489676  
      16A     -0.412344  

    Virtual:                                                              

      17A      0.155195    18A      0.234631    19A      0.270853  
      20A      0.291994    21A      0.299136    22A      0.308280  
      23A      0.348608    24A      0.402653    25A      0.428623  
      26A      0.479394    27A      0.721479    28A      0.728581  
      29A      0.742269    30A      0.782662    31A      0.843469  
      32A      0.919398    33A      0.936582    34A      0.957491  
      35A      1.018862    36A      1.070589    37A      1.113944  
      38A      1.130271    39A      1.154098    40A      1.166687  
      41A      1.186381    42A      1.209496    43A      1.237354  
      44A      1.300186    45A      1.364466    46A      1.369635  
      47A      1.644492    48A      1.706620    49A      1.787009  
      50A      1.818760    51A      1.899454    52A      2.059175  
      53A      2.095611    54A      2.116640    55A      2.217178  
      56A      2.253344    57A      2.275722    58A      2.410469  
      59A      2.455552    60A      2.592269    61A      2.627167  
      62A      2.670803    63A      2.720126    64A      2.860698  
      65A      2.967599    66A      2.985535    67A      3.271252  
      68A      3.374258    69A      4.291417    70A      4.513494  
      71A      4.663668    72A      4.875689  

    Final Occupation by Irrep:
              A 
    DOCC [    16 ]

  Energy converged.

  @DF-RHF Final Energy:  -191.94920498945996

   => Energetics <=

    Nuclear Repulsion Energy =            116.7841232284693262
    One-Electron Energy =                -491.4874424571247573
    Two-Electron Energy =                 182.7541142391954736
    DFT Exchange-Correlation Energy =       0.0000000000000000
    Empirical Dispersion Energy =           0.0000000000000000
    PCM Polarization Energy =               0.0000000000000000
    EFP Energy =                            0.0000000000000000
    Total Energy =                       -191.9492049894599859

    Alert: EFP and PCM quantities not currently incorporated into SCF psivars.

Properties will be evaluated at   0.000000,   0.000000,   0.000000 Bohr
  ==> Properties <==


Properties computed using the SCF density matrix

  Nuclear Dipole Moment: (a.u.)
     X:    -5.9851      Y:    -2.9332      Z:    -0.5138

  Electronic Dipole Moment: (a.u.)
     X:     5.0056      Y:     2.2923      Z:     0.3278

  Dipole Moment: (a.u.)
     X:    -0.9795      Y:    -0.6409      Z:    -0.1860     Total:     1.1853

  Dipole Moment: (Debye)
     X:    -2.4897      Y:    -1.6291      Z:    -0.4728     Total:     3.0127


  Saving occupied orbitals to File 180.

*** tstop() called on cx1-5-5-2.cx1.hpc.ic.ac.uk at Fri Sep  2 11:37:48 2016
Module time:
	user time   =       5.12 seconds =       0.09 minutes
	system time =       0.10 seconds =       0.00 minutes
	total time  =          2 seconds =       0.03 minutes
Total time:
	user time   =      32.65 seconds =       0.54 minutes
	system time =       0.66 seconds =       0.01 minutes
	total time  =         12 seconds =       0.20 minutes

*** tstart() called on cx1-5-5-2.cx1.hpc.ic.ac.uk
*** at Fri Sep  2 11:37:48 2016


         ------------------------------------------------------------
                                   SCF GRAD                          
                          Rob Parrish, Justin Turney,                
                       Andy Simmonett, and Alex Sokolov              
         ------------------------------------------------------------

  ==> Geometry <==

    Molecular point group: c1
    Full point group: C1

    Geometry (in Angstrom), charge = 0, multiplicity = 1:

       Center              X                  Y                   Z               Mass       
    ------------   -----------------  -----------------  -----------------  -----------------
           H          1.029142250892    -1.096323676354    -0.277646827918     1.007825032070
           C          0.754540711920    -0.055421051799    -0.058655087263    12.000000000000
           C         -0.725320948735     0.277460684519    -0.040979974498    12.000000000000
           O          1.599505794086     0.751243778189     0.151633605818    15.994914619560
           C         -1.624339684422    -0.960278527565    -0.056379840880    12.000000000000
           H         -0.917454328068     0.895735098825    -0.913688059712     1.007825032070
           H         -0.918649066584     0.902740326488     0.821860448736     1.007825032070
           H         -1.449763137603    -1.575650032717    -0.936754871897     1.007825032070
           H         -2.669566305634    -0.678601527528    -0.065907036199     1.007825032070
           H         -1.466207465772    -1.580600064185     0.823243702713     1.007825032070

  Nuclear repulsion =  116.784123228469312

  ==> Basis Set <==

  Basis Set: 6-31G*
    Number of shells: 36
    Number of basis function: 72
    Number of Cartesian functions: 72
    Spherical Harmonics?: false
    Max angular momentum: 2

  ==> DFJKGrad: Density-Fitted SCF Gradients <==

    Gradient:                    1
    J tasked:                  Yes
    K tasked:                  Yes
    wK tasked:                  No
    OpenMP threads:              4
    Integrals threads:           4
    Memory (MB):              1430
    Schwarz Cutoff:          0E+00
    Fitting Condition:       1E-12

   => Auxiliary Basis Set <=

  Basis Set: 
    Number of shells: 150
    Number of basis function: 474
    Number of Cartesian functions: 474
    Spherical Harmonics?: false
    Max angular momentum: 3


  -Total Gradient:
     Atom            X                  Y                   Z
    ------   -----------------  -----------------  -----------------
       1        0.001690637710    -0.001407809716     0.000693915560
       2        0.002069241184    -0.001053299264    -0.002703270771
       3       -0.000669255850     0.005525394682     0.003542837867
       4       -0.002474485706    -0.000514969678     0.000159155507
       5        0.000377959450     0.000767225585    -0.000856848331
       6        0.000318270637    -0.000212046281     0.000611812924
       7       -0.000520920022    -0.000136058945    -0.001327617213
       8       -0.001052625052    -0.001205737614    -0.001424127608
       9        0.001026254709    -0.001063425480    -0.000039787612
      10       -0.000765077065    -0.000699273290     0.001343929677


*** tstop() called on cx1-5-5-2.cx1.hpc.ic.ac.uk at Fri Sep  2 11:37:50 2016
Module time:
	user time   =       7.63 seconds =       0.13 minutes
	system time =       0.13 seconds =       0.00 minutes
	total time  =          2 seconds =       0.03 minutes
Total time:
	user time   =      40.30 seconds =       0.67 minutes
	system time =       0.79 seconds =       0.01 minutes
	total time  =         14 seconds =       0.23 minutes
CURRENT ENERGY: -191.9492049895

			-----------------------------------------
			 OPTKING 2.0: for geometry optimizations 
			  - R.A. King,  Bethel University        
			-----------------------------------------

	Previous internal coordinate definitions found.
	---Fragment 1 Geometry and Gradient---
	 H           1.9447970060       -2.0717515013       -0.5246764664
	 C           1.4258753016       -0.1047306099       -0.1108420512
	 C          -1.3706579516        0.5243247064       -0.0774409287
	 O           3.0226278988        1.4196449998        0.2865459875
	 C          -3.0695571503       -1.8146634284       -0.1065424587
	 H          -1.7337374195        1.6926940244       -1.7266202037
	 H          -1.7359951481        1.7059319862        1.5530911676
	 H          -2.7396552876       -2.9775470431       -1.7702101615
	 H          -5.0447492112       -1.2823710404       -0.1245462486
	 H          -2.7707305643       -2.9869012469        1.5557051388
	             0.0016906377       -0.0014078097        0.0006939156
	             0.0020692412       -0.0010532993       -0.0027032708
	            -0.0006692558        0.0055253947        0.0035428379
	            -0.0024744857       -0.0005149697        0.0001591555
	             0.0003779595        0.0007672256       -0.0008568483
	             0.0003182706       -0.0002120463        0.0006118129
	            -0.0005209200       -0.0001360589       -0.0013276172
	            -0.0010526251       -0.0012057376       -0.0014241276
	             0.0010262547       -0.0010634255       -0.0000397876
	            -0.0007650771       -0.0006992733        0.0013439297

	---Fragment 1 Intrafragment Coordinates---
	 - Coordinate -           - BOHR/RAD -       - ANG/DEG -
	 R(1,2)           =         2.075984	       1.098564
	 R(2,3)           =         2.866605	       1.516942
	 R(2,4)           =         2.243046	       1.186969
	 R(3,5)           =         2.891016	       1.529860
	 R(3,6)           =         2.053462	       1.086645
	 R(3,7)           =         2.046534	       1.082979
	 R(5,8)           =         2.056435	       1.088218
	 R(5,9)           =         2.045738	       1.082558
	 R(5,10)          =         2.055847	       1.087907
	 B(1,2,3)         =         2.042160	     117.007130
	 B(1,2,4)         =         2.095903	     120.086388
	 B(2,3,5)         =         1.977545	     113.304964
	 B(2,3,6)         =         1.862925	     106.737714
	 B(2,3,7)         =         1.886131	     108.067325
	 B(3,2,4)         =         2.145123	     122.906467
	 B(3,5,8)         =         1.951290	     111.800684
	 B(3,5,9)         =         1.935807	     110.913579
	 B(3,5,10)        =         1.947400	     111.577787
	 B(5,3,6)         =         1.926600	     110.386032
	 B(5,3,7)         =         1.950063	     111.730392
	 B(6,3,7)         =         1.854379	     106.248066
	 B(8,5,9)         =         1.870157	     107.152094
	 B(8,5,10)        =         1.884267	     107.960566
	 B(9,5,10)        =         1.871111	     107.206755
	 D(1,2,3,5)       =         0.203598	      11.665292
	 D(1,2,3,6)       =        -1.920637	    -110.044408
	 D(1,2,3,7)       =         2.374299	     136.037312
	 D(2,3,5,8)       =        -1.032806	     -59.175439
	 D(2,3,5,9)       =        -3.118993	    -178.705127
	 D(2,3,5,10)      =         1.079382	      61.844056
	 D(4,2,3,5)       =        -2.937220	    -168.290289
	*D(4,2,3,6)       =         1.221731	      70.000011
	 D(4,2,3,7)       =        -0.766518	     -43.918270
	 D(6,3,5,8)       =         1.055376	      60.468596
	 D(6,3,5,9)       =        -1.030811	     -59.061092
	 D(6,3,5,10)      =        -3.115621	    -178.511908
	 D(7,3,5,8)       =         3.114829	     178.466572
	 D(7,3,5,9)       =         1.028643	      58.936884
	 D(7,3,5,10)      =        -1.056167	     -60.513932

	Current energy   :      -191.9492049895

	Energy change for the previous step:
		Projected    :        -0.0020542941
		Actual       :        -0.0004631214
	Energy ratio indicates iffy step: Trust radius decreased to 1.250e-01.


	Performing BFGS update.
	Previous computed or guess Hessian on step 1.
	Steps to be used in Hessian update: 2 1
	Taking RFO optimization step.
	Going to follow RFO solution 1.
	Using RFO vector 1.
	Norm of target step-size    0.05917
	Projected energy change by RFO approximation:        -0.0007940045

	Back-transformation to cartesian coordinates...
	Successfully converged to displaced geometry.

	Back-transformation to cartesian coordinates to adjust frozen coordinates...
	Successfully converged to displaced geometry.

	--- Internal Coordinate Step in ANG or DEG, aJ/ANG or AJ/DEG ---
	 ---------------------------------------------------------------------------
	   Coordinate                Previous        Force       Change         New 
	   ----------                --------       ------       ------       ------
	    1 R(1,2)          =      1.098564    -0.013332    -0.001737     1.096826
	    2 R(2,3)          =      1.516942    -0.015889    -0.003506     1.513436
	    3 R(2,4)          =      1.186969     0.017164     0.000728     1.187697
	    4 R(3,5)          =      1.529860    -0.016755    -0.002955     1.526905
	    5 R(3,6)          =      1.086645     0.005506     0.000997     1.087642
	    6 R(3,7)          =      1.082979     0.008596     0.002064     1.085043
	    7 R(5,8)          =      1.088218    -0.013718    -0.002211     1.086008
	    8 R(5,9)          =      1.082558     0.010440     0.001302     1.083860
	    9 R(5,10)         =      1.087907    -0.011321    -0.001944     1.085963
	   10 B(1,2,3)        =    117.007130    -0.000223    -0.850069   116.157062
	   11 B(1,2,4)        =    120.086388    -0.000008     0.067057   120.153445
	   12 B(2,3,5)        =    113.304964     0.000101     0.259954   113.564919
	   13 B(2,3,6)        =    106.737714    -0.000001     0.248878   106.986592
	   14 B(2,3,7)        =    108.067325    -0.000078    -0.480767   107.586558
	   15 B(3,2,4)        =    122.906467     0.000231     0.775099   123.681566
	   16 B(3,5,8)        =    111.800684    -0.000103    -0.457659   111.343024
	   17 B(3,5,9)        =    110.913579    -0.000036    -0.097114   110.816466
	   18 B(3,5,10)       =    111.577787    -0.000033    -0.231599   111.346188
	   19 B(5,3,6)        =    110.386032    -0.000035     0.302938   110.688971
	   20 B(5,3,7)        =    111.730392    -0.000032    -0.257665   111.472727
	   21 B(6,3,7)        =    106.248066     0.000042    -0.088728   106.159338
	   22 B(8,5,9)        =    107.152094     0.000089     0.507528   107.659622
	   23 B(8,5,10)       =    107.960566     0.000031    -0.146996   107.813570
	   24 B(9,5,10)       =    107.206755     0.000065     0.484200   107.690955
	   25 D(1,2,3,5)      =     11.665292     0.000013     1.789323    13.454615
	   26 D(1,2,3,6)      =   -110.044408     0.000009     1.069910  -108.974498
	   27 D(1,2,3,7)      =    136.037312     0.000007     1.278878   137.316190
	   28 D(2,3,5,8)      =    -59.175439    -0.000002    -0.302598   -59.478038
	   29 D(2,3,5,9)      =   -178.705127    -0.000006    -0.574888  -179.280015
	   30 D(2,3,5,10)     =     61.844056    -0.000014    -0.967669    60.876387
	   31 D(4,2,3,5)      =   -168.290289     0.000004     0.719413  -167.570877
	   32 *D(4,2,3,6)     =     70.000011    -0.000000    -0.000000    70.000011
	   33 D(4,2,3,7)      =    -43.918270    -0.000003     0.208968   -43.709302
	   34 D(6,3,5,8)      =     60.468596     0.000008     0.412174    60.880771
	   35 D(6,3,5,9)      =    -59.061092     0.000003     0.139885   -58.921207
	   36 D(6,3,5,10)     =   -178.511908    -0.000005    -0.252897  -178.764805
	   37 D(7,3,5,8)      =    178.466572     0.000010     0.333986   178.800559
	   38 D(7,3,5,9)      =     58.936884     0.000006     0.061696    58.998581
	   39 D(7,3,5,10)     =    -60.513932    -0.000003    -0.331085   -60.845017
	 ---------------------------------------------------------------------------

  ==> Convergence Check <==

  Measures of convergence in internal coordinates in au.
  Criteria marked as inactive (o), active & met (*), and active & unmet ( ).
  ---------------------------------------------------------------------------------------------
   Step     Total Energy     Delta E     MAX Force     RMS Force      MAX Disp      RMS Disp   
  ---------------------------------------------------------------------------------------------
    Convergence Criteria    1.00e-06 *    3.00e-04 *             o    1.20e-03 *             o
  ---------------------------------------------------------------------------------------------
      3    -191.94920499   -4.63e-04      3.03e-03      1.14e-03 o    3.12e-02      9.47e-03 o  ~
  ---------------------------------------------------------------------------------------------

	Writing optimization data to binary file.
	Structure for next step:
	Cartesian Geometry (in Angstrom)
	    H     1.0162247112  -1.0906330927  -0.2907149934
	    C     0.7515356423  -0.0531570129  -0.0527840019
	    C    -0.7261423721   0.2738297394  -0.0468720415
	    O     1.6036694454   0.7451700957   0.1643914432
	    C    -1.6245770285  -0.9607524400  -0.0546927150
	    H    -0.9178215363   0.8940896389  -0.9195131022
	    H    -0.9197852847   0.9005078566   0.8174746708
	    H    -1.4437170792  -1.5756559533  -0.9313891167
	    H    -2.6703450882  -0.6760500265  -0.0628153037
	    H    -1.4571540777  -1.5770440356   0.8236411773
			--------------------------
			 OPTKING Finished Execution 
			--------------------------

    Structure for next step:
    Molecular point group: c1
    Full point group: C1

    Geometry (in Angstrom), charge = 0, multiplicity = 1:

    H            1.015919162469    -1.088716088670    -0.294324733617
    C            0.751230113812    -0.051240088081    -0.056393760279
    C           -0.726447787823     0.275746639229    -0.050481800327
    O            1.603363851827     0.747086959606     0.160781668207
    C           -1.624882375598    -0.958835445899    -0.058302473253
    H           -0.918126937375     0.896006491441    -0.923122794370
    H           -0.920090685585     0.902424708598     0.813864845943
    H           -1.444022440041    -1.573738912238    -0.934998808001
    H           -2.670650355383    -0.674133054065    -0.066425061295
    H           -1.457459437586    -1.575126994377     0.820031351976

gradient() will perform analytic gradient computation.

*** tstart() called on cx1-5-5-2.cx1.hpc.ic.ac.uk
*** at Fri Sep  2 11:37:51 2016


         ---------------------------------------------------------
                                   SCF
            by Justin Turney, Rob Parrish, and Andy Simmonett
                              RHF Reference
                        4 Threads,   2000 MiB Core
         ---------------------------------------------------------

  ==> Geometry <==

    Molecular point group: c1
    Full point group: C1

    Geometry (in Angstrom), charge = 0, multiplicity = 1:

       Center              X                  Y                   Z               Mass       
    ------------   -----------------  -----------------  -----------------  -----------------
           H          1.015919162469    -1.088716088670    -0.294324733617     1.007825032070
           C          0.751230113812    -0.051240088081    -0.056393760279    12.000000000000
           C         -0.726447787823     0.275746639229    -0.050481800327    12.000000000000
           O          1.603363851827     0.747086959606     0.160781668207    15.994914619560
           C         -1.624882375598    -0.958835445899    -0.058302473253    12.000000000000
           H         -0.918126937375     0.896006491441    -0.923122794370     1.007825032070
           H         -0.920090685585     0.902424708598     0.813864845943     1.007825032070
           H         -1.444022440041    -1.573738912238    -0.934998808001     1.007825032070
           H         -2.670650355383    -0.674133054065    -0.066425061295     1.007825032070
           H         -1.457459437586    -1.575126994377     0.820031351976     1.007825032070

  Running in c1 symmetry.

  Rotational constants: A =      1.08190  B =      0.13963  C =      0.13006 [cm^-1]
  Rotational constants: A =  32434.54191  B =   4186.07660  C =   3899.04384 [MHz]
  Nuclear repulsion =  116.846236764372037

  Charge       = 0
  Multiplicity = 1
  Electrons    = 32
  Nalpha       = 16
  Nbeta        = 16

  ==> Algorithm <==

  SCF Algorithm Type is DF.
  DIIS enabled.
  MOM disabled.
  Fractional occupation disabled.
  Guess Type is READ.
  Energy threshold   = 1.00e-08
  Density threshold  = 1.00e-08
  Integral threshold = 0.00e+00

  ==> Primary Basis <==

  Basis Set: 6-31G*
    Number of shells: 36
    Number of basis function: 72
    Number of Cartesian functions: 72
    Spherical Harmonics?: false
    Max angular momentum: 2

  ==> Pre-Iterations <==

   -------------------------------------------------------
    Irrep   Nso     Nmo     Nalpha   Nbeta   Ndocc  Nsocc
   -------------------------------------------------------
     A         72      72       0       0       0       0
   -------------------------------------------------------
    Total      72      72      16      16      16       0
   -------------------------------------------------------

 OEINTS: Overlap, kinetic, potential, dipole, and quadrupole integrals
         stored in file 35.

  ==> Integral Setup <==

  ==> DFJK: Density-Fitted J/K Matrices <==

    J tasked:                  Yes
    K tasked:                  Yes
    wK tasked:                  No
    OpenMP threads:              4
    Integrals threads:           4
    Memory (MB):              1430
    Algorithm:                Core
    Integral Cache:           NONE
    Schwarz Cutoff:          1E-12
    Fitting Condition:       1E-12

   => Auxiliary Basis Set <=

  Basis Set: 
    Number of shells: 150
    Number of basis function: 474
    Number of Cartesian functions: 474
    Spherical Harmonics?: false
    Max angular momentum: 3

  Minimum eigenvalue in the overlap matrix is 4.4201697295E-03.
  Using Symmetric Orthogonalization.
  SCF Guess: Reading in previously saved MOs, projecting if necessary.

  Using orbitals from previous SCF, no projection.
  Recomputing DOCC and SOCC from number of alpha and beta electrons from previous calculation.
              A 
    DOCC [    16 ]

  ==> Iterations <==

                           Total Energy        Delta E     RMS |[F,P]|

   @DF-RHF iter   0:  -191.95060333882478   -1.91951e+02   3.93369e-04 
   @DF-RHF iter   1:  -191.94931451896312    1.28882e-03   5.22045e-05 
   @DF-RHF iter   2:  -191.94932835988644   -1.38409e-05   2.01877e-05 DIIS
   @DF-RHF iter   3:  -191.94933122607810   -2.86619e-06   9.37779e-06 DIIS
   @DF-RHF iter   4:  -191.94933180828477   -5.82207e-07   4.47302e-06 DIIS
   @DF-RHF iter   5:  -191.94933199374034   -1.85456e-07   2.14106e-06 DIIS
   @DF-RHF iter   6:  -191.94933204567283   -5.19325e-08   7.83520e-07 DIIS
   @DF-RHF iter   7:  -191.94933205448106   -8.80823e-09   3.73757e-07 DIIS
   @DF-RHF iter   8:  -191.94933205697217   -2.49111e-09   1.22107e-07 DIIS
   @DF-RHF iter   9:  -191.94933205722990   -2.57728e-10   2.31076e-08 DIIS
   @DF-RHF iter  10:  -191.94933205723495   -5.05906e-12   7.36569e-09 DIIS

  ==> Post-Iterations <==

    Orbital Energies (a.u.)
    -----------------------

    Doubly Occupied:                                                      

       1A    -20.563052     2A    -11.329045     3A    -11.239383  
       4A    -11.232107     5A     -1.404064     6A     -1.066422  
       7A     -0.901887     8A     -0.798150     9A     -0.659466  
      10A     -0.640304    11A     -0.635566    12A     -0.553750  
      13A     -0.543962    14A     -0.525186    15A     -0.489505  
      16A     -0.412679  

    Virtual:                                                              

      17A      0.154739    18A      0.234513    19A      0.271283  
      20A      0.291595    21A      0.299946    22A      0.308225  
      23A      0.348302    24A      0.402375    25A      0.430010  
      26A      0.479898    27A      0.721751    28A      0.727165  
      29A      0.744078    30A      0.781981    31A      0.841875  
      32A      0.919502    33A      0.937404    34A      0.957678  
      35A      1.017743    36A      1.070178    37A      1.114163  
      38A      1.128898    39A      1.154263    40A      1.167036  
      41A      1.188827    42A      1.209091    43A      1.237220  
      44A      1.300762    45A      1.363784    46A      1.373324  
      47A      1.643314    48A      1.706568    49A      1.785988  
      50A      1.821128    51A      1.901110    52A      2.059854  
      53A      2.095004    54A      2.120674    55A      2.220579  
      56A      2.255224    57A      2.270538    58A      2.411648  
      59A      2.459808    60A      2.590511    61A      2.625405  
      62A      2.671701    63A      2.723618    64A      2.860449  
      65A      2.969237    66A      2.987292    67A      3.274695  
      68A      3.374576    69A      4.292790    70A      4.515951  
      71A      4.665652    72A      4.877365  

    Final Occupation by Irrep:
              A 
    DOCC [    16 ]

  Energy converged.

  @DF-RHF Final Energy:  -191.94933205723495

   => Energetics <=

    Nuclear Repulsion Energy =            116.8462367643720370
    One-Electron Energy =                -491.6020818329525355
    Two-Electron Energy =                 182.8065130113456007
    DFT Exchange-Correlation Energy =       0.0000000000000000
    Empirical Dispersion Energy =           0.0000000000000000
    PCM Polarization Energy =               0.0000000000000000
    EFP Energy =                            0.0000000000000000
    Total Energy =                       -191.9493320572348694

    Alert: EFP and PCM quantities not currently incorporated into SCF psivars.

Properties will be evaluated at   0.000000,   0.000000,   0.000000 Bohr
  ==> Properties <==


Properties computed using the SCF density matrix

  Nuclear Dipole Moment: (a.u.)
     X:    -5.9869      Y:    -2.9150      Z:    -0.5476

  Electronic Dipole Moment: (a.u.)
     X:     4.9967      Y:     2.2796      Z:     0.3527

  Dipole Moment: (a.u.)
     X:    -0.9902      Y:    -0.6355      Z:    -0.1950     Total:     1.1926

  Dipole Moment: (Debye)
     X:    -2.5169      Y:    -1.6152      Z:    -0.4955     Total:     3.0314


  Saving occupied orbitals to File 180.

*** tstop() called on cx1-5-5-2.cx1.hpc.ic.ac.uk at Fri Sep  2 11:37:53 2016
Module time:
	user time   =       5.44 seconds =       0.09 minutes
	system time =       0.06 seconds =       0.00 minutes
	total time  =          2 seconds =       0.03 minutes
Total time:
	user time   =      46.36 seconds =       0.77 minutes
	system time =       0.87 seconds =       0.01 minutes
	total time  =         17 seconds =       0.28 minutes

*** tstart() called on cx1-5-5-2.cx1.hpc.ic.ac.uk
*** at Fri Sep  2 11:37:53 2016


         ------------------------------------------------------------
                                   SCF GRAD                          
                          Rob Parrish, Justin Turney,                
                       Andy Simmonett, and Alex Sokolov              
         ------------------------------------------------------------

  ==> Geometry <==

    Molecular point group: c1
    Full point group: C1

    Geometry (in Angstrom), charge = 0, multiplicity = 1:

       Center              X                  Y                   Z               Mass       
    ------------   -----------------  -----------------  -----------------  -----------------
           H          1.015919162469    -1.088716088670    -0.294324733617     1.007825032070
           C          0.751230113812    -0.051240088081    -0.056393760279    12.000000000000
           C         -0.726447787823     0.275746639229    -0.050481800327    12.000000000000
           O          1.603363851827     0.747086959606     0.160781668207    15.994914619560
           C         -1.624882375598    -0.958835445899    -0.058302473253    12.000000000000
           H         -0.918126937375     0.896006491441    -0.923122794370     1.007825032070
           H         -0.920090685585     0.902424708598     0.813864845943     1.007825032070
           H         -1.444022440041    -1.573738912238    -0.934998808001     1.007825032070
           H         -2.670650355383    -0.674133054065    -0.066425061295     1.007825032070
           H         -1.457459437586    -1.575126994377     0.820031351976     1.007825032070

  Nuclear repulsion =  116.846236764372037

  ==> Basis Set <==

  Basis Set: 6-31G*
    Number of shells: 36
    Number of basis function: 72
    Number of Cartesian functions: 72
    Spherical Harmonics?: false
    Max angular momentum: 2

  ==> DFJKGrad: Density-Fitted SCF Gradients <==

    Gradient:                    1
    J tasked:                  Yes
    K tasked:                  Yes
    wK tasked:                  No
    OpenMP threads:              4
    Integrals threads:           4
    Memory (MB):              1430
    Schwarz Cutoff:          0E+00
    Fitting Condition:       1E-12

   => Auxiliary Basis Set <=

  Basis Set: 
    Number of shells: 150
    Number of basis function: 474
    Number of Cartesian functions: 474
    Spherical Harmonics?: false
    Max angular momentum: 3


  -Total Gradient:
     Atom            X                  Y                   Z
    ------   -----------------  -----------------  -----------------
       1        0.000087461223    -0.000069020776    -0.000033247916
       2       -0.000079298299     0.000069134635     0.000983565273
       3       -0.000008422824    -0.000481696125    -0.000587160627
       4        0.000083799346     0.000048482141    -0.000624275325
       5       -0.000091391165     0.000033007091    -0.000010641459
       6        0.000073532675     0.000499134881     0.000284350144
       7       -0.000050925935    -0.000016994813    -0.000032622795
       8       -0.000009809708    -0.000001638363    -0.000035035975
       9        0.000003689546    -0.000058093598    -0.000002600891
      10       -0.000008634865    -0.000022315076     0.000057669571


*** tstop() called on cx1-5-5-2.cx1.hpc.ic.ac.uk at Fri Sep  2 11:37:55 2016
Module time:
	user time   =       7.02 seconds =       0.12 minutes
	system time =       0.13 seconds =       0.00 minutes
	total time  =          2 seconds =       0.03 minutes
Total time:
	user time   =      53.40 seconds =       0.89 minutes
	system time =       1.00 seconds =       0.02 minutes
	total time  =         19 seconds =       0.32 minutes
CURRENT ENERGY: -191.9493320572

			-----------------------------------------
			 OPTKING 2.0: for geometry optimizations 
			  - R.A. King,  Bethel University        
			-----------------------------------------

	Previous internal coordinate definitions found.
	---Fragment 1 Geometry and Gradient---
	 H           1.9198089902       -2.0573752441       -0.5561931407
	 C           1.4196191779       -0.0968297335       -0.1065687625
	 C          -1.3727873688        0.5210856302       -0.0953967773
	 O           3.0299185713        1.4117897511        0.3038333201
	 C          -3.0705826880       -1.8119363993       -0.1101757073
	 H          -1.7350084669        1.6932068821       -1.7444492684
	 H          -1.7387194132        1.7053355548        1.5379816680
	 H          -2.7288069414       -2.9739355488       -1.7668916817
	 H          -5.0467977684       -1.2739268493       -0.1255251742
	 H          -2.7541991868       -2.9765586439        1.5496346756
	             0.0000874612       -0.0000690208       -0.0000332479
	            -0.0000792983        0.0000691346        0.0009835653
	            -0.0000084228       -0.0004816961       -0.0005871606
	             0.0000837993        0.0000484821       -0.0006242753
	            -0.0000913912        0.0000330071       -0.0000106415
	             0.0000735327        0.0004991349        0.0002843501
	            -0.0000509259       -0.0000169948       -0.0000326228
	            -0.0000098097       -0.0000016384       -0.0000350360
	             0.0000036895       -0.0000580936       -0.0000026009
	            -0.0000086349       -0.0000223151        0.0000576696

	---Fragment 1 Intrafragment Coordinates---
	 - Coordinate -           - BOHR/RAD -       - ANG/DEG -
	 R(1,2)           =         2.072701	       1.096826
	 R(2,3)           =         2.859979	       1.513436
	 R(2,4)           =         2.244421	       1.187697
	 R(3,5)           =         2.885432	       1.526905
	 R(3,6)           =         2.055346	       1.087642
	 R(3,7)           =         2.050434	       1.085043
	 R(5,8)           =         2.052257	       1.086008
	 R(5,9)           =         2.048198	       1.083860
	 R(5,10)          =         2.052173	       1.085963
	 B(1,2,3)         =         2.027323	     116.157062
	 B(1,2,4)         =         2.097073	     120.153445
	 B(2,3,5)         =         1.982082	     113.564919
	 B(2,3,6)         =         1.867268	     106.986592
	 B(2,3,7)         =         1.877740	     107.586558
	 B(3,2,4)         =         2.158651	     123.681566
	 B(3,5,8)         =         1.943302	     111.343024
	 B(3,5,9)         =         1.934112	     110.816466
	 B(3,5,10)        =         1.943358	     111.346188
	 B(5,3,6)         =         1.931887	     110.688971
	 B(5,3,7)         =         1.945566	     111.472727
	 B(6,3,7)         =         1.852830	     106.159338
	 B(8,5,9)         =         1.879015	     107.659622
	 B(8,5,10)        =         1.881702	     107.813570
	 B(9,5,10)        =         1.879562	     107.690955
	 D(1,2,3,5)       =         0.234827	      13.454615
	 D(1,2,3,6)       =        -1.901964	    -108.974498
	 D(1,2,3,7)       =         2.396620	     137.316190
	 D(2,3,5,8)       =        -1.038088	     -59.478038
	 D(2,3,5,9)       =        -3.129027	    -179.280015
	 D(2,3,5,10)      =         1.062493	      60.876387
	 D(4,2,3,5)       =        -2.924664	    -167.570877
	*D(4,2,3,6)       =         1.221731	      70.000011
	 D(4,2,3,7)       =        -0.762871	     -43.709302
	 D(6,3,5,8)       =         1.062570	      60.880771
	 D(6,3,5,9)       =        -1.028369	     -58.921207
	 D(6,3,5,10)      =        -3.120034	    -178.764805
	 D(7,3,5,8)       =         3.120658	     178.800559
	 D(7,3,5,9)       =         1.029719	      58.998581
	 D(7,3,5,10)      =        -1.061946	     -60.845017

	Current energy   :      -191.9493320572

	Energy change for the previous step:
		Projected    :        -0.0007940045
		Actual       :        -0.0001270678
	Energy ratio indicates iffy step: Trust radius decreased to 3.125e-02.


	Performing BFGS update.
	Previous computed or guess Hessian on step 1.
	Steps to be used in Hessian update: 3 2
	Taking RFO optimization step.
	Going to follow RFO solution 1.
	Using RFO vector 1.
	Norm of target step-size    0.00200
	Projected energy change by RFO approximation:         0.0000000322

	Back-transformation to cartesian coordinates...
	Successfully converged to displaced geometry.

	Back-transformation to cartesian coordinates to adjust frozen coordinates...
	Successfully converged to displaced geometry.

	--- Internal Coordinate Step in ANG or DEG, aJ/ANG or AJ/DEG ---
	 ---------------------------------------------------------------------------
	   Coordinate                Previous        Force       Change         New 
	   ----------                --------       ------       ------       ------
	    1 R(1,2)          =      1.096826    -0.000771    -0.000144     1.096682
	    2 R(2,3)          =      1.513436    -0.000643    -0.000134     1.513301
	    3 R(2,4)          =      1.187697     0.000177     0.000009     1.187705
	    4 R(3,5)          =      1.526905    -0.000841    -0.000184     1.526722
	    5 R(3,6)          =      1.087642    -0.000359    -0.000065     1.087578
	    6 R(3,7)          =      1.085043     0.000220     0.000045     1.085088
	    7 R(5,8)          =      1.086008    -0.000227    -0.000041     1.085966
	    8 R(5,9)          =      1.083860     0.000155     0.000026     1.083886
	    9 R(5,10)         =      1.085963    -0.000478    -0.000088     1.085875
	   10 B(1,2,3)        =    116.157062    -0.000001    -0.010505   116.146556
	   11 B(1,2,4)        =    120.153445     0.000009     0.039521   120.192966
	   12 B(2,3,5)        =    113.564919    -0.000001    -0.009769   113.555149
	   13 B(2,3,6)        =    106.986592    -0.000000    -0.004173   106.982419
	   14 B(2,3,7)        =    107.586558    -0.000003    -0.026887   107.559671
	   15 B(3,2,4)        =    123.681566    -0.000008    -0.028520   123.653046
	   16 B(3,5,8)        =    111.343024     0.000001     0.006601   111.349626
	   17 B(3,5,9)        =    110.816466    -0.000006    -0.027260   110.789206
	   18 B(3,5,10)       =    111.346188     0.000001     0.001184   111.347372
	   19 B(5,3,6)        =    110.688971     0.000001     0.010443   110.699414
	   20 B(5,3,7)        =    111.472727     0.000003     0.018919   111.491646
	   21 B(6,3,7)        =    106.159338     0.000000     0.011190   106.170527
	   22 B(8,5,9)        =    107.659622     0.000003     0.014585   107.674207
	   23 B(8,5,10)       =    107.813570    -0.000001    -0.006856   107.806714
	   24 B(9,5,10)       =    107.690955     0.000003     0.012921   107.703876
	   25 D(1,2,3,5)      =     13.454615    -0.000000    -0.029004    13.425611
	   26 D(1,2,3,6)      =   -108.974498    -0.000000    -0.032999  -109.007496
	   27 D(1,2,3,7)      =    137.316190    -0.000000    -0.031161   137.285029
	   28 D(2,3,5,8)      =    -59.478038    -0.000000    -0.020559   -59.498596
	   29 D(2,3,5,9)      =   -179.280015    -0.000000    -0.025111  -179.305126
	   30 D(2,3,5,10)     =     60.876387    -0.000000    -0.023970    60.852417
	   31 D(4,2,3,5)      =   -167.570877     0.000000     0.003995  -167.566882
	   32 *D(4,2,3,6)     =     70.000011     0.000000     0.000000    70.000011
	   33 D(4,2,3,7)      =    -43.709302     0.000000     0.001838   -43.707464
	   34 D(6,3,5,8)      =     60.880771    -0.000000    -0.025137    60.855634
	   35 D(6,3,5,9)      =    -58.921207    -0.000000    -0.029689   -58.950896
	   36 D(6,3,5,10)     =   -178.764805    -0.000000    -0.028548  -178.793353
	   37 D(7,3,5,8)      =    178.800559     0.000000     0.007619   178.808178
	   38 D(7,3,5,9)      =     58.998581     0.000000     0.003067    59.001648
	   39 D(7,3,5,10)     =    -60.845017     0.000000     0.004208   -60.840809
	 ---------------------------------------------------------------------------

  ==> Convergence Check <==

  Measures of convergence in internal coordinates in au.
  Criteria marked as inactive (o), active & met (*), and active & unmet ( ).
  ---------------------------------------------------------------------------------------------
   Step     Total Energy     Delta E     MAX Force     RMS Force      MAX Disp      RMS Disp   
  ---------------------------------------------------------------------------------------------
    Convergence Criteria    1.00e-06 *    3.00e-04 *             o    1.20e-03 *             o
  ---------------------------------------------------------------------------------------------
      4    -191.94933206   -1.27e-04      1.23e-04 *    4.39e-05 o    6.90e-04 *    3.20e-04 o  ~
  ---------------------------------------------------------------------------------------------


  **** Optimization is complete! (in 4 steps) ****

  ==> Optimization Summary <==

  Measures of convergence in internal coordinates in au.
  --------------------------------------------------------------------------------------------------------------- ~
   Step         Total Energy             Delta E       MAX Force       RMS Force        MAX Disp        RMS Disp  ~
  --------------------------------------------------------------------------------------------------------------- ~
      1    -191.949128680878   -191.949128680878      0.00426897      0.00141400      0.13631670      0.03547081  ~
      2    -191.948741868019      0.000386812859      0.00465685      0.00124344      0.14122730      0.03843297  ~
      3    -191.949204989460     -0.000463121441      0.00302988      0.00114498      0.03122957      0.00947413  ~
      4    -191.949332057235     -0.000127067775      0.00012268      0.00004390      0.00068977      0.00032026  ~
  --------------------------------------------------------------------------------------------------------------- ~

	Writing optimization data to binary file.
	Final energy is   -191.9493320572350
	Final (previous) structure:
	Cartesian Geometry (in Angstrom)
	    H     1.0159192400  -1.0887161718  -0.2943247561
	    C     0.7512301712  -0.0512400920  -0.0563937646
	    C    -0.7264478433   0.2757466603  -0.0504818042
	    O     1.6033639743   0.7470870167   0.1607816805
	    C    -1.6248824997  -0.9588355191  -0.0583024777
	    H    -0.9181270075   0.8960065599  -0.9231228649
	    H    -0.9200907558   0.9024247775   0.8138649081
	    H    -1.4440225503  -1.5737390324  -0.9349988794
	    H    -2.6706505593  -0.6741331055  -0.0664250664
	    H    -1.4574595489  -1.5751271147   0.8200314146
	Saving final (previous) structure.
			--------------------------
			 OPTKING Finished Execution 
			--------------------------

    Final optimized geometry and variables:
    Molecular point group: c1
    Full point group: C1

    Geometry (in Angstrom), charge = 0, multiplicity = 1:

    H            1.015919162469    -1.088716088670    -0.294324733617
    C            0.751230113812    -0.051240088081    -0.056393760279
    C           -0.726447787823     0.275746639229    -0.050481800327
    O            1.603363851827     0.747086959606     0.160781668207
    C           -1.624882375598    -0.958835445899    -0.058302473253
    H           -0.918126937375     0.896006491441    -0.923122794370
    H           -0.920090685585     0.902424708598     0.813864845943
    H           -1.444022440041    -1.573738912238    -0.934998808001
    H           -2.670650355383    -0.674133054065    -0.066425061295
    H           -1.457459437586    -1.575126994377     0.820031351976

	Cleaning optimization helper files.


Properties will be evaluated at   0.000000,   0.000000,   0.000000 Bohr

Properties computed using the  density matrix

  Nuclear Dipole Moment: (a.u.)
     X:    -5.9869      Y:    -2.9150      Z:    -0.5476

  Electronic Dipole Moment: (a.u.)
     X:     4.9967      Y:     2.2796      Z:     0.3527

  Dipole Moment: (a.u.)
     X:    -0.9902      Y:    -0.6355      Z:    -0.1950     Total:     1.1926

  Dipole Moment: (Debye)
     X:    -2.5169      Y:    -1.6152      Z:    -0.4955     Total:     3.0314

  Quadrupole Moment: (Debye Ang)
    XX:   -29.3253     YY:   -26.0042     ZZ:   -24.2248
    XY:    -3.2191     XZ:    -0.7194     YZ:    -0.3524

  Traceless Quadrupole Moment: (Debye Ang)
    XX:    -2.8072     YY:     0.5139     ZZ:     2.2933
    XY:    -3.2191     XZ:    -0.7194     YZ:    -0.3524

  Mulliken Charges: (a.u.)
   Center  Symbol    Alpha    Beta     Spin     Total
       1     H     0.42913  0.42913  0.00000  0.14175
       2     C     2.83665  2.83665  0.00000  0.32671
       3     C     3.20521  3.20521  0.00000 -0.41042
       4     O     4.23874  4.23874  0.00000 -0.47747
       5     C     3.25299  3.25299  0.00000 -0.50597
       6     H     0.39929  0.39929  0.00000  0.20143
       7     H     0.39746  0.39746  0.00000  0.20508
       8     H     0.41628  0.41628  0.00000  0.16744
       9     H     0.40958  0.40958  0.00000  0.18084
      10     H     0.41469  0.41469  0.00000  0.17062

   Total alpha = 16.00000, Total beta = 16.00000, Total charge = -0.00000


*** PSI4 exiting successfully. Buy a developer a beer!
