    -----------------------------------------------------------------------
          Psi4: An Open-Source Ab Initio Electronic Structure Package
                              Psi4 1.0.54 Driver

                          Git: Rev {master} 8d4cec3 dirty

    J. M. Turney, A. C. Simmonett, R. M. Parrish, E. G. Hohenstein,
    F. A. Evangelista, J. T. Fermann, B. J. Mintz, L. A. Burns, J. J. Wilke,
    M. L. Abrams, N. J. Russ, M. L. Leininger, C. L. Janssen, E. T. Seidl,
    W. D. Allen, H. F. Schaefer, R. A. King, E. F. Valeev, C. D. Sherrill,
    and T. D. Crawford, WIREs Comput. Mol. Sci. 2, 556-565 (2012)
    (doi: 10.1002/wcms.93)

                         Additional Contributions by
    A. E. DePrince, U. Bozkaya, A. Yu. Sokolov, D. G. A. Smith, R. Di Remigio,
    R. M. Richard, J. F. Gonthier, H. R. McAlexander, M. Saitow, and
    B. P. Pritchard
    -----------------------------------------------------------------------


    Psi4 started on: Sat Sep 10 16:06:47 2016

    Process ID:  29868
    PSI4DATADIR: /export131/home/mjharvey/miniconda3/share/psi4
    Memory level set to 256.000 MB

  ==> Input File <==

--------------------------------------------------------------------------
set {
	reference rhf
	basis cc-pvtz
}


set_num_threads( 4 )
memory 2 gb

molecule MOL {
0 1

H	 -2.469965	 -0.729505	 2.065566
C	 -2.423823	 -1.522815	 1.322994
O	 -1.205231	 -1.526153	 0.657741
H	 -2.529851	 -2.474120	 1.823660
H	 -3.256038	 -1.396527	 0.632810
C	 -0.932893	 -0.359278	 -0.046440
C	 0.452023	 -0.432171	 -0.638927
H	 -1.654965	 -0.227564	 -0.852190
H	 -0.997175	 0.508342	 0.606655
O	 1.401606	 -0.295166	 0.366636
H	 0.571051	 -1.383041	 -1.153815
H	 0.563610	 0.364464	 -1.374382
C	 2.714315	 -0.441627	 -0.061017
H	 2.765292	 -0.641548	 -1.128869
H	 3.305661	 0.447341	 0.150952
H	 3.143725	 -1.278506	 0.470147

	symmetry c1
}
set optking {
	frozen_dihedral = ("
		7 10 13 14
	")
}

ee,wfn = optimize('scf', return_wfn=True)
oeprop( wfn, 'DIPOLE', 'QUADRUPOLE', 'MULLIKEN_CHARGES')
f=open( 'psi4out.xyz', 'w' )
f.write( "16  " )
f.write( str(ee) + "\n" )
f.write( MOL.save_string_xyz() )
f.close()
--------------------------------------------------------------------------

  Memory set to   2.000 GiB by Python script.
gradient() will perform analytic gradient computation.

*** tstart() called on cx1-27-2-4
*** at Sat Sep 10 16:06:48 2016


         ---------------------------------------------------------
                                   SCF
            by Justin Turney, Rob Parrish, and Andy Simmonett
                              RHF Reference
                        4 Threads,   2000 MiB Core
         ---------------------------------------------------------

  ==> Geometry <==

    Molecular point group: c1
    Full point group: C1

    Geometry (in Angstrom), charge = 0, multiplicity = 1:

       Center              X                  Y                   Z               Mass       
    ------------   -----------------  -----------------  -----------------  -----------------
           H         -2.473222967379     0.037320404758     1.792945733291     1.007825032070
           C         -2.427080967379    -0.755989595242     1.050373733291    12.000000000000
           O         -1.208488967379    -0.759327595242     0.385120733291    15.994914619560
           H         -2.533108967379    -1.707294595242     1.551039733291     1.007825032070
           H         -3.259295967379    -0.629701595242     0.360189733291     1.007825032070
           C         -0.936150967379     0.407547404758    -0.319060266709    12.000000000000
           C          0.448765032621     0.334654404758    -0.911547266709    12.000000000000
           H         -1.658222967379     0.539261404758    -1.124810266709     1.007825032070
           H         -1.000432967379     1.275167404758     0.334034733291     1.007825032070
           O          1.398348032621     0.471659404758     0.094015733291    15.994914619560
           H          0.567793032621    -0.616215595242    -1.426435266709     1.007825032070
           H          0.560352032621     1.131289404758    -1.647002266709     1.007825032070
           C          2.711057032621     0.325198404758    -0.333637266709    12.000000000000
           H          2.762034032621     0.125277404758    -1.401489266709     1.007825032070
           H          3.302403032621     1.214166404758    -0.121668266709     1.007825032070
           H          3.140467032621    -0.511680595242     0.197526733291     1.007825032070

  Running in c1 symmetry.

  Rotational constants: A =      0.37707  B =      0.05180  C =      0.04873 [cm^-1]
  Rotational constants: A =  11304.41594  B =   1552.81800  C =   1460.74169 [MHz]
  Nuclear repulsion =  258.955817547187621

  Charge       = 0
  Multiplicity = 1
  Electrons    = 50
  Nalpha       = 25
  Nbeta        = 25

  ==> Algorithm <==

  SCF Algorithm Type is DF.
  DIIS enabled.
  MOM disabled.
  Fractional occupation disabled.
  Guess Type is SAD.
  Energy threshold   = 1.00e-08
  Density threshold  = 1.00e-08
  Integral threshold = 0.00e+00

  ==> Primary Basis <==

  Basis Set: CC-PVTZ
    Number of shells: 120
    Number of basis function: 320
    Number of Cartesian functions: 360
    Spherical Harmonics?: true
    Max angular momentum: 3

  ==> Pre-Iterations <==

   -------------------------------------------------------
    Irrep   Nso     Nmo     Nalpha   Nbeta   Ndocc  Nsocc
   -------------------------------------------------------
     A        320     320       0       0       0       0
   -------------------------------------------------------
    Total     320     320      25      25      25       0
   -------------------------------------------------------

  ==> Integral Setup <==

  ==> DFJK: Density-Fitted J/K Matrices <==

    J tasked:                  Yes
    K tasked:                  Yes
    wK tasked:                  No
    OpenMP threads:              4
    Integrals threads:           4
    Memory (MB):              1430
    Algorithm:                Core
    Integral Cache:           NONE
    Schwarz Cutoff:          1E-12
    Fitting Condition:       1E-12

   => Auxiliary Basis Set <=

  Basis Set: 
    Number of shells: 250
    Number of basis function: 774
    Number of Cartesian functions: 926
    Spherical Harmonics?: true
    Max angular momentum: 4

  Minimum eigenvalue in the overlap matrix is 6.3472637644E-04.
  Using Symmetric Orthogonalization.
  SCF Guess: Superposition of Atomic Densities via on-the-fly atomic UHF.

  ==> Iterations <==

                           Total Energy        Delta E     RMS |[F,P]|

   @DF-RHF iter   0:  -309.49169416841289   -3.09492e+02   1.50434e-02 
   @DF-RHF iter   1:  -306.94925314271438    2.54244e+00   1.42043e-03 
   @DF-RHF iter   2:  -307.07431185025496   -1.25059e-01   5.32058e-04 DIIS
   @DF-RHF iter   3:  -307.08977966627083   -1.54678e-02   2.43685e-04 DIIS
   @DF-RHF iter   4:  -307.09341394371245   -3.63428e-03   5.73233e-05 DIIS
   @DF-RHF iter   5:  -307.09371924132085   -3.05298e-04   1.91076e-05 DIIS
   @DF-RHF iter   6:  -307.09376054123265   -4.12999e-05   5.59411e-06 DIIS
   @DF-RHF iter   7:  -307.09376360835643   -3.06712e-06   1.54593e-06 DIIS
   @DF-RHF iter   8:  -307.09376384671884   -2.38362e-07   4.50230e-07 DIIS
   @DF-RHF iter   9:  -307.09376386592305   -1.92042e-08   1.22384e-07 DIIS
   @DF-RHF iter  10:  -307.09376386729252   -1.36947e-09   4.25862e-08 DIIS
   @DF-RHF iter  11:  -307.09376386741201   -1.19485e-10   1.22578e-08 DIIS
   @DF-RHF iter  12:  -307.09376386742690   -1.48930e-11   3.29175e-09 DIIS

  ==> Post-Iterations <==

    Orbital Energies (a.u.)
    -----------------------

    Doubly Occupied:                                                      

       1A    -20.547697     2A    -20.544796     3A    -11.267914  
       4A    -11.266703     5A    -11.261510     6A    -11.260473  
       7A     -1.391173     8A     -1.373925     9A     -1.031623  
      10A     -0.936547    11A     -0.892304    12A     -0.825316  
      13A     -0.685479    14A     -0.681352    15A     -0.660299  
      16A     -0.637670    17A     -0.629953    18A     -0.597588  
      19A     -0.554901    20A     -0.537698    21A     -0.507301  
      22A     -0.480321    23A     -0.465810    24A     -0.421187  
      25A     -0.410027  

    Virtual:                                                              

      26A      0.145921    27A      0.151895    28A      0.175685  
      29A      0.196102    30A      0.213613    31A      0.222861  
      32A      0.224780    33A      0.225721    34A      0.243764  
      35A      0.251808    36A      0.261281    37A      0.280108  
      38A      0.321840    39A      0.358318    40A      0.372024  
      41A      0.394775    42A      0.397635    43A      0.424639  
      44A      0.441511    45A      0.512122    46A      0.520533  
      47A      0.538250    48A      0.557696    49A      0.563263  
      50A      0.586716    51A      0.604581    52A      0.612741  
      53A      0.625167    54A      0.633731    55A      0.634953  
      56A      0.636968    57A      0.646095    58A      0.652893  
      59A      0.661587    60A      0.667991    61A      0.682975  
      62A      0.709484    63A      0.720632    64A      0.725468  
      65A      0.741408    66A      0.759104    67A      0.794636  
      68A      0.810007    69A      0.829365    70A      0.885271  
      71A      0.895569    72A      0.915420    73A      0.934589  
      74A      0.953474    75A      0.995844    76A      1.036915  
      77A      1.039848    78A      1.071170    79A      1.089876  
      80A      1.098219    81A      1.132413    82A      1.140364  
      83A      1.171618    84A      1.181808    85A      1.190121  
      86A      1.193356    87A      1.218937    88A      1.230057  
      89A      1.244082    90A      1.266234    91A      1.273841  
      92A      1.295568    93A      1.304312    94A      1.328871  
      95A      1.336168    96A      1.347400    97A      1.375990  
      98A      1.388635    99A      1.398609   100A      1.415589  
     101A      1.434678   102A      1.437800   103A      1.467963  
     104A      1.486599   105A      1.506943   106A      1.517555  
     107A      1.532717   108A      1.539410   109A      1.548532  
     110A      1.562066   111A      1.573926   112A      1.578716  
     113A      1.595125   114A      1.615259   115A      1.658526  
     116A      1.674486   117A      1.689595   118A      1.703010  
     119A      1.767528   120A      1.794171   121A      1.810197  
     122A      1.874665   123A      1.943864   124A      2.089139  
     125A      2.193158   126A      2.200002   127A      2.256560  
     128A      2.297110   129A      2.335142   130A      2.345255  
     131A      2.362152   132A      2.417800   133A      2.464645  
     134A      2.486820   135A      2.518946   136A      2.528321  
     137A      2.564821   138A      2.594286   139A      2.621781  
     140A      2.635140   141A      2.671180   142A      2.685537  
     143A      2.728021   144A      2.785016   145A      2.821797  
     146A      2.858879   147A      2.876523   148A      2.916822  
     149A      2.942964   150A      3.039328   151A      3.065060  
     152A      3.071008   153A      3.084085   154A      3.102315  
     155A      3.112375   156A      3.122598   157A      3.136382  
     158A      3.167926   159A      3.185877   160A      3.193850  
     161A      3.216937   162A      3.226093   163A      3.248097  
     164A      3.264473   165A      3.271030   166A      3.280315  
     167A      3.287666   168A      3.305008   169A      3.336629  
     170A      3.348632   171A      3.361491   172A      3.374444  
     173A      3.378045   174A      3.403788   175A      3.413959  
     176A      3.434895   177A      3.461610   178A      3.464697  
     179A      3.488227   180A      3.515789   181A      3.545487  
     182A      3.552685   183A      3.580981   184A      3.611864  
     185A      3.623797   186A      3.635573   187A      3.644987  
     188A      3.666674   189A      3.686900   190A      3.711204  
     191A      3.729164   192A      3.738959   193A      3.756707  
     194A      3.766016   195A      3.770696   196A      3.783201  
     197A      3.788455   198A      3.806263   199A      3.820160  
     200A      3.829291   201A      3.847815   202A      3.874404  
     203A      3.911083   204A      3.919519   205A      3.939534  
     206A      3.967622   207A      3.977807   208A      4.023738  
     209A      4.039734   210A      4.065104   211A      4.087802  
     212A      4.094338   213A      4.103077   214A      4.129478  
     215A      4.155620   216A      4.177944   217A      4.185812  
     218A      4.200737   219A      4.247663   220A      4.260142  
     221A      4.283588   222A      4.303190   223A      4.322158  
     224A      4.333617   225A      4.340388   226A      4.361427  
     227A      4.380207   228A      4.391225   229A      4.411138  
     230A      4.418897   231A      4.427105   232A      4.454132  
     233A      4.498829   234A      4.516829   235A      4.524865  
     236A      4.557628   237A      4.560923   238A      4.579371  
     239A      4.594881   240A      4.645243   241A      4.649461  
     242A      4.688245   243A      4.730410   244A      4.761373  
     245A      4.804638   246A      4.844172   247A      4.869724  
     248A      4.882464   249A      4.969766   250A      5.016959  
     251A      5.050732   252A      5.075512   253A      5.098494  
     254A      5.106700   255A      5.110346   256A      5.151776  
     257A      5.231427   258A      5.248146   259A      5.255736  
     260A      5.272811   261A      5.316492   262A      5.332421  
     263A      5.356439   264A      5.370832   265A      5.394343  
     266A      5.421125   267A      5.454225   268A      5.464345  
     269A      5.491677   270A      5.498119   271A      5.523363  
     272A      5.548690   273A      5.577424   274A      5.603061  
     275A      5.609580   276A      5.624285   277A      5.669159  
     278A      5.684346   279A      5.768230   280A      5.782013  
     281A      5.811422   282A      5.894472   283A      5.930383  
     284A      5.962981   285A      5.992999   286A      6.022235  
     287A      6.071932   288A      6.148786   289A      6.191105  
     290A      6.226275   291A      6.254511   292A      6.273513  
     293A      6.310367   294A      6.328760   295A      6.466781  
     296A      6.567982   297A      6.581847   298A      6.673299  
     299A      6.713430   300A      6.753247   301A      6.843310  
     302A      6.889882   303A      6.964155   304A      6.985818  
     305A      7.315244   306A      7.331058   307A      7.348556  
     308A      7.391442   309A      7.563636   310A      7.601494  
     311A      7.833370   312A      7.886899   313A      7.907705  
     314A      7.945540   315A     11.358791   316A     11.800809  
     317A     13.328897   318A     13.933875   319A     14.187977  
     320A     14.283938  

    Final Occupation by Irrep:
              A 
    DOCC [    25 ]

  Energy converged.

  @DF-RHF Final Energy:  -307.09376386742690

   => Energetics <=

    Nuclear Repulsion Energy =            258.9558175471876211
    One-Electron Energy =                -932.3600325926520327
    Two-Electron Energy =                 366.3104511780372832
    DFT Exchange-Correlation Energy =       0.0000000000000000
    Empirical Dispersion Energy =           0.0000000000000000
    PCM Polarization Energy =               0.0000000000000000
    EFP Energy =                            0.0000000000000000
    Total Energy =                       -307.0937638674271284


  Saving occupied orbitals to File 180.

*** tstop() called on cx1-27-2-4 at Sat Sep 10 16:06:55 2016
Module time:
	user time   =      25.98 seconds =       0.43 minutes
	system time =       0.59 seconds =       0.01 minutes
	total time  =          7 seconds =       0.12 minutes
Total time:
	user time   =      25.98 seconds =       0.43 minutes
	system time =       0.59 seconds =       0.01 minutes
	total time  =          7 seconds =       0.12 minutes


Properties will be evaluated at   0.000000,   0.000000,   0.000000 Bohr

Properties computed using the SCF density matrix

  Nuclear Dipole Moment: (a.u.)
     X:    -0.5534      Y:     0.8026      Z:    -1.3905

  Electronic Dipole Moment: (a.u.)
     X:     0.3748      Y:    -0.5358      Z:     0.9059

  Dipole Moment: (a.u.)
     X:    -0.1786      Y:     0.2668      Z:    -0.4846     Total:     0.5813

  Dipole Moment: (Debye)
     X:    -0.4538      Y:     0.6781      Z:    -1.2317     Total:     1.4774


*** tstart() called on cx1-27-2-4
*** at Sat Sep 10 16:06:55 2016


         ------------------------------------------------------------
                                   SCF GRAD                          
                          Rob Parrish, Justin Turney,                
                       Andy Simmonett, and Alex Sokolov              
         ------------------------------------------------------------

  ==> Geometry <==

    Molecular point group: c1
    Full point group: C1

    Geometry (in Angstrom), charge = 0, multiplicity = 1:

       Center              X                  Y                   Z               Mass       
    ------------   -----------------  -----------------  -----------------  -----------------
           H         -2.473222967379     0.037320404758     1.792945733291     1.007825032070
           C         -2.427080967379    -0.755989595242     1.050373733291    12.000000000000
           O         -1.208488967379    -0.759327595242     0.385120733291    15.994914619560
           H         -2.533108967379    -1.707294595242     1.551039733291     1.007825032070
           H         -3.259295967379    -0.629701595242     0.360189733291     1.007825032070
           C         -0.936150967379     0.407547404758    -0.319060266709    12.000000000000
           C          0.448765032621     0.334654404758    -0.911547266709    12.000000000000
           H         -1.658222967379     0.539261404758    -1.124810266709     1.007825032070
           H         -1.000432967379     1.275167404758     0.334034733291     1.007825032070
           O          1.398348032621     0.471659404758     0.094015733291    15.994914619560
           H          0.567793032621    -0.616215595242    -1.426435266709     1.007825032070
           H          0.560352032621     1.131289404758    -1.647002266709     1.007825032070
           C          2.711057032621     0.325198404758    -0.333637266709    12.000000000000
           H          2.762034032621     0.125277404758    -1.401489266709     1.007825032070
           H          3.302403032621     1.214166404758    -0.121668266709     1.007825032070
           H          3.140467032621    -0.511680595242     0.197526733291     1.007825032070

  Nuclear repulsion =  258.955817547187621

  ==> Basis Set <==

  Basis Set: CC-PVTZ
    Number of shells: 120
    Number of basis function: 320
    Number of Cartesian functions: 360
    Spherical Harmonics?: true
    Max angular momentum: 3

  ==> DFJKGrad: Density-Fitted SCF Gradients <==

    Gradient:                    1
    J tasked:                  Yes
    K tasked:                  Yes
    wK tasked:                  No
    OpenMP threads:              4
    Integrals threads:           4
    Memory (MB):              1430
    Schwarz Cutoff:          0E+00
    Fitting Condition:       1E-12

   => Auxiliary Basis Set <=

  Basis Set: 
    Number of shells: 250
    Number of basis function: 774
    Number of Cartesian functions: 926
    Spherical Harmonics?: true
    Max angular momentum: 4


  -Total Gradient:
     Atom            X                  Y                   Z
    ------   -----------------  -----------------  -----------------
       1       -0.000000964919     0.000004456658     0.000008410474
       2       -0.000026704203     0.000008836245    -0.000031666322
       3        0.000003105101     0.000037791767    -0.000052921795
       4        0.000006922490     0.000000854965    -0.000001302432
       5       -0.000000083408    -0.000001307668     0.000011464806
       6       -0.000043387304    -0.000068638388     0.000169528463
       7        0.003004965900    -0.000692153979    -0.000120415261
       8        0.000040077306     0.000022184088     0.000035677300
       9        0.000021490642     0.000015884395     0.000031779791
      10        0.003883179897    -0.004404720450     0.001997974185
      11        0.000603701472    -0.000310727182    -0.000371799559
      12        0.000678038439     0.000168065595    -0.000161586005
      13       -0.004857933396     0.002952230743    -0.000335232738
      14       -0.001943983410    -0.000494610164    -0.002053519946
      15        0.003899241224     0.001121072213    -0.000005383312
      16       -0.005267665830     0.001640781162     0.000878992351


*** tstop() called on cx1-27-2-4 at Sat Sep 10 16:07:02 2016
Module time:
	user time   =      24.75 seconds =       0.41 minutes
	system time =       0.55 seconds =       0.01 minutes
	total time  =          7 seconds =       0.12 minutes
Total time:
	user time   =      50.87 seconds =       0.85 minutes
	system time =       1.14 seconds =       0.02 minutes
	total time  =         14 seconds =       0.23 minutes

			-----------------------------------------
			 OPTKING 2.0: for geometry optimizations 
			  - R.A. King,  Bethel University        
			-----------------------------------------

	Internal coordinates to be generated automatically.
	Detected frag 1 with atoms:  1 2 3 4 5 6 7 8 9 10 11 12 13 14 15 16
	---Fragment 1 Bond Connectivity---
	 1 : 2
	 2 : 1 3 4 5
	 3 : 2 6
	 4 : 2
	 5 : 2
	 6 : 3 7 8 9
	 7 : 6 10 11 12
	 8 : 6
	 9 : 6
	 10 : 7 13
	 11 : 7
	 12 : 7
	 13 : 10 14 15 16
	 14 : 13
	 15 : 13
	 16 : 13

	Assuming in current code that numbering for constraints corresponds to unified fragment.
	Frozen dihedral atom list: 
	     7    10    13    14
	---Fragment 1 Geometry and Gradient---
	 H          -4.6737140739        0.0705253442        3.3881764070
	 C          -4.5865183307       -1.4286132943        1.9849186931
	 O          -2.2837131830       -1.4349212002        0.7277727140
	 H          -4.7868822131       -3.2263192132        2.9310403171
	 H          -6.1591767644       -1.1899635604        0.6806599518
	 C          -1.7690689474        0.7701529812       -0.6029365240
	 C           0.8480430097        0.6324051742       -1.7225746913
	 H          -3.1335872756        1.0190563690       -2.1255833555
	 H          -1.8905443227        2.4097171686        0.6312341648
	 O           2.6424948201        0.8913071030        0.1776639881
	 H           1.0729733318       -1.1644787138       -2.6955720004
	 H           1.0589118797        2.1378271520       -3.1123832243
	 C           5.1231553223        0.6145359238       -0.6304830618
	 H           5.2194878914        0.2367399856       -2.6484308923
	 H           6.2406373121        2.2944419847       -0.2299197031
	 H           5.9346226210       -0.9669361925        0.3732714298
	            -0.0000009649        0.0000044567        0.0000084105
	            -0.0000267042        0.0000088362       -0.0000316663
	             0.0000031051        0.0000377918       -0.0000529218
	             0.0000069225        0.0000008550       -0.0000013024
	            -0.0000000834       -0.0000013077        0.0000114648
	            -0.0000433873       -0.0000686384        0.0001695285
	             0.0030049659       -0.0006921540       -0.0001204153
	             0.0000400773        0.0000221841        0.0000356773
	             0.0000214906        0.0000158844        0.0000317798
	             0.0038831799       -0.0044047204        0.0019979742
	             0.0006037015       -0.0003107272       -0.0003717996
	             0.0006780384        0.0001680656       -0.0001615860
	            -0.0048579334        0.0029522307       -0.0003352327
	            -0.0019439834       -0.0004946102       -0.0020535199
	             0.0038992412        0.0011210722       -0.0000053833
	            -0.0052676658        0.0016407812        0.0008789924

	Previous optimization step data not found.  Starting new optimization.

	---Fragment 1 Intrafragment Coordinates---
	 - Coordinate -           - BOHR/RAD -       - ANG/DEG -
	 R(1,2)           =         2.055274	       1.087604
	 R(2,3)           =         2.623617	       1.388358
	 R(2,4)           =         2.041333	       1.080227
	 R(2,5)           =         2.057012	       1.088524
	 R(3,6)           =         2.626404	       1.389833
	 R(6,7)           =         2.849884	       1.508094
	 R(6,8)           =         2.059688	       1.089940
	 R(6,9)           =         2.055749	       1.087856
	 R(7,10)          =         2.626403	       1.389833
	 R(7,11)          =         2.055750	       1.087856
	 R(7,12)          =         2.059691	       1.089942
	 R(10,13)         =         2.623620	       1.388360
	 R(13,14)         =         2.055267	       1.087601
	 R(13,15)         =         2.057013	       1.088524
	 R(13,16)         =         2.041337	       1.080229
	 B(1,2,3)         =         1.945660	     111.478118
	 B(1,2,4)         =         1.898370	     108.768583
	 B(1,2,5)         =         1.892145	     108.411940
	 B(2,3,6)         =         1.996265	     114.377558
	 B(3,2,4)         =         1.881910	     107.825479
	 B(3,2,5)         =         1.947128	     111.562192
	 B(3,6,7)         =         1.916033	     109.780597
	 B(3,6,8)         =         1.924317	     110.255231
	 B(3,6,9)         =         1.932482	     110.723037
	 B(4,2,5)         =         1.897584	     108.723581
	 B(6,7,10)        =         1.916031	     109.780505
	 B(6,7,11)        =         1.905696	     109.188351
	 B(6,7,12)        =         1.900524	     108.892000
	 B(7,6,8)         =         1.900522	     108.891906
	 B(7,6,9)         =         1.905696	     109.188321
	 B(7,10,13)       =         1.996262	     114.377403
	 B(8,6,9)         =         1.884190	     107.956141
	 B(10,7,11)       =         1.932481	     110.722979
	 B(10,7,12)       =         1.924318	     110.255297
	 B(10,13,14)      =         1.945657	     111.477933
	 B(10,13,15)      =         1.947135	     111.562645
	 B(10,13,16)      =         1.881914	     107.825729
	 B(11,7,12)       =         1.884189	     107.956105
	 B(14,13,15)      =         1.892150	     108.412211
	 B(14,13,16)      =         1.898368	     108.768501
	 B(15,13,16)      =         1.897572	     108.722839
	 D(1,2,3,6)       =        -1.066865	     -61.126835
	 D(2,3,6,7)       =         3.066968	     175.724309
	 D(2,3,6,8)       =        -1.122420	     -64.309903
	 D(2,3,6,9)       =         0.961560	      55.093350
	 D(3,6,7,10)      =        -1.267498	     -72.622288
	 D(3,6,7,11)      =         0.854035	      48.932609
	 D(3,6,7,12)      =         2.907455	     166.584894
	 D(4,2,3,6)       =         3.133762	     179.551335
	 D(5,2,3,6)       =         1.051300	      60.235068
	 D(6,7,10,13)     =         3.066966	     175.724195
	*D(7,10,13,14)    =         0.000000	       0.000000
	 D(7,10,13,15)    =         2.118175	     121.362463
	 D(7,10,13,16)    =        -2.082557	    -119.321754
	 D(8,6,7,10)      =         2.907456	     166.584978
	 D(8,6,7,11)      =        -1.254196	     -71.860125
	 D(8,6,7,12)      =         0.799224	      45.792159
	 D(9,6,7,10)      =         0.854037	      48.932721
	 D(9,6,7,11)      =         2.975570	     170.487618
	 D(9,6,7,12)      =        -1.254195	     -71.860097
	 D(11,7,10,13)    =         0.961559	      55.093297
	 D(12,7,10,13)    =        -1.122420	     -64.309916

	Current energy   :      -307.0937638674

	Generating empirical Hessian (Schlegel '84) for each fragment.
	Taking RFO optimization step.
	Going to follow RFO solution 1.
	Using RFO vector 1.
	Norm of target step-size    0.09944
	Projected energy change by RFO approximation:        -0.0015377917

	Back-transformation to cartesian coordinates...
	Could not converge backtransformation.
	Using first guess instead.

	Back-transformation to cartesian coordinates to adjust frozen coordinates...
	Successfully converged to displaced geometry.

	--- Internal Coordinate Step in ANG or DEG, aJ/ANG or AJ/DEG ---
	 ---------------------------------------------------------------------------
	   Coordinate                Previous        Force       Change         New 
	   ----------                --------       ------       ------       ------
	    1 R(1,2)          =      1.087604    -0.000074     0.000085     1.087689
	    2 R(2,3)          =      1.388358    -0.000099     0.000084     1.388443
	    3 R(2,4)          =      1.080227     0.000017     0.000012     1.080239
	    4 R(2,5)          =      1.088524     0.000061     0.000117     1.088641
	    5 R(3,6)          =      1.389833     0.000597     0.000086     1.389919
	    6 R(6,7)          =      1.508094    -0.000558    -0.000016     1.508077
	    7 R(6,8)          =      1.089940     0.000414     0.000169     1.090109
	    8 R(6,9)          =      1.087856    -0.000251     0.000037     1.087893
	    9 R(7,10)         =      1.389833     0.020593     0.002955     1.392788
	   10 R(7,11)         =      1.087856    -0.004232    -0.000593     1.087263
	   11 R(7,12)         =      1.089942    -0.002482    -0.000409     1.089533
	   12 R(10,13)        =      1.388360     0.064337     0.009295     1.397655
	   13 R(13,14)        =      1.087601    -0.016610    -0.001792     1.085808
	   14 R(13,15)        =      1.088524    -0.024986    -0.002592     1.085933
	   15 R(13,16)        =      1.080229     0.024164     0.005499     1.085728
	   16 B(1,2,3)        =    111.478118    -0.000000     0.002327   111.480445
	   17 B(1,2,4)        =    108.768583     0.000000     0.000520   108.769103
	   18 B(1,2,5)        =    108.411940     0.000000     0.000330   108.412270
	   19 B(2,3,6)        =    114.377558     0.000002     0.002796   114.380354
	   20 B(3,2,4)        =    107.825479     0.000001     0.001542   107.827021
	   21 B(3,2,5)        =    111.562192    -0.000001    -0.005456   111.556737
	   22 B(3,6,7)        =    109.780597    -0.000005    -0.020604   109.759993
	   23 B(3,6,8)        =    110.255231     0.000002     0.008244   110.263475
	   24 B(3,6,9)        =    110.723037     0.000000    -0.010806   110.712232
	   25 B(4,2,5)        =    108.723581     0.000000     0.000839   108.724420
	   26 B(6,7,10)       =    109.780505    -0.000020    -0.080454   109.700051
	   27 B(6,7,11)       =    109.188351    -0.000033    -0.270404   108.917947
	   28 B(6,7,12)       =    108.892000    -0.000037    -0.233945   108.658055
	   29 B(7,6,8)        =    108.891906     0.000002     0.012508   108.904413
	   30 B(7,6,9)        =    109.188321     0.000002     0.009133   109.197454
	   31 B(7,10,13)      =    114.377403     0.000788     2.342957   116.720361
	   32 B(8,6,9)        =    107.956141    -0.000001     0.002390   107.958531
	   33 B(10,7,11)      =    110.722979     0.000025     0.131055   110.854033
	   34 B(10,7,12)      =    110.255297     0.000043     0.326921   110.582218
	   35 B(10,13,14)     =    111.477933     0.000198     0.903088   112.381021
	   36 B(10,13,15)     =    111.562645    -0.000442    -2.491511   109.071134
	   37 B(10,13,16)     =    107.825729     0.000563     3.055535   110.881264
	   38 B(11,7,12)      =    107.956105     0.000020     0.115903   108.072009
	   39 B(14,13,15)     =    108.412211     0.000015    -0.611720   107.800491
	   40 B(14,13,16)     =    108.768501    -0.000265    -0.636962   108.131539
	   41 B(15,13,16)     =    108.722839    -0.000076    -0.267598   108.455241
	   42 D(1,2,3,6)      =    -61.126835     0.000000     0.001892   -61.124943
	   43 D(2,3,6,7)      =    175.724309    -0.000000    -0.058886   175.665423
	   44 D(2,3,6,8)      =    -64.309903    -0.000000    -0.051287   -64.361189
	   45 D(2,3,6,9)      =     55.093350    -0.000000    -0.049900    55.043450
	   46 D(3,6,7,10)     =    -72.622288     0.000002     0.332666   -72.289621
	   47 D(3,6,7,11)     =     48.932609     0.000002     0.272804    49.205414
	   48 D(3,6,7,12)     =    166.584894    -0.000002     0.126579   166.711473
	   49 D(4,2,3,6)      =    179.551335    -0.000000    -0.001093   179.550243
	   50 D(5,2,3,6)      =     60.235068    -0.000000     0.000123    60.235191
	   51 D(6,7,10,13)    =    175.724195     0.000000     0.248814   175.973009
	   52 *D(7,10,13,14)  =      0.000000    -0.000000     0.000000     0.000000
	   53 D(7,10,13,15)   =    121.362463    -0.000035    -1.879891   119.482572
	   54 D(7,10,13,16)   =   -119.321754    -0.000034    -1.830101  -121.151855
	   55 D(8,6,7,10)     =    166.584978     0.000002     0.327393   166.912371
	   56 D(8,6,7,11)     =    -71.860125     0.000002     0.267531   -71.592594
	   57 D(8,6,7,12)     =     45.792159    -0.000002     0.121306    45.913465
	   58 D(9,6,7,10)     =     48.932721     0.000002     0.312164    49.244885
	   59 D(9,6,7,11)     =    170.487618     0.000001     0.252302   170.739920
	   60 D(9,6,7,12)     =    -71.860097    -0.000002     0.106077   -71.754020
	   61 D(11,7,10,13)   =     55.093297     0.000009     0.554423    55.647720
	   62 D(12,7,10,13)   =    -64.309916    -0.000007     0.113313   -64.196603
	 ---------------------------------------------------------------------------
	Successfully symmetrized geometry.

  ==> Convergence Check <==

  Measures of convergence in internal coordinates in au.
  Criteria marked as inactive (o), active & met (*), and active & unmet ( ).
  --------------------------------------------------------------------------------------------- ~
   Step     Total Energy     Delta E     MAX Force     RMS Force      MAX Disp      RMS Disp    ~
  --------------------------------------------------------------------------------------------- ~
    Convergence Criteria    1.00e-06 *    3.00e-04 *             o    1.20e-03 *             o  ~
  --------------------------------------------------------------------------------------------- ~
      1    -307.09376387   -3.07e+02      1.03e-02      2.25e-03 o    5.33e-02      1.26e-02 o  ~
  ---------------------------------------------------------------------------------------------

	Writing optimization data to binary file.
	Structure for next step:
	Cartesian Geometry (in Angstrom)
	    H    -2.4609456068   0.0364304184   1.8031962951
	    C    -2.4281096462  -0.7531659435   1.0558498845
	    O    -1.2172163061  -0.7602182325   0.3765411717
	    H    -2.5341887590  -1.7065322232   1.5525950028
	    H    -3.2674472115  -0.6181094560   0.3758410181
	    C    -0.9458312998   0.4088534787  -0.3245277705
	    C     0.4323375643   0.3308837343  -0.9318735474
	    H    -1.6757907685   0.5489814522  -1.1219369783
	    H    -0.9982153476   1.2732949317   0.3338847241
	    O     1.3938029457   0.4501291572   0.0687373615
	    H     0.5338275045  -0.6167192949  -1.4552183763
	    H     0.5375181579   1.1330076293  -1.6616795076
	    C     2.7283660108   0.3103445153  -0.3222124410
	    H     2.8297861426   0.1221998202  -1.3867758859
	    H     3.2626684791   1.2280025000  -0.0948930080
	    H     3.2046526627  -0.5060500113   0.2120687898
			--------------------------
			 OPTKING Finished Execution 
			--------------------------

    Structure for next step:
    Molecular point group: c1
    Full point group: C1

    Geometry (in Angstrom), charge = 0, multiplicity = 1:

    H           -2.457537733049     0.041930186681     1.809915470018
    C           -2.424701772397    -0.747666175264     1.062569059344
    O           -1.213808432345    -0.754718464239     0.383260346552
    H           -2.530780885241    -1.701032454924     1.559314177646
    H           -3.264039337723    -0.612609687741     0.382560193022
    C           -0.942423426031     0.414353246889    -0.317808595639
    C            0.435745438042     0.336383502570    -0.925154372516
    H           -1.672382894682     0.554481220385    -1.115217803461
    H           -0.994807473840     1.278794699952     0.340603898945
    O            1.397210819523     0.455628925430     0.075456536422
    H            0.537235378281    -0.611219526649    -1.448499201396
    H            0.540926031655     1.138507397521    -1.654960332691
    C            2.731773884583     0.315844283559    -0.315493266096
    H            2.833194016338     0.127699588455    -1.380056710993
    H            3.266076352918     1.233502268237    -0.088173833118
    H            3.208060536446    -0.500550243042     0.218787964643

gradient() will perform analytic gradient computation.

*** tstart() called on cx1-27-2-4
*** at Sat Sep 10 16:07:03 2016


         ---------------------------------------------------------
                                   SCF
            by Justin Turney, Rob Parrish, and Andy Simmonett
                              RHF Reference
                        4 Threads,   2000 MiB Core
         ---------------------------------------------------------

  ==> Geometry <==

    Molecular point group: c1
    Full point group: C1

    Geometry (in Angstrom), charge = 0, multiplicity = 1:

       Center              X                  Y                   Z               Mass       
    ------------   -----------------  -----------------  -----------------  -----------------
           H         -2.457537733049     0.041930186681     1.809915470018     1.007825032070
           C         -2.424701772397    -0.747666175264     1.062569059344    12.000000000000
           O         -1.213808432345    -0.754718464239     0.383260346552    15.994914619560
           H         -2.530780885241    -1.701032454924     1.559314177646     1.007825032070
           H         -3.264039337723    -0.612609687741     0.382560193022     1.007825032070
           C         -0.942423426031     0.414353246889    -0.317808595639    12.000000000000
           C          0.435745438042     0.336383502570    -0.925154372516    12.000000000000
           H         -1.672382894682     0.554481220385    -1.115217803461     1.007825032070
           H         -0.994807473840     1.278794699952     0.340603898945     1.007825032070
           O          1.397210819523     0.455628925430     0.075456536422    15.994914619560
           H          0.537235378281    -0.611219526649    -1.448499201396     1.007825032070
           H          0.540926031655     1.138507397521    -1.654960332691     1.007825032070
           C          2.731773884583     0.315844283559    -0.315493266096    12.000000000000
           H          2.833194016338     0.127699588455    -1.380056710993     1.007825032070
           H          3.266076352918     1.233502268237    -0.088173833118     1.007825032070
           H          3.208060536446    -0.500550243042     0.218787964643     1.007825032070

  Running in c1 symmetry.

  Rotational constants: A =      0.37132  B =      0.05162  C =      0.04844 [cm^-1]
  Rotational constants: A =  11132.04295  B =   1547.49165  C =   1452.12250 [MHz]
  Nuclear repulsion =  258.330947588366200

  Charge       = 0
  Multiplicity = 1
  Electrons    = 50
  Nalpha       = 25
  Nbeta        = 25

  ==> Algorithm <==

  SCF Algorithm Type is DF.
  DIIS enabled.
  MOM disabled.
  Fractional occupation disabled.
  Guess Type is READ.
  Energy threshold   = 1.00e-08
  Density threshold  = 1.00e-08
  Integral threshold = 0.00e+00

  ==> Primary Basis <==

  Basis Set: CC-PVTZ
    Number of shells: 120
    Number of basis function: 320
    Number of Cartesian functions: 360
    Spherical Harmonics?: true
    Max angular momentum: 3

  ==> Pre-Iterations <==

   -------------------------------------------------------
    Irrep   Nso     Nmo     Nalpha   Nbeta   Ndocc  Nsocc
   -------------------------------------------------------
     A        320     320       0       0       0       0
   -------------------------------------------------------
    Total     320     320      25      25      25       0
   -------------------------------------------------------

  ==> Integral Setup <==

  ==> DFJK: Density-Fitted J/K Matrices <==

    J tasked:                  Yes
    K tasked:                  Yes
    wK tasked:                  No
    OpenMP threads:              4
    Integrals threads:           4
    Memory (MB):              1430
    Algorithm:                Core
    Integral Cache:           NONE
    Schwarz Cutoff:          1E-12
    Fitting Condition:       1E-12

   => Auxiliary Basis Set <=

  Basis Set: 
    Number of shells: 250
    Number of basis function: 774
    Number of Cartesian functions: 926
    Spherical Harmonics?: true
    Max angular momentum: 4

  Minimum eigenvalue in the overlap matrix is 6.4922819125E-04.
  Using Symmetric Orthogonalization.
  SCF Guess: Reading in previously saved MOs, projecting if necessary.

  Using orbitals from previous SCF, no projection.
  Recomputing DOCC and SOCC from number of alpha and beta electrons from previous calculation.
              A 
    DOCC [    25 ]

  ==> Iterations <==

                           Total Energy        Delta E     RMS |[F,P]|

   @DF-RHF iter   0:  -307.08466172638958   -3.07085e+02   2.06048e-04 
   @DF-RHF iter   1:  -307.09403120076712   -9.36947e-03   3.58795e-05 
   @DF-RHF iter   2:  -307.09413755216559   -1.06351e-04   1.41436e-05 DIIS
   @DF-RHF iter   3:  -307.09415250591809   -1.49538e-05   7.43867e-06 DIIS
   @DF-RHF iter   4:  -307.09415582366336   -3.31775e-06   1.19066e-06 DIIS
   @DF-RHF iter   5:  -307.09415597774461   -1.54081e-07   4.46835e-07 DIIS
   @DF-RHF iter   6:  -307.09415600268034   -2.49357e-08   1.50187e-07 DIIS
   @DF-RHF iter   7:  -307.09415600514507   -2.46473e-09   4.05149e-08 DIIS
   @DF-RHF iter   8:  -307.09415600533731   -1.92244e-10   1.01799e-08 DIIS
   @DF-RHF iter   9:  -307.09415600534652   -9.20863e-12   3.46449e-09 DIIS

  ==> Post-Iterations <==

    Orbital Energies (a.u.)
    -----------------------

    Doubly Occupied:                                                      

       1A    -20.547393     2A    -20.544220     3A    -11.268070  
       4A    -11.266735     5A    -11.262070     6A    -11.261339  
       7A     -1.388696     8A     -1.369997     9A     -1.031557  
      10A     -0.937147    11A     -0.892180    12A     -0.823494  
      13A     -0.684510    14A     -0.680628    15A     -0.657795  
      16A     -0.635407    17A     -0.630117    18A     -0.596920  
      19A     -0.554299    20A     -0.538322    21A     -0.509097  
      22A     -0.478645    23A     -0.463290    24A     -0.420815  
      25A     -0.410193  

    Virtual:                                                              

      26A      0.145774    27A      0.151658    28A      0.175438  
      29A      0.195933    30A      0.213666    31A      0.222839  
      32A      0.224001    33A      0.226454    34A      0.243356  
      35A      0.251064    36A      0.261661    37A      0.279516  
      38A      0.322253    39A      0.359323    40A      0.372921  
      41A      0.395024    42A      0.396987    43A      0.422811  
      44A      0.435487    45A      0.511720    46A      0.520820  
      47A      0.534248    48A      0.557212    49A      0.563338  
      50A      0.587058    51A      0.601999    52A      0.613336  
      53A      0.624150    54A      0.633111    55A      0.635695  
      56A      0.636439    57A      0.645976    58A      0.653359  
      59A      0.661427    60A      0.667955    61A      0.682433  
      62A      0.707119    63A      0.719051    64A      0.729111  
      65A      0.738735    66A      0.754412    67A      0.792163  
      68A      0.807518    69A      0.829137    70A      0.887519  
      71A      0.897519    72A      0.916840    73A      0.929870  
      74A      0.957142    75A      0.996827    76A      1.039172  
      77A      1.042424    78A      1.073216    79A      1.088232  
      80A      1.096104    81A      1.130954    82A      1.143446  
      83A      1.170404    84A      1.180599    85A      1.190675  
      86A      1.192603    87A      1.214951    88A      1.228733  
      89A      1.240998    90A      1.262520    91A      1.272445  
      92A      1.291651    93A      1.303372    94A      1.329052  
      95A      1.335979    96A      1.347198    97A      1.377543  
      98A      1.382195    99A      1.395376   100A      1.412296  
     101A      1.434786   102A      1.439659   103A      1.465021  
     104A      1.485177   105A      1.502257   106A      1.516775  
     107A      1.532192   108A      1.542541   109A      1.545833  
     110A      1.558548   111A      1.578969   112A      1.580369  
     113A      1.591826   114A      1.608033   115A      1.656760  
     116A      1.676891   117A      1.685424   118A      1.698390  
     119A      1.767756   120A      1.793763   121A      1.808203  
     122A      1.873661   123A      1.942987   124A      2.093814  
     125A      2.187909   126A      2.197477   127A      2.260104  
     128A      2.296458   129A      2.331631   130A      2.341181  
     131A      2.359840   132A      2.419792   133A      2.459701  
     134A      2.484012   135A      2.515774   136A      2.520196  
     137A      2.558741   138A      2.595397   139A      2.617159  
     140A      2.635561   141A      2.663315   142A      2.686490  
     143A      2.726600   144A      2.787933   145A      2.820018  
     146A      2.856995   147A      2.874028   148A      2.918604  
     149A      2.940482   150A      3.036612   151A      3.065868  
     152A      3.070692   153A      3.085224   154A      3.098098  
     155A      3.111432   156A      3.123034   157A      3.135571  
     158A      3.164277   159A      3.186744   160A      3.193441  
     161A      3.214797   162A      3.220055   163A      3.251467  
     164A      3.265809   165A      3.268954   166A      3.279775  
     167A      3.289379   168A      3.301214   169A      3.335011  
     170A      3.347779   171A      3.359228   172A      3.370857  
     173A      3.375319   174A      3.398467   175A      3.415419  
     176A      3.434535   177A      3.464738   178A      3.468283  
     179A      3.488883   180A      3.515996   181A      3.545794  
     182A      3.552629   183A      3.579651   184A      3.612953  
     185A      3.622533   186A      3.628690   187A      3.645123  
     188A      3.663848   189A      3.681285   190A      3.709964  
     191A      3.729898   192A      3.739712   193A      3.755332  
     194A      3.760365   195A      3.768236   196A      3.781340  
     197A      3.788415   198A      3.808858   199A      3.820491  
     200A      3.829192   201A      3.840339   202A      3.867284  
     203A      3.913833   204A      3.920855   205A      3.938745  
     206A      3.950564   207A      3.972572   208A      4.013274  
     209A      4.037660   210A      4.062144   211A      4.073576  
     212A      4.093147   213A      4.098657   214A      4.116842  
     215A      4.152632   216A      4.177398   217A      4.186261  
     218A      4.199606   219A      4.247313   220A      4.254777  
     221A      4.282304   222A      4.298274   223A      4.319889  
     224A      4.331698   225A      4.335337   226A      4.362267  
     227A      4.379381   228A      4.386238   229A      4.410565  
     230A      4.416828   231A      4.425364   232A      4.455776  
     233A      4.498232   234A      4.512924   235A      4.520179  
     236A      4.548123   237A      4.560065   238A      4.581742  
     239A      4.598994   240A      4.643124   241A      4.650452  
     242A      4.686525   243A      4.730366   244A      4.762085  
     245A      4.805495   246A      4.835964   247A      4.862973  
     248A      4.882922   249A      4.959780   250A      5.015750  
     251A      5.047094   252A      5.072635   253A      5.092579  
     254A      5.102114   255A      5.109094   256A      5.152834  
     257A      5.229821   258A      5.246566   259A      5.253424  
     260A      5.274853   261A      5.313234   262A      5.323483  
     263A      5.354792   264A      5.371507   265A      5.391658  
     266A      5.416641   267A      5.439703   268A      5.448682  
     269A      5.468786   270A      5.496071   271A      5.511789  
     272A      5.535357   273A      5.576817   274A      5.606102  
     275A      5.610902   276A      5.624436   277A      5.667005  
     278A      5.680797   279A      5.764982   280A      5.773680  
     281A      5.809029   282A      5.888973   283A      5.929671  
     284A      5.960922   285A      5.984982   286A      5.995148  
     287A      6.057858   288A      6.147160   289A      6.192338  
     290A      6.225633   291A      6.254813   292A      6.271371  
     293A      6.308365   294A      6.321344   295A      6.459288  
     296A      6.557566   297A      6.584625   298A      6.681503  
     299A      6.715863   300A      6.750363   301A      6.832454  
     302A      6.897287   303A      6.950704   304A      6.980580  
     305A      7.301396   306A      7.327430   307A      7.337136  
     308A      7.389626   309A      7.563674   310A      7.608211  
     311A      7.833104   312A      7.887145   313A      7.909269  
     314A      7.949527   315A     11.336214   316A     11.742928  
     317A     13.318191   318A     13.909819   319A     14.115020  
     320A     14.271554  

    Final Occupation by Irrep:
              A 
    DOCC [    25 ]

  Energy converged.

  @DF-RHF Final Energy:  -307.09415600534652

   => Energetics <=

    Nuclear Repulsion Energy =            258.3309475883662003
    One-Electron Energy =                -931.1443420491366396
    Two-Electron Energy =                 365.7192384554239197
    DFT Exchange-Correlation Energy =       0.0000000000000000
    Empirical Dispersion Energy =           0.0000000000000000
    PCM Polarization Energy =               0.0000000000000000
    EFP Energy =                            0.0000000000000000
    Total Energy =                       -307.0941560053465764


  Saving occupied orbitals to File 180.

*** tstop() called on cx1-27-2-4 at Sat Sep 10 16:07:08 2016
Module time:
	user time   =      18.96 seconds =       0.32 minutes
	system time =       0.58 seconds =       0.01 minutes
	total time  =          5 seconds =       0.08 minutes
Total time:
	user time   =      71.73 seconds =       1.20 minutes
	system time =       1.79 seconds =       0.03 minutes
	total time  =         20 seconds =       0.33 minutes


Properties will be evaluated at   0.000000,   0.000000,   0.000000 Bohr

Properties computed using the SCF density matrix

  Nuclear Dipole Moment: (a.u.)
     X:    -0.4998      Y:     0.8887      Z:    -1.2875

  Electronic Dipole Moment: (a.u.)
     X:     0.3381      Y:    -0.6143      Z:     0.8145

  Dipole Moment: (a.u.)
     X:    -0.1617      Y:     0.2744      Z:    -0.4730     Total:     0.5702

  Dipole Moment: (Debye)
     X:    -0.4110      Y:     0.6974      Z:    -1.2022     Total:     1.4493


*** tstart() called on cx1-27-2-4
*** at Sat Sep 10 16:07:08 2016


         ------------------------------------------------------------
                                   SCF GRAD                          
                          Rob Parrish, Justin Turney,                
                       Andy Simmonett, and Alex Sokolov              
         ------------------------------------------------------------

  ==> Geometry <==

    Molecular point group: c1
    Full point group: C1

    Geometry (in Angstrom), charge = 0, multiplicity = 1:

       Center              X                  Y                   Z               Mass       
    ------------   -----------------  -----------------  -----------------  -----------------
           H         -2.457537733049     0.041930186681     1.809915470018     1.007825032070
           C         -2.424701772397    -0.747666175264     1.062569059344    12.000000000000
           O         -1.213808432345    -0.754718464239     0.383260346552    15.994914619560
           H         -2.530780885241    -1.701032454924     1.559314177646     1.007825032070
           H         -3.264039337723    -0.612609687741     0.382560193022     1.007825032070
           C         -0.942423426031     0.414353246889    -0.317808595639    12.000000000000
           C          0.435745438042     0.336383502570    -0.925154372516    12.000000000000
           H         -1.672382894682     0.554481220385    -1.115217803461     1.007825032070
           H         -0.994807473840     1.278794699952     0.340603898945     1.007825032070
           O          1.397210819523     0.455628925430     0.075456536422    15.994914619560
           H          0.537235378281    -0.611219526649    -1.448499201396     1.007825032070
           H          0.540926031655     1.138507397521    -1.654960332691     1.007825032070
           C          2.731773884583     0.315844283559    -0.315493266096    12.000000000000
           H          2.833194016338     0.127699588455    -1.380056710993     1.007825032070
           H          3.266076352918     1.233502268237    -0.088173833118     1.007825032070
           H          3.208060536446    -0.500550243042     0.218787964643     1.007825032070

  Nuclear repulsion =  258.330947588366200

  ==> Basis Set <==

  Basis Set: CC-PVTZ
    Number of shells: 120
    Number of basis function: 320
    Number of Cartesian functions: 360
    Spherical Harmonics?: true
    Max angular momentum: 3

  ==> DFJKGrad: Density-Fitted SCF Gradients <==

    Gradient:                    1
    J tasked:                  Yes
    K tasked:                  Yes
    wK tasked:                  No
    OpenMP threads:              4
    Integrals threads:           4
    Memory (MB):              1430
    Schwarz Cutoff:          0E+00
    Fitting Condition:       1E-12

   => Auxiliary Basis Set <=

  Basis Set: 
    Number of shells: 250
    Number of basis function: 774
    Number of Cartesian functions: 926
    Spherical Harmonics?: true
    Max angular momentum: 4


  -Total Gradient:
     Atom            X                  Y                   Z
    ------   -----------------  -----------------  -----------------
       1       -0.000007296311     0.000044986768     0.000049761723
       2       -0.000055167744    -0.000047496907     0.000055210875
       3        0.000209293642    -0.000062448479    -0.000009392579
       4        0.000003601753    -0.000005593367     0.000007749925
       5       -0.000033886600     0.000010335805    -0.000048982013
       6       -0.000423117902    -0.000077689759    -0.000822721653
       7       -0.001794932633     0.000782202103     0.000419924826
       8       -0.000216178107     0.000038696923     0.000068633165
       9        0.000071832360     0.000026534963     0.000007155754
      10       -0.001299121203     0.002136181381     0.000077645913
      11       -0.000162655900    -0.000165552911     0.000062365569
      12       -0.000263132875    -0.000043341455    -0.000205314854
      13       -0.000001400806    -0.003860099531     0.000711528014
      14        0.001236478363     0.000467474572    -0.000288270524
      15       -0.000316952191     0.001320373065     0.000143149588
      16        0.003052636154    -0.000564563172    -0.000228443726


*** tstop() called on cx1-27-2-4 at Sat Sep 10 16:07:15 2016
Module time:
	user time   =      23.69 seconds =       0.39 minutes
	system time =       0.48 seconds =       0.01 minutes
	total time  =          7 seconds =       0.12 minutes
Total time:
	user time   =      95.50 seconds =       1.59 minutes
	system time =       2.27 seconds =       0.04 minutes
	total time  =         27 seconds =       0.45 minutes

			-----------------------------------------
			 OPTKING 2.0: for geometry optimizations 
			  - R.A. King,  Bethel University        
			-----------------------------------------

	Previous internal coordinate definitions found.
	---Fragment 1 Geometry and Gradient---
	 H          -4.6440732767        0.0792365695        3.4202445620
	 C          -4.5820223038       -1.4128843101        2.0079645194
	 O          -2.2937655149       -1.4262112048        0.7242570926
	 H          -4.7824827754       -3.2144854830        2.9466767509
	 H          -6.1681404353       -1.1576645362        0.7229339942
	 C          -1.7809221764        0.7830141589       -0.6005712084
	 C           0.8234395416        0.6356726955       -1.7482883947
	 H          -3.1603456603        1.0478176524       -2.1074562271
	 H          -1.8799136805        2.4165717631        0.6436480888
	 O           2.6403457988        0.8610138873        0.1425921888
	 H           1.0152277338       -1.1550375124       -2.7372667943
	 H           1.0222020580        2.1514671816       -3.1274217896
	 C           5.1623044988        0.5968591966       -0.5961958697
	 H           5.3539607722        0.2413172495       -2.6079292316
	 H           6.1719898361        2.3309814713       -0.1666243967
	 H           6.0623558316       -0.9459028751        0.4134493343
	            -0.0000072963        0.0000449868        0.0000497617
	            -0.0000551677       -0.0000474969        0.0000552109
	             0.0002092936       -0.0000624485       -0.0000093926
	             0.0000036018       -0.0000055934        0.0000077499
	            -0.0000338866        0.0000103358       -0.0000489820
	            -0.0004231179       -0.0000776898       -0.0008227217
	            -0.0017949326        0.0007822021        0.0004199248
	            -0.0002161781        0.0000386969        0.0000686332
	             0.0000718324        0.0000265350        0.0000071558
	            -0.0012991212        0.0021361814        0.0000776459
	            -0.0001626559       -0.0001655529        0.0000623656
	            -0.0002631329       -0.0000433415       -0.0002053149
	            -0.0000014008       -0.0038600995        0.0007115280
	             0.0012364784        0.0004674746       -0.0002882705
	            -0.0003169522        0.0013203731        0.0001431496
	             0.0030526362       -0.0005645632       -0.0002284437

	---Fragment 1 Intrafragment Coordinates---
	 - Coordinate -           - BOHR/RAD -       - ANG/DEG -
	 R(1,2)           =         2.055434	       1.087689
	 R(2,3)           =         2.623776	       1.388443
	 R(2,4)           =         2.041355	       1.080239
	 R(2,5)           =         2.057234	       1.088641
	 R(3,6)           =         2.626567	       1.389919
	 R(6,7)           =         2.849853	       1.508077
	 R(6,8)           =         2.060008	       1.090109
	 R(6,9)           =         2.055819	       1.087893
	 R(7,10)          =         2.631987	       1.392788
	 R(7,11)          =         2.054630	       1.087263
	 R(7,12)          =         2.058919	       1.089533
	 R(10,13)         =         2.641186	       1.397655
	 R(13,14)         =         2.051880	       1.085808
	 R(13,15)         =         2.052115	       1.085933
	 R(13,16)         =         2.051729	       1.085728
	 B(1,2,3)         =         1.945701	     111.480445
	 B(1,2,4)         =         1.898379	     108.769103
	 B(1,2,5)         =         1.892151	     108.412270
	 B(2,3,6)         =         1.996314	     114.380354
	 B(3,2,4)         =         1.881937	     107.827021
	 B(3,2,5)         =         1.947032	     111.556737
	 B(3,6,7)         =         1.915673	     109.759993
	 B(3,6,8)         =         1.924461	     110.263475
	 B(3,6,9)         =         1.932293	     110.712232
	 B(4,2,5)         =         1.897599	     108.724420
	 B(6,7,10)        =         1.914627	     109.700051
	 B(6,7,11)        =         1.900977	     108.917947
	 B(6,7,12)        =         1.896441	     108.658055
	 B(7,6,8)         =         1.900741	     108.904413
	 B(7,6,9)         =         1.905855	     109.197454
	 B(7,10,13)       =         2.037155	     116.720361
	 B(8,6,9)         =         1.884232	     107.958531
	 B(10,7,11)       =         1.934768	     110.854033
	 B(10,7,12)       =         1.930024	     110.582218
	 B(10,13,14)      =         1.961419	     112.381021
	 B(10,13,15)      =         1.903650	     109.071134
	 B(10,13,16)      =         1.935243	     110.881264
	 B(11,7,12)       =         1.886212	     108.072009
	 B(14,13,15)      =         1.881473	     107.800491
	 B(14,13,16)      =         1.887251	     108.131539
	 B(15,13,16)      =         1.892901	     108.455241
	 D(1,2,3,6)       =        -1.066832	     -61.124943
	 D(2,3,6,7)       =         3.065940	     175.665423
	 D(2,3,6,8)       =        -1.123315	     -64.361189
	 D(2,3,6,9)       =         0.960689	      55.043450
	 D(3,6,7,10)      =        -1.261692	     -72.289621
	 D(3,6,7,11)      =         0.858796	      49.205414
	 D(3,6,7,12)      =         2.909664	     166.711473
	 D(4,2,3,6)       =         3.133743	     179.550243
	 D(5,2,3,6)       =         1.051302	      60.235191
	 D(6,7,10,13)     =         3.071308	     175.973009
	*D(7,10,13,14)    =        -0.000000	      -0.000000
	 D(7,10,13,15)    =         2.085364	     119.482572
	 D(7,10,13,16)    =        -2.114499	    -121.151855
	 D(8,6,7,10)      =         2.913170	     166.912371
	 D(8,6,7,11)      =        -1.249526	     -71.592594
	 D(8,6,7,12)      =         0.801341	      45.913465
	 D(9,6,7,10)      =         0.859485	      49.244885
	 D(9,6,7,11)      =         2.979974	     170.739920
	 D(9,6,7,12)      =        -1.252344	     -71.754020
	 D(11,7,10,13)    =         0.971236	      55.647720
	 D(12,7,10,13)    =        -1.120442	     -64.196603

	Current energy   :      -307.0941560053

	Energy change for the previous step:
		Projected    :        -0.0015377917
		Actual       :        -0.0003921379

	Performing BFGS update.
	Previous computed or guess Hessian on step 1.
	Steps to be used in Hessian update: 1
	Taking RFO optimization step.
	Going to follow RFO solution 1.
	Using RFO vector 1.
	Norm of target step-size    0.03664
	Projected energy change by RFO approximation:        -0.0001987698

	Back-transformation to cartesian coordinates...
	Successfully converged to displaced geometry.

	Back-transformation to cartesian coordinates to adjust frozen coordinates...
	Successfully converged to displaced geometry.

	--- Internal Coordinate Step in ANG or DEG, aJ/ANG or AJ/DEG ---
	 ---------------------------------------------------------------------------
	   Coordinate                Previous        Force       Change         New 
	   ----------                --------       ------       ------       ------
	    1 R(1,2)          =      1.087689    -0.000553    -0.000099     1.087590
	    2 R(2,3)          =      1.388443    -0.000923    -0.000115     1.388327
	    3 R(2,4)          =      1.080239    -0.000067    -0.000011     1.080228
	    4 R(2,5)          =      1.088641    -0.000478    -0.000092     1.088549
	    5 R(3,6)          =      1.389919    -0.000456    -0.000043     1.389876
	    6 R(6,7)          =      1.508077    -0.001066    -0.000180     1.507898
	    7 R(6,8)          =      1.090109    -0.000820    -0.000131     1.089978
	    8 R(6,9)          =      1.087893    -0.000181    -0.000048     1.087844
	    9 R(7,10)         =      1.392788    -0.017301    -0.001632     1.391156
	   10 R(7,11)         =      1.087263    -0.000816    -0.000166     1.087097
	   11 R(7,12)         =      1.089533    -0.000661    -0.000104     1.089429
	   12 R(10,13)        =      1.397655    -0.032631    -0.003115     1.394540
	   13 R(13,14)        =      1.085808    -0.002613    -0.000738     1.085070
	   14 R(13,15)        =      1.085933    -0.008155    -0.001681     1.084252
	   15 R(13,16)        =      1.085728    -0.013604    -0.001977     1.083751
	   16 B(1,2,3)        =    111.480445    -0.000001    -0.003827   111.476618
	   17 B(1,2,4)        =    108.769103     0.000000     0.001562   108.770665
	   18 B(1,2,5)        =    108.412270    -0.000000    -0.000481   108.411789
	   19 B(2,3,6)        =    114.380354    -0.000000    -0.002919   114.377434
	   20 B(3,2,4)        =    107.827021     0.000000    -0.001417   107.825604
	   21 B(3,2,5)        =    111.556737     0.000002     0.005767   111.562503
	   22 B(3,6,7)        =    109.759993     0.000020     0.047085   109.807078
	   23 B(3,6,8)        =    110.263475     0.000000    -0.014049   110.249426
	   24 B(3,6,9)        =    110.712232    -0.000007     0.018457   110.730689
	   25 B(4,2,5)        =    108.724420    -0.000001    -0.001639   108.722782
	   26 B(6,7,10)       =    109.700051    -0.000075    -0.195027   109.505024
	   27 B(6,7,11)       =    108.917947     0.000033     0.136833   109.054780
	   28 B(6,7,12)       =    108.658055     0.000032     0.066956   108.725011
	   29 B(7,6,8)        =    108.904413    -0.000024    -0.107129   108.797284
	   30 B(7,6,9)        =    109.197454     0.000006     0.046914   109.244369
	   31 B(7,10,13)      =    116.720361    -0.000255    -0.498537   116.221824
	   32 B(8,6,9)        =    107.958531     0.000005     0.006152   107.964682
	   33 B(10,7,11)      =    110.854033     0.000023     0.073314   110.927347
	   34 B(10,7,12)      =    110.582218     0.000000    -0.108556   110.473662
	   35 B(10,13,14)     =    112.381021    -0.000096    -0.288543   112.092478
	   36 B(10,13,15)     =    109.071134     0.000179     0.737248   109.808382
	   37 B(10,13,16)     =    110.881264    -0.000300    -1.107466   109.773797
	   38 B(11,7,12)      =    108.072009    -0.000012     0.033653   108.105662
	   39 B(14,13,15)     =    107.800491     0.000027     0.379735   108.180226
	   40 B(14,13,16)     =    108.131539     0.000138     0.132337   108.263876
	   41 B(15,13,16)     =    108.455241     0.000065     0.184901   108.640142
	   42 D(1,2,3,6)      =    -61.124943    -0.000000    -0.002915   -61.127858
	   43 D(2,3,6,7)      =    175.665423     0.000002     0.046379   175.711802
	   44 D(2,3,6,8)      =    -64.361189    -0.000002    -0.065143   -64.426332
	   45 D(2,3,6,9)      =     55.043450    -0.000001    -0.054756    54.988694
	   46 D(3,6,7,10)     =    -72.289621    -0.000003    -0.202761   -72.492382
	   47 D(3,6,7,11)     =     49.205414    -0.000002    -0.147833    49.057580
	   48 D(3,6,7,12)     =    166.711473     0.000003     0.007110   166.718583
	   49 D(4,2,3,6)      =    179.550243     0.000000    -0.001678   179.548565
	   50 D(5,2,3,6)      =     60.235191    -0.000000    -0.002176    60.233015
	   51 D(6,7,10,13)    =    175.973009     0.000000    -0.287959   175.685050
	   52 *D(7,10,13,14)  =      0.000000    -0.000000     0.000000     0.000000
	   53 D(7,10,13,15)   =    119.482572     0.000021     0.789287   120.271859
	   54 D(7,10,13,16)   =   -121.151855     0.000024     0.797201  -120.354654
	   55 D(8,6,7,10)     =    166.912371    -0.000002    -0.147703   166.764668
	   56 D(8,6,7,11)     =    -71.592594    -0.000002    -0.092776   -71.685370
	   57 D(8,6,7,12)     =     45.913465     0.000003     0.062168    45.975633
	   58 D(9,6,7,10)     =     49.244885    -0.000001    -0.120417    49.124468
	   59 D(9,6,7,11)     =    170.739920    -0.000001    -0.065490   170.674430
	   60 D(9,6,7,12)     =    -71.754020     0.000004     0.089453   -71.664567
	   61 D(11,7,10,13)   =     55.647720    -0.000002    -0.378037    55.269683
	   62 D(12,7,10,13)   =    -64.196603    -0.000002    -0.396803   -64.593406
	 ---------------------------------------------------------------------------
	Successfully symmetrized geometry.

  ==> Convergence Check <==

  Measures of convergence in internal coordinates in au.
  Criteria marked as inactive (o), active & met (*), and active & unmet ( ).
  ---------------------------------------------------------------------------------------------
   Step     Total Energy     Delta E     MAX Force     RMS Force      MAX Disp      RMS Disp   
  ---------------------------------------------------------------------------------------------
    Convergence Criteria    1.00e-06 *    3.00e-04 *             o    1.20e-03 *             o
  ---------------------------------------------------------------------------------------------
      2    -307.09415601   -3.92e-04      3.96e-03      1.04e-03 o    1.93e-02      4.65e-03 o  ~
  ---------------------------------------------------------------------------------------------

	Writing optimization data to binary file.
	Structure for next step:
	Cartesian Geometry (in Angstrom)
	    H    -2.4653292745   0.0482625584   1.7967994473
	    C    -2.4247527536  -0.7468940216   1.0559006759
	    O    -1.2097117938  -0.7543310956   0.3842808504
	    H    -2.5301222124  -1.6968019085   1.5593531430
	    H    -3.2603450668  -0.6204951690   0.3697897466
	    C    -0.9386816715   0.4103358160  -0.3241326339
	    C     0.4428005400   0.3339487260  -0.9236549654
	    H    -1.6635528567   0.5404601584  -1.1276760130
	    H    -0.9995226898   1.2798927085   0.3266933518
	    O     1.3939241754   0.4695085620   0.0824769561
	    H     0.5544217888  -0.6173031715  -1.4378923874
	    H     0.5495604658   1.1308108265  -1.6588210156
	    C     2.7257784209   0.3261412031  -0.3052745768
	    H     2.8222268808   0.1240612955  -1.3669898500
	    H     3.2731168645   1.2352909794  -0.0828590168
	    H     3.1799296855  -0.4935586997   0.2391098184
			--------------------------
			 OPTKING Finished Execution 
			--------------------------

    Structure for next step:
    Molecular point group: c1
    Full point group: C1

    Geometry (in Angstrom), charge = 0, multiplicity = 1:

    H           -2.466043809709     0.045325110651     1.795616981417
    C           -2.425467288783    -0.749831469391     1.054718210008
    O           -1.210426329031    -0.757268543404     0.383098384511
    H           -2.530836747589    -1.699739356226     1.558170677094
    H           -3.261059601992    -0.623432616726     0.368607280633
    C           -0.939396206739     0.407398368183    -0.325315099863
    C            0.442086004809     0.331011278208    -0.924837431342
    H           -1.664267391854     0.537522710624    -1.128858478939
    H           -1.000237225036     1.276955260751     0.325510885872
    O            1.393209640181     0.466571114221     0.081294490162
    H            0.553707253578    -0.620240619312    -1.439074853348
    H            0.548845930589     1.127873378716    -1.660003481489
    C            2.725063885667     0.323203755314    -0.306457042696
    H            2.821512345564     0.121123847694    -1.368172315976
    H            3.272402329303     1.232353531577    -0.084041482710
    H            3.179215150333    -0.496496147436     0.237927352452

gradient() will perform analytic gradient computation.

*** tstart() called on cx1-27-2-4
*** at Sat Sep 10 16:07:15 2016


         ---------------------------------------------------------
                                   SCF
            by Justin Turney, Rob Parrish, and Andy Simmonett
                              RHF Reference
                        4 Threads,   2000 MiB Core
         ---------------------------------------------------------

  ==> Geometry <==

    Molecular point group: c1
    Full point group: C1

    Geometry (in Angstrom), charge = 0, multiplicity = 1:

       Center              X                  Y                   Z               Mass       
    ------------   -----------------  -----------------  -----------------  -----------------
           H         -2.466043809709     0.045325110651     1.795616981417     1.007825032070
           C         -2.425467288783    -0.749831469391     1.054718210008    12.000000000000
           O         -1.210426329031    -0.757268543404     0.383098384511    15.994914619560
           H         -2.530836747589    -1.699739356226     1.558170677094     1.007825032070
           H         -3.261059601992    -0.623432616726     0.368607280633     1.007825032070
           C         -0.939396206739     0.407398368183    -0.325315099863    12.000000000000
           C          0.442086004809     0.331011278208    -0.924837431342    12.000000000000
           H         -1.664267391854     0.537522710624    -1.128858478939     1.007825032070
           H         -1.000237225036     1.276955260751     0.325510885872     1.007825032070
           O          1.393209640181     0.466571114221     0.081294490162    15.994914619560
           H          0.553707253578    -0.620240619312    -1.439074853348     1.007825032070
           H          0.548845930589     1.127873378716    -1.660003481489     1.007825032070
           C          2.725063885667     0.323203755314    -0.306457042696    12.000000000000
           H          2.821512345564     0.121123847694    -1.368172315976     1.007825032070
           H          3.272402329303     1.232353531577    -0.084041482710     1.007825032070
           H          3.179215150333    -0.496496147436     0.237927352452     1.007825032070

  Running in c1 symmetry.

  Rotational constants: A =      0.37193  B =      0.05176  C =      0.04858 [cm^-1]
  Rotational constants: A =  11150.03623  B =   1551.63255  C =   1456.50862 [MHz]
  Nuclear repulsion =  258.600973191740934

  Charge       = 0
  Multiplicity = 1
  Electrons    = 50
  Nalpha       = 25
  Nbeta        = 25

  ==> Algorithm <==

  SCF Algorithm Type is DF.
  DIIS enabled.
  MOM disabled.
  Fractional occupation disabled.
  Guess Type is READ.
  Energy threshold   = 1.00e-08
  Density threshold  = 1.00e-08
  Integral threshold = 0.00e+00

  ==> Primary Basis <==

  Basis Set: CC-PVTZ
    Number of shells: 120
    Number of basis function: 320
    Number of Cartesian functions: 360
    Spherical Harmonics?: true
    Max angular momentum: 3

  ==> Pre-Iterations <==

   -------------------------------------------------------
    Irrep   Nso     Nmo     Nalpha   Nbeta   Ndocc  Nsocc
   -------------------------------------------------------
     A        320     320       0       0       0       0
   -------------------------------------------------------
    Total     320     320      25      25      25       0
   -------------------------------------------------------

  ==> Integral Setup <==

  ==> DFJK: Density-Fitted J/K Matrices <==

    J tasked:                  Yes
    K tasked:                  Yes
    wK tasked:                  No
    OpenMP threads:              4
    Integrals threads:           4
    Memory (MB):              1430
    Algorithm:                Core
    Integral Cache:           NONE
    Schwarz Cutoff:          1E-12
    Fitting Condition:       1E-12

   => Auxiliary Basis Set <=

  Basis Set: 
    Number of shells: 250
    Number of basis function: 774
    Number of Cartesian functions: 926
    Spherical Harmonics?: true
    Max angular momentum: 4

  Minimum eigenvalue in the overlap matrix is 6.4644000761E-04.
  Using Symmetric Orthogonalization.
  SCF Guess: Reading in previously saved MOs, projecting if necessary.

  Using orbitals from previous SCF, no projection.
  Recomputing DOCC and SOCC from number of alpha and beta electrons from previous calculation.
              A 
    DOCC [    25 ]

  ==> Iterations <==

                           Total Energy        Delta E     RMS |[F,P]|

   @DF-RHF iter   0:  -307.09825177649458   -3.07098e+02   9.06675e-05 
   @DF-RHF iter   1:  -307.09425304096141    3.99874e-03   1.55396e-05 
   @DF-RHF iter   2:  -307.09427448532728   -2.14444e-05   5.26768e-06 DIIS
   @DF-RHF iter   3:  -307.09427754328357   -3.05796e-06   1.70554e-06 DIIS
   @DF-RHF iter   4:  -307.09427771238171   -1.69098e-07   4.73006e-07 DIIS
   @DF-RHF iter   5:  -307.09427773195392   -1.95722e-08   1.49038e-07 DIIS
   @DF-RHF iter   6:  -307.09427773456758   -2.61366e-09   4.95357e-08 DIIS
   @DF-RHF iter   7:  -307.09427773481133   -2.43745e-10   1.47138e-08 DIIS
   @DF-RHF iter   8:  -307.09427773483566   -2.43290e-11   3.30257e-09 DIIS

  ==> Post-Iterations <==

    Orbital Energies (a.u.)
    -----------------------

    Doubly Occupied:                                                      

       1A    -20.547396     2A    -20.544058     3A    -11.267825  
       4A    -11.266510     5A    -11.261306     6A    -11.261052  
       7A     -1.389386     8A     -1.371271     9A     -1.031743  
      10A     -0.937234    11A     -0.892183    12A     -0.823910  
      13A     -0.684848    14A     -0.680949    15A     -0.658572  
      16A     -0.636208    17A     -0.630239    18A     -0.597240  
      19A     -0.554726    20A     -0.538216    21A     -0.508704  
      22A     -0.479008    23A     -0.463861    24A     -0.420893  
      25A     -0.410045  

    Virtual:                                                              

      26A      0.145908    27A      0.151795    28A      0.175559  
      29A      0.195973    30A      0.213738    31A      0.222836  
      32A      0.224429    33A      0.226252    34A      0.243449  
      35A      0.251290    36A      0.261630    37A      0.279773  
      38A      0.322165    39A      0.359142    40A      0.372751  
      41A      0.394976    42A      0.397287    43A      0.422719  
      44A      0.436513    45A      0.512049    46A      0.520956  
      47A      0.535757    48A      0.557328    49A      0.563554  
      50A      0.587042    51A      0.603119    52A      0.613375  
      53A      0.624729    54A      0.634100    55A      0.635739  
      56A      0.636532    57A      0.645881    58A      0.653511  
      59A      0.661718    60A      0.668275    61A      0.682954  
      62A      0.708293    63A      0.719713    64A      0.728718  
      65A      0.739503    66A      0.755776    67A      0.792685  
      68A      0.808449    69A      0.829171    70A      0.886982  
      71A      0.896998    72A      0.916570    73A      0.930966  
      74A      0.956788    75A      0.996846    76A      1.039846  
      77A      1.041123    78A      1.073171    79A      1.088901  
      80A      1.096746    81A      1.131624    82A      1.143089  
      83A      1.170453    84A      1.180916    85A      1.190599  
      86A      1.192290    87A      1.216952    88A      1.230100  
      89A      1.241949    90A      1.263195    91A      1.273214  
      92A      1.292651    93A      1.303239    94A      1.329029  
      95A      1.336317    96A      1.347103    97A      1.377268  
      98A      1.384159    99A      1.396562   100A      1.412576  
     101A      1.435033   102A      1.439285   103A      1.466615  
     104A      1.486662   105A      1.503974   106A      1.516932  
     107A      1.533280   108A      1.542153   109A      1.546958  
     110A      1.559612   111A      1.578718   112A      1.579321  
     113A      1.592816   114A      1.610047   115A      1.657536  
     116A      1.676536   117A      1.686854   118A      1.699114  
     119A      1.768708   120A      1.794573   121A      1.808499  
     122A      1.874124   123A      1.943462   124A      2.093541  
     125A      2.189693   126A      2.197306   127A      2.258490  
     128A      2.296769   129A      2.332293   130A      2.342546  
     131A      2.360194   132A      2.419221   133A      2.461684  
     134A      2.484590   135A      2.517064   136A      2.521902  
     137A      2.559226   138A      2.595574   139A      2.618929  
     140A      2.635539   141A      2.666367   142A      2.686249  
     143A      2.727117   144A      2.787637   145A      2.820751  
     146A      2.857270   147A      2.874840   148A      2.919465  
     149A      2.941632   150A      3.037646   151A      3.065878  
     152A      3.070841   153A      3.085230   154A      3.098730  
[...]
    Number of shells: 250
    Number of basis function: 774
    Number of Cartesian functions: 926
    Spherical Harmonics?: true
    Max angular momentum: 4


  -Total Gradient:
     Atom            X                  Y                   Z
    ------   -----------------  -----------------  -----------------
       1       -0.000000795633    -0.000001055461    -0.000000529661
       2       -0.000012051543     0.000002597133     0.000005050848
       3        0.000012178207     0.000012584672     0.000014489958
       4        0.000000925939     0.000000827912     0.000000457476
       5        0.000004849912     0.000000654455     0.000000095547
       6       -0.000041052871    -0.000027898356    -0.000064975160
       7       -0.000073440424     0.000115077216    -0.000037607264
       8       -0.000051138984     0.000004544469     0.000000080839
       9        0.000022483731    -0.000032364673    -0.000012025403
      10        0.000181141058    -0.000069794235    -0.000001869499
      11        0.000011158739     0.000010347949     0.000041718506
      12        0.000007225239    -0.000021926458     0.000000289538
      13       -0.000038727450     0.000011636675     0.000063356285
      14       -0.000032942589    -0.000009745123     0.000003003564
      15       -0.000014657454     0.000007220047    -0.000006796352
      16        0.000024844121    -0.000002706224    -0.000004739222


*** tstop() called on cx1-27-2-4 at Sat Sep 10 16:07:39 2016
Module time:
	user time   =      25.46 seconds =       0.42 minutes
	system time =       0.54 seconds =       0.01 minutes
	total time  =          6 seconds =       0.10 minutes
Total time:
	user time   =     182.62 seconds =       3.04 minutes
	system time =       4.36 seconds =       0.07 minutes
	total time  =         51 seconds =       0.85 minutes

			-----------------------------------------
			 OPTKING 2.0: for geometry optimizations 
			  - R.A. King,  Bethel University        
			-----------------------------------------

	Previous internal coordinate definitions found.
	---Fragment 1 Geometry and Gradient---
	 H          -4.6614879455        0.0798226142        3.3905587879
	 C          -4.5812351322       -1.4232020927        1.9910735029
	 O          -2.2849528460       -1.4327495147        0.7222728550
	 H          -4.7767045270       -3.2182939221        2.9432003680
	 H          -6.1606127408       -1.1883213091        0.6941918489
	 C          -1.7772908775        0.7687393173       -0.6170427074
	 C           0.8356095258        0.6305751715       -1.7465026618
	 H          -3.1475512573        1.0113895766       -2.1359138672
	 H          -1.8960750236        2.4116672641        0.6125723655
	 O           2.6317515829        0.8868794388        0.1555439289
	 H           1.0506766103       -1.1658897846       -2.7194404201
	 H           1.0359960358        2.1372503078       -3.1351988835
	 C           5.1480618261        0.6103696604       -0.5761927255
	 H           5.3273857710        0.2249860029       -2.5823433606
	 H           6.1851226666        2.3270691380       -0.1580333465
	 H           6.0026329815       -0.9394670263        0.4544039037
	            -0.0000007956       -0.0000010555       -0.0000005297
	            -0.0000120515        0.0000025971        0.0000050508
	             0.0000121782        0.0000125847        0.0000144900
	             0.0000009259        0.0000008279        0.0000004575
	             0.0000048499        0.0000006545        0.0000000955
	            -0.0000410529       -0.0000278984       -0.0000649752
	            -0.0000734404        0.0001150772       -0.0000376073
	            -0.0000511390        0.0000045445        0.0000000808
	             0.0000224837       -0.0000323647       -0.0000120254
	             0.0001811411       -0.0000697942       -0.0000018695
	             0.0000111587        0.0000103479        0.0000417185
	             0.0000072252       -0.0000219265        0.0000002895
	            -0.0000387275        0.0000116367        0.0000633563
	            -0.0000329426       -0.0000097451        0.0000030036
	            -0.0000146575        0.0000072200       -0.0000067964
	             0.0000248441       -0.0000027062       -0.0000047392

	---Fragment 1 Intrafragment Coordinates---
	 - Coordinate -           - BOHR/RAD -       - ANG/DEG -
	 R(1,2)           =         2.055257	       1.087595
	 R(2,3)           =         2.623520	       1.388307
	 R(2,4)           =         2.041350	       1.080236
	 R(2,5)           =         2.057062	       1.088550
	 R(3,6)           =         2.626412	       1.389837
	 R(6,7)           =         2.849915	       1.508110
	 R(6,8)           =         2.059967	       1.090087
	 R(6,9)           =         2.055547	       1.087749
	 R(7,10)          =         2.628612	       1.391001
	 R(7,11)          =         2.054300	       1.087089
	 R(7,12)          =         2.058811	       1.089476
	 R(10,13)         =         2.635093	       1.394431
	 R(13,14)         =         2.050687	       1.085177
	 R(13,15)         =         2.048758	       1.084156
	 R(13,16)         =         2.048027	       1.083769
	 B(1,2,3)         =         1.945668	     111.478564
	 B(1,2,4)         =         1.898371	     108.768662
	 B(1,2,5)         =         1.892108	     108.409815
	 B(2,3,6)         =         1.996269	     114.377793
	 B(3,2,4)         =         1.881978	     107.829392
	 B(3,2,5)         =         1.947146	     111.563248
	 B(3,6,7)         =         1.916306	     109.796223
	 B(3,6,8)         =         1.924266	     110.252327
	 B(3,6,9)         =         1.932363	     110.716259
	 B(4,2,5)         =         1.897524	     108.720107
	 B(6,7,10)        =         1.912380	     109.571323
	 B(6,7,11)        =         1.902948	     109.030899
	 B(6,7,12)        =         1.897663	     108.728063
	 B(7,6,8)         =         1.900077	     108.866410
	 B(7,6,9)         =         1.905831	     109.196067
	 B(7,10,13)       =         2.027885	     116.189240
	 B(8,6,9)         =         1.884388	     107.967506
	 B(10,7,11)       =         1.935244	     110.881304
	 B(10,7,12)       =         1.928592	     110.500201
	 B(10,13,14)      =         1.955066	     112.017043
	 B(10,13,15)      =         1.916404	     109.801881
	 B(10,13,16)      =         1.915723	     109.762823
	 B(11,7,12)       =         1.886327	     108.078595
	 B(14,13,15)      =         1.889017	     108.232687
	 B(14,13,16)      =         1.889760	     108.275287
	 B(15,13,16)      =         1.896706	     108.673246
	 D(1,2,3,6)       =        -1.066782	     -61.122104
	 D(2,3,6,7)       =         3.065413	     175.635251
	 D(2,3,6,8)       =        -1.124384	     -64.422429
	 D(2,3,6,9)       =         0.959735	      54.988785
	 D(3,6,7,10)      =        -1.262945	     -72.361411
	 D(3,6,7,11)      =         0.857972	      49.158188
	 D(3,6,7,12)      =         2.910773	     166.775027
	 D(4,2,3,6)       =         3.133795	     179.553234
	 D(5,2,3,6)       =         1.051354	      60.238124
	 D(6,7,10,13)     =         3.061780	     175.427068
	*D(7,10,13,14)    =        -0.000000	      -0.000000
	 D(7,10,13,15)    =         2.099354	     120.284099
	 D(7,10,13,16)    =        -2.099850	    -120.312517
	 D(8,6,7,10)      =         2.912182	     166.855718
	 D(8,6,7,11)      =        -1.250087	     -71.624683
	 D(8,6,7,12)      =         0.802715	      45.992156
	 D(9,6,7,10)      =         0.858702	      49.199988
	 D(9,6,7,11)      =         2.979619	     170.719587
	 D(9,6,7,12)      =        -1.250765	     -71.663574
	 D(11,7,10,13)    =         0.960412	      55.027528
	 D(12,7,10,13)    =        -1.130783	     -64.789120

	Current energy   :      -307.0942785799

	Energy change for the previous step:
		Projected    :        -0.0000044336
		Actual       :        -0.0000008451
	Energy ratio indicates iffy step: Trust radius decreased to 1.250e-01.


	Performing BFGS update.
	Previous computed or guess Hessian on step 1.
	Steps to be used in Hessian update: 3 2
	Taking RFO optimization step.
	Going to follow RFO solution 1.
	Using RFO vector 1.
	Norm of target step-size    0.00277
	Projected energy change by RFO approximation:        -0.0000002271

	Back-transformation to cartesian coordinates...
	Could not converge backtransformation.
	Using first guess instead.

	Back-transformation to cartesian coordinates to adjust frozen coordinates...
	Successfully converged to displaced geometry.

	--- Internal Coordinate Step in ANG or DEG, aJ/ANG or AJ/DEG ---
	 ---------------------------------------------------------------------------
	   Coordinate                Previous        Force       Change         New 
	   ----------                --------       ------       ------       ------
	    1 R(1,2)          =      1.087595     0.000009     0.000002     1.087598
	    2 R(2,3)          =      1.388307    -0.000071    -0.000009     1.388298
	    3 R(2,4)          =      1.080236     0.000005     0.000001     1.080237
	    4 R(2,5)          =      1.088550     0.000031     0.000005     1.088555
	    5 R(3,6)          =      1.389837     0.000034     0.000001     1.389838
	    6 R(6,7)          =      1.508110    -0.000285    -0.000029     1.508081
	    7 R(6,8)          =      1.090087    -0.000284    -0.000033     1.090054
	    8 R(6,9)          =      1.087749     0.000283     0.000035     1.087783
	    9 R(7,10)         =      1.391001    -0.000938    -0.000107     1.390894
	   10 R(7,11)         =      1.087089     0.000228     0.000034     1.087123
	   11 R(7,12)         =      1.089476     0.000128     0.000024     1.089499
	   12 R(10,13)        =      1.394431     0.000615     0.000074     1.394505
	   13 R(13,14)        =      1.085177     0.000033     0.000017     1.085194
	   14 R(13,15)        =      1.084156     0.000023     0.000003     1.084159
	   15 R(13,16)        =      1.083769    -0.000083    -0.000002     1.083767
	   16 B(1,2,3)        =    111.478564    -0.000000    -0.000374   111.478190
	   17 B(1,2,4)        =    108.768662     0.000000    -0.000175   108.768487
	   18 B(1,2,5)        =    108.409815    -0.000000    -0.000191   108.409623
	   19 B(2,3,6)        =    114.377793     0.000001     0.001525   114.379318
	   20 B(3,2,4)        =    107.829392    -0.000000     0.000157   107.829549
	   21 B(3,2,5)        =    111.563248     0.000000     0.001445   111.564694
	   22 B(3,6,7)        =    109.796223    -0.000001    -0.002232   109.793991
	   23 B(3,6,8)        =    110.252327     0.000001    -0.003181   110.249147
	   24 B(3,6,9)        =    110.716259     0.000001     0.011665   110.727924
	   25 B(4,2,5)        =    108.720107    -0.000000    -0.000916   108.719191
	   26 B(6,7,10)       =    109.571323    -0.000007    -0.014463   109.556859
	   27 B(6,7,11)       =    109.030899     0.000002     0.008819   109.039718
	   28 B(6,7,12)       =    108.728063     0.000000    -0.010026   108.718037
	   29 B(7,6,8)        =    108.866410    -0.000004    -0.018117   108.848293
	   30 B(7,6,9)        =    109.196067     0.000002     0.011835   109.207903
	   31 B(7,10,13)      =    116.189240    -0.000001    -0.001959   116.187280
	   32 B(8,6,9)        =    107.967506     0.000000    -0.000296   107.967210
	   33 B(10,7,11)      =    110.881304     0.000004     0.022832   110.904136
	   34 B(10,7,12)      =    110.500201     0.000001    -0.005689   110.494512
	   35 B(10,13,14)     =    112.017043     0.000004     0.013855   112.030898
	   36 B(10,13,15)     =    109.801881     0.000001     0.002959   109.804840
	   37 B(10,13,16)     =    109.762823    -0.000004    -0.014140   109.748684
	   38 B(11,7,12)      =    108.078595    -0.000001    -0.001668   108.076928
	   39 B(14,13,15)     =    108.232687    -0.000001     0.005150   108.237837
	   40 B(14,13,16)     =    108.275287    -0.000000    -0.005073   108.270214
	   41 B(15,13,16)     =    108.673246    -0.000000    -0.003030   108.670216
	   42 D(1,2,3,6)      =    -61.122104    -0.000000    -0.000645   -61.122749
	   43 D(2,3,6,7)      =    175.635251     0.000001     0.012228   175.647479
	   44 D(2,3,6,8)      =    -64.422429    -0.000000    -0.013591   -64.436021
	   45 D(2,3,6,9)      =     54.988785    -0.000000    -0.008575    54.980210
	   46 D(3,6,7,10)     =    -72.361411    -0.000001    -0.063965   -72.425376
	   47 D(3,6,7,11)     =     49.158188    -0.000000    -0.039335    49.118853
	   48 D(3,6,7,12)     =    166.775027    -0.000000    -0.042049   166.732977
	   49 D(4,2,3,6)      =    179.553234     0.000000    -0.000309   179.552925
	   50 D(5,2,3,6)      =     60.238124     0.000000    -0.000139    60.237985
	   51 D(6,7,10,13)    =    175.427068     0.000000    -0.038965   175.388103
	   52 *D(7,10,13,14)  =      0.000000     0.000000     0.000000     0.000000
	   53 D(7,10,13,15)   =    120.284099     0.000001     0.017559   120.301657
	   54 D(7,10,13,16)   =   -120.312517     0.000000     0.006953  -120.305564
	   55 D(8,6,7,10)     =    166.855718    -0.000000    -0.047425   166.808294
	   56 D(8,6,7,11)     =    -71.624683     0.000000    -0.022794   -71.647477
	   57 D(8,6,7,12)     =     45.992156     0.000000    -0.025509    45.966647
	   58 D(9,6,7,10)     =     49.199988    -0.000000    -0.043426    49.156561
	   59 D(9,6,7,11)     =    170.719587     0.000000    -0.018796   170.700791
	   60 D(9,6,7,12)     =    -71.663574     0.000000    -0.021511   -71.685085
	   61 D(11,7,10,13)   =     55.027528     0.000000    -0.055050    54.972478
	   62 D(12,7,10,13)   =    -64.789120    -0.000001    -0.064074   -64.853194
	 ---------------------------------------------------------------------------
	Successfully symmetrized geometry.

  ==> Convergence Check <==

  Measures of convergence in internal coordinates in au.
  Criteria marked as inactive (o), active & met (*), and active & unmet ( ).
  ---------------------------------------------------------------------------------------------
   Step     Total Energy     Delta E     MAX Force     RMS Force      MAX Disp      RMS Disp   
  ---------------------------------------------------------------------------------------------
    Convergence Criteria    1.00e-06 *    3.00e-04 *             o    1.20e-03 *             o
  ---------------------------------------------------------------------------------------------
      4    -307.09427858   -8.45e-07 *    1.14e-04 *    2.95e-05 o    1.12e-03 *    3.52e-04 o  ~
  ---------------------------------------------------------------------------------------------


  **** Optimization is complete! (in 4 steps) ****

  ==> Optimization Summary <==

  Measures of convergence in internal coordinates in au.
  --------------------------------------------------------------------------------------------------------------- ~
   Step         Total Energy             Delta E       MAX Force       RMS Force        MAX Disp        RMS Disp  ~
  --------------------------------------------------------------------------------------------------------------- ~
      1    -307.093763867427   -307.093763867427      0.01034995      0.00225131      0.05332914      0.01261833  ~
      2    -307.094156005347     -0.000392137920      0.00396070      0.00104146      0.01932893      0.00464998  ~
      3    -307.094277734836     -0.000121729489      0.00022981      0.00007334      0.00450264      0.00110880  ~
      4    -307.094278579932     -0.000000845096      0.00011390      0.00002949      0.00111830      0.00035217  ~
  --------------------------------------------------------------------------------------------------------------- ~

	Writing optimization data to binary file.
	Final energy is   -307.0942785799321
	Final (previous) structure:
	Cartesian Geometry (in Angstrom)
	    H    -2.4667531789   0.0422403082   1.7942064350
	    C    -2.4242852192  -0.7531261107   1.0536307183
	    O    -1.2091449688  -0.7581783888   0.3822103333
	    H    -2.5277231679  -1.7030477941   1.5574745551
	    H    -3.2600558534  -0.6288325533   0.3673505048
	    C    -0.9405018254   0.4067993261  -0.3265249375
	    C     0.4421855163   0.3336860090  -0.9242094034
	    H    -1.6656123882   0.5352043129  -1.1302769380
	    H    -1.0033596882   1.2761993509   0.3241593344
	    O     1.3926629563   0.4693163858   0.0823103021
	    H     0.5559941158  -0.6169623018  -1.4390658904
	    H     0.5482254903   1.1309841519  -1.6590757935
	    C     2.7242369868   0.3229937131  -0.3049080581
	    H     2.8191311314   0.1190574650  -1.3665172512
	    H     3.2730259475   1.2314319506  -0.0836276452
	    H     3.1764565654  -0.4971445385   0.2404601893
	Saving final (previous) structure.
			--------------------------
			 OPTKING Finished Execution 
			--------------------------

    Final optimized geometry and variables:
    Molecular point group: c1
    Full point group: C1

    Geometry (in Angstrom), charge = 0, multiplicity = 1:

    H           -2.466753178891     0.042240308159     1.794206434958
    C           -2.424285219153    -0.753126110653     1.053630718340
    O           -1.209144968798    -0.758178388822     0.382210333256
    H           -2.527723167855    -1.703047794136     1.557474555075
    H           -3.260055853394    -0.628832553265     0.367350504813
    C           -0.940501825422     0.406799326056    -0.326524937485
    C            0.442185516335     0.333686009041    -0.924209403364
    H           -1.665612388229     0.535204312927    -1.130276938020
    H           -1.003359688248     1.276199350852     0.324159334431
    O            1.392662956341     0.469316385766     0.082310302129
    H            0.555994115755    -0.616962301762    -1.439065890427
    H            0.548225490320     1.130984151948    -1.659075793529
    C            2.724236986811     0.322993713088    -0.304908058093
    H            2.819131131394     0.119057465006    -1.366517251168
    H            3.273025947492     1.231431950634    -0.083627645187
    H            3.176456565350    -0.497144538535     0.240460189320

	Cleaning optimization helper files.


Properties will be evaluated at   0.000000,   0.000000,   0.000000 Bohr

Properties computed using the  density matrix

  Nuclear Dipole Moment: (a.u.)
     X:    -0.5154      Y:     0.8321      Z:    -1.3055

  Electronic Dipole Moment: (a.u.)
     X:     0.3535      Y:    -0.5666      Z:     0.8300

  Dipole Moment: (a.u.)
     X:    -0.1618      Y:     0.2656      Z:    -0.4754     Total:     0.5681

  Dipole Moment: (Debye)
     X:    -0.4114      Y:     0.6750      Z:    -1.2084     Total:     1.4440

  Quadrupole Moment: (Debye Ang)
    XX:   -31.7697     YY:   -38.8738     ZZ:   -36.9290
    XY:    -0.3243     XZ:    -2.6730     YZ:    -0.8661

  Traceless Quadrupole Moment: (Debye Ang)
    XX:     4.0878     YY:    -3.0163     ZZ:    -1.0715
    XY:    -0.3243     XZ:    -2.6730     YZ:    -0.8661

  Mulliken Charges: (a.u.)
   Center  Symbol    Alpha    Beta     Spin     Total
       1     H     0.47016  0.47016  0.00000  0.05968
       2     C     3.03200  3.03200  0.00000 -0.06400
       3     O     4.17035  4.17035  0.00000 -0.34070
       4     H     0.44646  0.44646  0.00000  0.10708
       5     H     0.47375  0.47375  0.00000  0.05250
       6     C     2.96361  2.96361  0.00000  0.07279
       7     C     2.95848  2.95848  0.00000  0.08303
       8     H     0.47620  0.47620  0.00000  0.04760
       9     H     0.47119  0.47119  0.00000  0.05762
      10     O     4.17528  4.17528  0.00000 -0.35057
      11     H     0.47051  0.47051  0.00000  0.05898
      12     H     0.47620  0.47620  0.00000  0.04759
      13     C     3.02695  3.02695  0.00000 -0.05390
      14     H     0.47372  0.47372  0.00000  0.05256
      15     H     0.45914  0.45914  0.00000  0.08173
      16     H     0.45599  0.45599  0.00000  0.08802

   Total alpha = 25.00000, Total beta = 25.00000, Total charge =  0.00000


*** Psi4 exiting successfully. Buy a developer a beer!
