    -----------------------------------------------------------------------
          Psi4: An Open-Source Ab Initio Electronic Structure Package
                              Psi4 (no tag) Driver

                          Git: Rev {detached?}  

    J. M. Turney, A. C. Simmonett, R. M. Parrish, E. G. Hohenstein,
    F. A. Evangelista, J. T. Fermann, B. J. Mintz, L. A. Burns, J. J. Wilke,
    M. L. Abrams, N. J. Russ, M. L. Leininger, C. L. Janssen, E. T. Seidl,
    W. D. Allen, H. F. Schaefer, R. A. King, E. F. Valeev, C. D. Sherrill,
    and T. D. Crawford, WIREs Comput. Mol. Sci. 2, 556-565 (2012)
    (doi: 10.1002/wcms.93)

                         Additional Contributions by
    A. E. DePrince, M. Saitow, U. Bozkaya, A. Yu. Sokolov
    -----------------------------------------------------------------------


    Psi4 started on: Fri Sep  2 11:41:07 2016

    Process ID:   8098
    PSI4DATADIR: /export131/home/mjharvey/miniconda3/share
    Memory level set to 256.000 MB

  ==> Input File <==

--------------------------------------------------------------------------
set {
	reference rhf
	basis 6-31G*
}


set_num_threads( 4 )
memory 2 gb

molecule MOL {
0 1

H	 -2.509860	 2.447858	 0.466050
O	 -1.820772	 1.849829	 0.214210
C	 -2.306886	 0.532354	 0.237577
C	 -1.177863	 -0.397191	 -0.171080
H	 -2.661690	 0.272543	 1.234030
H	 -3.147003	 0.421758	 -0.446756
C	 0.198102	 0.111031	 0.262842
H	 -1.208843	 -0.518759	 -1.250427
H	 -1.368741	 -1.376554	 0.258909
C	 1.331804	 -0.827780	 -0.158768
H	 0.361943	 1.100838	 -0.156218
H	 0.217265	 0.229072	 1.345532
C	 2.723619	 -0.410569	 0.329459
H	 1.342964	 -0.912588	 -1.244120
H	 1.116806	 -1.824343	 0.220779
C	 3.243875	 0.895854	 -0.272975
H	 3.424222	 -1.207124	 0.091250
H	 2.714788	 -0.329854	 1.414619
H	 3.251977	 0.848779	 -1.358681
H	 2.637085	 1.747371	 0.016682
H	 4.259473	 1.094070	 0.055697

	symmetry c1
}
set optking {
	frozen_dihedral = ("
		2 3 4 8
	")
}

ee = optimize('scf')
oeprop('DIPOLE', 'QUADRUPOLE', 'MULLIKEN_CHARGES')
f=open( 'psi4out.xyz', 'w' )
f.write( "21  " )
f.write( str(ee) + "\n" )
f.write( MOL.save_string_xyz() )
f.close()
--------------------------------------------------------------------------

  Memory set to   2.000 GiB by Python script.
gradient() will perform analytic gradient computation.

*** tstart() called on cx1-1-1-4.cx1.hpc.ic.ac.uk
*** at Fri Sep  2 11:41:07 2016


         ---------------------------------------------------------
                                   SCF
            by Justin Turney, Rob Parrish, and Andy Simmonett
                              RHF Reference
                        4 Threads,   2000 MiB Core
         ---------------------------------------------------------

  ==> Geometry <==

    Molecular point group: c1
    Full point group: C1

    Geometry (in Angstrom), charge = 0, multiplicity = 1:

       Center              X                  Y                   Z               Mass       
    ------------   -----------------  -----------------  -----------------  -----------------
           H         -2.779437567843     2.149723068207     0.399418808511     1.007825032070
           O         -2.090349567843     1.551694068207     0.147578808511    15.994914619560
           C         -2.576463567843     0.234219068207     0.170945808511    12.000000000000
           C         -1.447440567843    -0.695325931793    -0.237711191489    12.000000000000
           H         -2.931267567843    -0.025591931793     1.167398808511     1.007825032070
           H         -3.416580567843     0.123623068207    -0.513387191489     1.007825032070
           C         -0.071475567843    -0.187103931793     0.196210808511    12.000000000000
           H         -1.478420567843    -0.816893931793    -1.317058191489     1.007825032070
           H         -1.638318567843    -1.674688931793     0.192277808511     1.007825032070
           C          1.062226432157    -1.125914931793    -0.225399191489    12.000000000000
           H          0.092365432157     0.802703068207    -0.222849191489     1.007825032070
           H         -0.052312567843    -0.069062931793     1.278900808511     1.007825032070
           C          2.454041432157    -0.708703931793     0.262827808511    12.000000000000
           H          1.073386432157    -1.210722931793    -1.310751191489     1.007825032070
           H          0.847228432157    -2.122477931793     0.154147808511     1.007825032070
           C          2.974297432157     0.597719068207    -0.339606191489    12.000000000000
           H          3.154644432157    -1.505258931793     0.024618808511     1.007825032070
           H          2.445210432157    -0.627988931793     1.347987808511     1.007825032070
           H          2.982399432157     0.550644068207    -1.425312191489     1.007825032070
           H          2.367507432157     1.449236068207    -0.049949191489     1.007825032070
           H          3.989895432157     0.795935068207    -0.010934191489     1.007825032070

  Running in c1 symmetry.

  Rotational constants: A =      0.17711  B =      0.03548  C =      0.03118 [cm^-1]
  Rotational constants: A =   5309.66330  B =   1063.55398  C =    934.67730 [MHz]
  Nuclear repulsion =  319.803633748935624

  Charge       = 0
  Multiplicity = 1
  Electrons    = 58
  Nalpha       = 29
  Nbeta        = 29

  ==> Algorithm <==

  SCF Algorithm Type is DF.
  DIIS enabled.
  MOM disabled.
  Fractional occupation disabled.
  Guess Type is CORE.
  Energy threshold   = 1.00e-08
  Density threshold  = 1.00e-08
  Integral threshold = 0.00e+00

  ==> Primary Basis <==

  Basis Set: 6-31G*
    Number of shells: 70
    Number of basis function: 133
    Number of Cartesian functions: 133
    Spherical Harmonics?: false
    Max angular momentum: 2

  ==> Pre-Iterations <==

   -------------------------------------------------------
    Irrep   Nso     Nmo     Nalpha   Nbeta   Ndocc  Nsocc
   -------------------------------------------------------
     A        133     133       0       0       0       0
   -------------------------------------------------------
    Total     133     133      29      29      29       0
   -------------------------------------------------------

 OEINTS: Overlap, kinetic, potential, dipole, and quadrupole integrals
         stored in file 35.

  ==> Integral Setup <==

  ==> DFJK: Density-Fitted J/K Matrices <==

    J tasked:                  Yes
    K tasked:                  Yes
    wK tasked:                  No
    OpenMP threads:              4
    Integrals threads:           4
    Memory (MB):              1430
    Algorithm:                Core
    Integral Cache:           NONE
    Schwarz Cutoff:          1E-12
    Fitting Condition:       1E-12

   => Auxiliary Basis Set <=

  Basis Set: 
    Number of shells: 294
    Number of basis function: 917
    Number of Cartesian functions: 917
    Spherical Harmonics?: false
    Max angular momentum: 3

  Minimum eigenvalue in the overlap matrix is 3.2031947741E-03.
  Using Symmetric Orthogonalization.
  SCF Guess: Core (One-Electron) Hamiltonian.

  ==> Iterations <==

                           Total Energy        Delta E     RMS |[F,P]|

   @DF-RHF iter   1:  -240.03546985039992   -2.40035e+02   6.63269e-02 
   @DF-RHF iter   2:   -92.53437265320304    1.47501e+02   7.39455e-02 DIIS
   @DF-RHF iter   3:  -217.42784042866896   -1.24893e+02   5.85401e-02 DIIS
   @DF-RHF iter   4:  -252.05123456050461   -3.46234e+01   5.53796e-02 DIIS
   @DF-RHF iter   5:  -287.54052929499375   -3.54893e+01   3.28375e-02 DIIS
   @DF-RHF iter   6:  -309.88711680576995   -2.23466e+01   5.79112e-03 DIIS
   @DF-RHF iter   7:  -310.17153301622210   -2.84416e-01   2.07829e-03 DIIS
   @DF-RHF iter   8:  -310.20307412704113   -3.15411e-02   6.15025e-04 DIIS
   @DF-RHF iter   9:  -310.20748817870600   -4.41405e-03   1.92295e-04 DIIS
   @DF-RHF iter  10:  -310.20793492561239   -4.46747e-04   6.46776e-05 DIIS
   @DF-RHF iter  11:  -310.20798829708752   -5.33715e-05   2.18059e-05 DIIS
   @DF-RHF iter  12:  -310.20799646373808   -8.16665e-06   6.30981e-06 DIIS
   @DF-RHF iter  13:  -310.20799702117694   -5.57439e-07   1.72154e-06 DIIS
   @DF-RHF iter  14:  -310.20799707055454   -4.93776e-08   3.62421e-07 DIIS
   @DF-RHF iter  15:  -310.20799707290377   -2.34922e-09   1.04900e-07 DIIS
   @DF-RHF iter  16:  -310.20799707312341   -2.19643e-10   2.44853e-08 DIIS
   @DF-RHF iter  17:  -310.20799707313455   -1.11413e-11   6.94576e-09 DIIS

  ==> Post-Iterations <==

    Orbital Energies (a.u.)
    -----------------------

    Doubly Occupied:                                                      

       1A    -20.553373     2A    -11.267655     3A    -11.210669  
       4A    -11.208670     5A    -11.205291     6A    -11.201555  
       7A    -11.201279     8A     -1.361352     9A     -1.077509  
      10A     -1.027893    11A     -0.951560    12A     -0.873561  
      13A     -0.798956    14A     -0.770368    15A     -0.701782  
      16A     -0.650543    17A     -0.618732    18A     -0.600311  
      19A     -0.582671    20A     -0.563103    21A     -0.534272  
      22A     -0.516468    23A     -0.498249    24A     -0.493725  
      25A     -0.477733    26A     -0.455145    27A     -0.443744  
      28A     -0.436766    29A     -0.427314  

    Virtual:                                                              

      30A      0.221704    31A      0.241375    32A      0.262745  
      33A      0.276112    34A      0.290478    35A      0.299774  
      36A      0.305519    37A      0.320509    38A      0.339382  
      39A      0.344576    40A      0.348257    41A      0.359784  
      42A      0.375718    43A      0.386604    44A      0.393700  
      45A      0.416604    46A      0.435841    47A      0.457372  
      48A      0.484245    49A      0.495701    50A      0.713431  
      51A      0.721498    52A      0.734481    53A      0.747820  
      54A      0.773431    55A      0.790719    56A      0.807245  
      57A      0.829360    58A      0.882014    59A      0.938271  
      60A      0.947425    61A      0.953453    62A      0.981571  
      63A      0.997516    64A      1.050138    65A      1.072958  
      66A      1.101576    67A      1.124969    68A      1.130481  
      69A      1.148152    70A      1.163203    71A      1.176339  
      72A      1.183155    73A      1.198445    74A      1.204979  
      75A      1.209846    76A      1.213575    77A      1.236364  
      78A      1.250434    79A      1.255009    80A      1.270078  
      81A      1.284417    82A      1.294184    83A      1.344949  
      84A      1.400676    85A      1.452187    86A      1.511386  
      87A      1.670517    88A      1.676974    89A      1.696369  
      90A      1.743032    91A      1.784727    92A      1.842573  
      93A      1.893334    94A      1.946284    95A      1.971697  
      96A      2.029846    97A      2.075837    98A      2.130172  
      99A      2.158782   100A      2.184215   101A      2.250892  
     102A      2.272411   103A      2.282211   104A      2.306423  
     105A      2.333777   106A      2.360243   107A      2.375453  
     108A      2.410880   109A      2.473710   110A      2.527561  
     111A      2.594082   112A      2.628248   113A      2.665585  
     114A      2.689612   115A      2.707007   116A      2.748724  
     117A      2.764492   118A      2.799994   119A      2.822388  
     120A      2.870610   121A      2.960390   122A      2.994188  
     123A      3.015548   124A      3.111285   125A      3.157749  
     126A      3.249372   127A      4.227883   128A      4.567020  
     129A      4.641842   130A      4.740404   131A      4.837914  
     132A      4.905532   133A      5.013438  

    Final Occupation by Irrep:
              A 
    DOCC [    29 ]

  Energy converged.

  @DF-RHF Final Energy:  -310.20799707313455

   => Energetics <=

    Nuclear Repulsion Energy =            319.8036337489356242
    One-Electron Energy =               -1054.6027654404063014
    Two-Electron Energy =                 424.5911346183359001
    DFT Exchange-Correlation Energy =       0.0000000000000000
    Empirical Dispersion Energy =           0.0000000000000000
    PCM Polarization Energy =               0.0000000000000000
    EFP Energy =                            0.0000000000000000
    Total Energy =                       -310.2079970731347203

    Alert: EFP and PCM quantities not currently incorporated into SCF psivars.

Properties will be evaluated at   0.000000,   0.000000,   0.000000 Bohr
  ==> Properties <==


Properties computed using the SCF density matrix

  Nuclear Dipole Moment: (a.u.)
     X:     4.3551      Y:    -2.0370      Z:    -0.2669

  Electronic Dipole Moment: (a.u.)
     X:    -5.0147      Y:     1.9495      Z:     0.4371

  Dipole Moment: (a.u.)
     X:    -0.6596      Y:    -0.0875      Z:     0.1702     Total:     0.6868

  Dipole Moment: (Debye)
     X:    -1.6764      Y:    -0.2223      Z:     0.4325     Total:     1.7456


  Saving occupied orbitals to File 180.

*** tstop() called on cx1-1-1-4.cx1.hpc.ic.ac.uk at Fri Sep  2 11:41:14 2016
Module time:
	user time   =      19.98 seconds =       0.33 minutes
	system time =       0.20 seconds =       0.00 minutes
	total time  =          7 seconds =       0.12 minutes
Total time:
	user time   =      19.98 seconds =       0.33 minutes
	system time =       0.20 seconds =       0.00 minutes
	total time  =          7 seconds =       0.12 minutes

*** tstart() called on cx1-1-1-4.cx1.hpc.ic.ac.uk
*** at Fri Sep  2 11:41:14 2016


         ------------------------------------------------------------
                                   SCF GRAD                          
                          Rob Parrish, Justin Turney,                
                       Andy Simmonett, and Alex Sokolov              
         ------------------------------------------------------------

  ==> Geometry <==

    Molecular point group: c1
    Full point group: C1

    Geometry (in Angstrom), charge = 0, multiplicity = 1:

       Center              X                  Y                   Z               Mass       
    ------------   -----------------  -----------------  -----------------  -----------------
           H         -2.779437567843     2.149723068207     0.399418808511     1.007825032070
           O         -2.090349567843     1.551694068207     0.147578808511    15.994914619560
           C         -2.576463567843     0.234219068207     0.170945808511    12.000000000000
           C         -1.447440567843    -0.695325931793    -0.237711191489    12.000000000000
           H         -2.931267567843    -0.025591931793     1.167398808511     1.007825032070
           H         -3.416580567843     0.123623068207    -0.513387191489     1.007825032070
           C         -0.071475567843    -0.187103931793     0.196210808511    12.000000000000
           H         -1.478420567843    -0.816893931793    -1.317058191489     1.007825032070
           H         -1.638318567843    -1.674688931793     0.192277808511     1.007825032070
           C          1.062226432157    -1.125914931793    -0.225399191489    12.000000000000
           H          0.092365432157     0.802703068207    -0.222849191489     1.007825032070
           H         -0.052312567843    -0.069062931793     1.278900808511     1.007825032070
           C          2.454041432157    -0.708703931793     0.262827808511    12.000000000000
           H          1.073386432157    -1.210722931793    -1.310751191489     1.007825032070
           H          0.847228432157    -2.122477931793     0.154147808511     1.007825032070
           C          2.974297432157     0.597719068207    -0.339606191489    12.000000000000
           H          3.154644432157    -1.505258931793     0.024618808511     1.007825032070
           H          2.445210432157    -0.627988931793     1.347987808511     1.007825032070
           H          2.982399432157     0.550644068207    -1.425312191489     1.007825032070
           H          2.367507432157     1.449236068207    -0.049949191489     1.007825032070
           H          3.989895432157     0.795935068207    -0.010934191489     1.007825032070

  Nuclear repulsion =  319.803633748935624

  ==> Basis Set <==

  Basis Set: 6-31G*
    Number of shells: 70
    Number of basis function: 133
    Number of Cartesian functions: 133
    Spherical Harmonics?: false
    Max angular momentum: 2

  ==> DFJKGrad: Density-Fitted SCF Gradients <==

    Gradient:                    1
    J tasked:                  Yes
    K tasked:                  Yes
    wK tasked:                  No
    OpenMP threads:              4
    Integrals threads:           4
    Memory (MB):              1430
    Schwarz Cutoff:          0E+00
    Fitting Condition:       1E-12

   => Auxiliary Basis Set <=

  Basis Set: 
    Number of shells: 294
    Number of basis function: 917
    Number of Cartesian functions: 917
    Spherical Harmonics?: false
    Max angular momentum: 3


  -Total Gradient:
     Atom            X                  Y                   Z
    ------   -----------------  -----------------  -----------------
       1        0.000416193665    -0.000068191940     0.000237394828
       2        0.006746003590    -0.003999319572     0.001034520660
       3        0.002057207490    -0.002353094874    -0.003684837745
       4       -0.001809827118     0.001170496905     0.003806994924
       5       -0.000750317173    -0.002167848331    -0.000588684314
       6        0.000122283549     0.000152290731    -0.001612664531
       7       -0.005712848889    -0.001054445154     0.000756294190
       8       -0.003893257572     0.000173590432     0.000527803829
       9       -0.000375562609     0.001381495958     0.001228498446
      10        0.002041941102     0.001272681299    -0.000700361904
      11        0.001451582533     0.004567009656    -0.001927051166
      12        0.000625998803    -0.000235596373     0.000352888548
      13        0.000170539395    -0.000047567521     0.000114408119
      14       -0.000277921278     0.000131505008     0.000389457251
      15       -0.000821149125     0.001022622841     0.000105989992
      16        0.000252445729    -0.000346660568    -0.000179218514
      17       -0.000180776393     0.000109299999     0.000018134951
      18        0.000059936139    -0.000066306739    -0.000005444951
      19        0.000017991463     0.000031890426     0.000033092202
      20        0.000049660796     0.000258805744     0.000107234286
      21       -0.000190124090     0.000067342071    -0.000014449103


*** tstop() called on cx1-1-1-4.cx1.hpc.ic.ac.uk at Fri Sep  2 11:41:20 2016
Module time:
	user time   =      22.78 seconds =       0.38 minutes
	system time =       0.20 seconds =       0.00 minutes
	total time  =          6 seconds =       0.10 minutes
Total time:
	user time   =      42.78 seconds =       0.71 minutes
	system time =       0.40 seconds =       0.01 minutes
	total time  =         13 seconds =       0.22 minutes
CURRENT ENERGY: -310.2079970731

			-----------------------------------------
			 OPTKING 2.0: for geometry optimizations 
			  - R.A. King,  Bethel University        
			-----------------------------------------

	Internal coordinates to be generated automatically.
	Detected frag with atoms:  1 2 3 4 5 6 7 8 9 10 11 12 13 14 15 16 17 18 19 20
	 21
	---Fragment 1 Bond Connectivity---
	 1 : 2
	 2 : 1 3
	 3 : 2 4 5 6
	 4 : 3 7 8 9
	 5 : 3
	 6 : 3
	 7 : 4 10 11 12
	 8 : 4
	 9 : 4
	 10 : 7 13 14 15
	 11 : 7
	 12 : 7
	 13 : 10 16 17 18
	 14 : 10
	 15 : 10
	 16 : 13 19 20 21
	 17 : 13
	 18 : 13
	 19 : 16
	 20 : 16
	 21 : 16

	Assuming in current code that numbering for constraints corresponds to unified fragment.
	Frozen dihedral atom list: 
	     2     3     4     8
	---Fragment 1 Geometry and Gradient---
	 H          -5.2523758067        4.0623878605        0.7547921604
	 O          -3.9501882052        2.9322768309        0.2788835311
	 C          -4.8688105346        0.4426098940        0.3230407617
	 C          -2.7352662669       -1.3139755842       -0.4492090506
	 H          -5.5392929254       -0.0483617423        2.2060640359
	 H          -6.4564015842        0.2336137426       -0.9701611920
	 C          -0.1350692484       -0.3535751895        0.3707846924
	 H          -2.7938099824       -1.5437058107       -2.4888792830
	 H          -3.0959734116       -3.1647034389        0.3633523995
	 C           2.0073170479       -2.1276708700       -0.4259427425
	 H           0.1745453709        1.5168889649       -0.4211239408
	 H          -0.0988564265       -0.1305100270        2.4167722792
	 C           4.6374662255       -1.3392563404        0.4966725782
	 H           2.0284063915       -2.2879347639       -2.4769607803
	 H           1.6010297088       -4.0109020142        0.2912971421
	 C           5.6206075845        1.1295253433       -0.6417626949
	 H           5.9614140234       -2.8445271402        0.0465228058
	 H           4.6207780541       -1.1867270956        2.5473277886
	 H           5.6359181456        1.0405664856       -2.6934496958
	 H           4.4739406643        2.7386592708       -0.0943902925
	 H           7.5398096656        1.5040992985       -0.0206626274
	             0.0004161937       -0.0000681919        0.0002373948
	             0.0067460036       -0.0039993196        0.0010345207
	             0.0020572075       -0.0023530949       -0.0036848377
	            -0.0018098271        0.0011704969        0.0038069949
	            -0.0007503172       -0.0021678483       -0.0005886843
	             0.0001222835        0.0001522907       -0.0016126645
	            -0.0057128489       -0.0010544452        0.0007562942
	            -0.0038932576        0.0001735904        0.0005278038
	            -0.0003755626        0.0013814960        0.0012284984
	             0.0020419411        0.0012726813       -0.0007003619
	             0.0014515825        0.0045670097       -0.0019270512
	             0.0006259988       -0.0002355964        0.0003528885
	             0.0001705394       -0.0000475675        0.0001144081
	            -0.0002779213        0.0001315050        0.0003894573
	            -0.0008211491        0.0010226228        0.0001059900
	             0.0002524457       -0.0003466606       -0.0001792185
	            -0.0001807764        0.0001093000        0.0000181350
	             0.0000599361       -0.0000663067       -0.0000054450
	             0.0000179915        0.0000318904        0.0000330922
	             0.0000496608        0.0002588057        0.0001072343
	            -0.0001901241        0.0000673421       -0.0000144491

	Previous optimization step data not found.  Starting new optimization.

	---Fragment 1 Intrafragment Coordinates---
	 - Coordinate -           - BOHR/RAD -       - ANG/DEG -
	 R(1,2)           =         1.788668	       0.946522
	 R(2,3)           =         2.654102	       1.404490
	 R(3,4)           =         2.869490	       1.518469
	 R(3,5)           =         2.058246	       1.089177
	 R(3,6)           =         2.058275	       1.089192
	 R(4,7)           =         2.890637	       1.529659
	 R(4,8)           =         2.053402	       1.086613
	 R(4,9)           =         2.053183	       1.086498
	 R(7,10)          =         2.893442	       1.531144
	 R(7,11)          =         2.054657	       1.087278
	 R(7,12)          =         2.058430	       1.089274
	 R(10,13)         =         2.896636	       1.532834
	 R(10,14)         =         2.057378	       1.088718
	 R(10,15)         =         2.055739	       1.087850
	 R(13,16)         =         2.890931	       1.529815
	 R(13,17)         =         2.054583	       1.087239
	 R(13,18)         =         2.056388	       1.088194
	 R(16,19)         =         2.053672	       1.086756
	 R(16,20)         =         2.050311	       1.084978
	 R(16,21)         =         2.051684	       1.085705
	 B(1,2,3)         =         1.913747	     109.649652
	 B(2,3,4)         =         1.888525	     108.204540
	 B(2,3,5)         =         1.930214	     110.593123
	 B(2,3,6)         =         1.930248	     110.595039
	 B(3,4,7)         =         1.970440	     112.897910
	 B(3,4,8)         =         1.890846	     108.337479
	 B(3,4,9)         =         1.890900	     108.340593
	 B(4,3,5)         =         1.920263	     110.022960
	 B(4,3,6)         =         1.920108	     110.014060
	 B(4,7,10)        =         1.965146	     112.594569
	 B(4,7,11)        =         1.905697	     109.188416
	 B(4,7,12)        =         1.911114	     109.498777
	 B(5,3,6)         =         1.874780	     107.416996
	 B(7,4,8)         =         1.922601	     110.156906
	 B(7,4,9)         =         1.923300	     110.196987
	 B(7,10,13)       =         2.001729	     114.690605
	 B(7,10,14)       =         1.906948	     109.260096
	 B(7,10,15)       =         1.895772	     108.619733
	 B(8,4,9)         =         1.862157	     106.693725
	 B(10,7,11)       =         1.918218	     109.905795
	 B(10,7,12)       =         1.904040	     109.093468
	 B(10,13,16)      =         1.999618	     114.569665
	 B(10,13,17)      =         1.892210	     108.415628
	 B(10,13,18)      =         1.907571	     109.295775
	 B(11,7,12)       =         1.856454	     106.366983
	 B(13,10,14)      =         1.906488	     109.233743
	 B(13,10,15)      =         1.894065	     108.521957
	 B(13,16,19)      =         1.937948	     111.036247
	 B(13,16,20)      =         1.955080	     112.017810
	 B(13,16,21)      =         1.933512	     110.782102
	 B(14,10,15)      =         1.853011	     106.169707
	 B(16,13,17)      =         1.896775	     108.677176
	 B(16,13,18)      =         1.909342	     109.397210
	 B(17,13,18)      =         1.852567	     106.144242
	 B(19,16,20)      =         1.880607	     107.750832
	 B(19,16,21)      =         1.879023	     107.660061
	 B(20,16,21)      =         1.874491	     107.400442
	 D(1,2,3,4)       =         3.141264	     179.981172
	 D(1,2,3,5)       =        -1.037555	     -59.447512
	 D(1,2,3,6)       =         1.037068	      59.419619
	 D(2,3,4,7)       =         0.563412	      32.281125
	*D(2,3,4,8)       =        -1.570796	     -89.999991
	 D(2,3,4,9)       =         2.698547	     154.615356
	 D(3,4,7,10)      =        -3.136579	    -179.712732
	 D(3,4,7,11)      =        -1.000923	     -57.348658
	 D(3,4,7,12)      =         1.025189	      58.739027
	 D(4,7,10,13)     =        -3.076481	    -176.269359
	 D(4,7,10,14)     =         1.059867	      60.725880
	 D(4,7,10,15)     =        -0.954328	     -54.678976
	 D(5,3,4,7)       =        -1.547145	     -88.644873
	 D(5,3,4,8)       =         2.601832	     149.074011
	 D(5,3,4,9)       =         0.587990	      33.689358
	 D(6,3,4,7)       =         2.673916	     153.204111
	 D(6,3,4,8)       =         0.539708	      30.922995
	 D(6,3,4,9)       =        -1.474134	     -84.461658
	 D(7,10,13,16)    =        -1.150635	     -65.926518
	 D(7,10,13,17)    =         3.010976	     172.516243
	 D(7,10,13,18)    =         0.998919	      57.233861
	 D(8,4,7,10)      =        -1.020276	     -58.457537
	 D(8,4,7,11)      =         1.115379	      63.906537
	 D(8,4,7,12)      =         3.141492	     179.994222
	 D(9,4,7,10)      =         1.029732	      58.999320
	 D(9,4,7,11)      =        -3.117797	    -178.636605
	 D(9,4,7,12)      =        -1.091685	     -62.548921
	 D(10,13,16,19)   =        -0.980489	     -56.177906
	 D(10,13,16,20)   =         1.123016	      64.344091
	 D(10,13,16,21)   =        -3.067516	    -175.755712
	 D(11,7,10,13)    =         1.078118	      61.771632
	 D(11,7,10,14)    =        -1.068720	     -61.233129
	 D(11,7,10,15)    =        -3.082914	    -176.637985
	 D(12,7,10,13)    =        -0.951048	     -54.491021
	 D(12,7,10,14)    =        -3.097886	    -177.495783
	 D(12,7,10,15)    =         1.171105	      67.099361
	 D(14,10,13,16)   =         0.996450	      57.092406
	 D(14,10,13,17)   =        -1.125124	     -64.464834
	 D(14,10,13,18)   =        -3.137181	    -179.747216
	 D(15,10,13,16)   =         3.009467	     172.429738
	 D(15,10,13,17)   =         0.887893	      50.872498
	 D(15,10,13,18)   =        -1.124165	     -64.409884
	 D(17,13,16,19)   =         1.138584	      65.236060
	 D(17,13,16,20)   =        -3.041096	    -174.241943
	 D(17,13,16,21)   =        -0.948442	     -54.341746
	 D(18,13,16,19)   =        -3.129091	    -179.283720
	 D(18,13,16,20)   =        -1.025586	     -58.761724
	 D(18,13,16,21)   =         1.067068	      61.138473

	Current energy   :      -310.2079970731

	Generating empirical Hessian (Schlegel '84) for each fragment.
	Taking RFO optimization step.
	Going to follow RFO solution 1.
	Using RFO vector 1.
	Norm of target step-size    0.32181
	Projected energy change by RFO approximation:        -0.0032270588

	Back-transformation to cartesian coordinates...
	Successfully converged to displaced geometry.

	Back-transformation to cartesian coordinates to adjust frozen coordinates...
	Successfully converged to displaced geometry.

	--- Internal Coordinate Step in ANG or DEG, aJ/ANG or AJ/DEG ---
	 ---------------------------------------------------------------------------
	   Coordinate                Previous        Force       Change         New 
	   ----------                --------       ------       ------       ------
	    1 R(1,2)          =      0.946522     0.002331     0.000254     0.946776
	    2 R(2,3)          =      1.404490     0.011186     0.001586     1.406076
	    3 R(3,4)          =      1.518469     0.105406     0.021878     1.540347
	    4 R(3,5)          =      1.089177    -0.001837    -0.000334     1.088843
	    5 R(3,6)          =      1.089192    -0.007443    -0.001353     1.087839
	    6 R(4,7)          =      1.529659     0.005208     0.001119     1.530779
	    7 R(4,8)          =      1.086613     0.003565     0.000643     1.087256
	    8 R(4,9)          =      1.086498     0.005710     0.001029     1.087526
	    9 R(7,10)         =      1.531144     0.005148     0.001112     1.532255
	   10 R(7,11)         =      1.087278    -0.042174    -0.007618     1.079660
	   11 R(7,12)         =      1.089274    -0.002770    -0.000504     1.088771
	   12 R(10,13)        =      1.532834    -0.001553    -0.000337     1.532497
	   13 R(10,14)        =      1.088718     0.003307     0.000600     1.089318
	   14 R(10,15)        =      1.087850     0.006076     0.001100     1.088950
	   15 R(13,16)        =      1.529815    -0.000617    -0.000133     1.529682
	   16 R(13,17)        =      1.087239     0.001652     0.000298     1.087537
	   17 R(13,18)        =      1.088194     0.000089     0.000016     1.088210
	   18 R(16,19)        =      1.086756     0.000283     0.000051     1.086807
	   19 R(16,20)        =      1.084978    -0.001680    -0.000301     1.084676
	   20 R(16,21)        =      1.085705     0.001400     0.000252     1.085956
	   21 B(1,2,3)        =    109.649652    -0.000025    -0.113432   109.536220
	   22 B(2,3,4)        =    108.204540     0.001018     3.672031   111.876571
	   23 B(2,3,5)        =    110.593123    -0.000376    -1.945588   108.647535
	   24 B(2,3,6)        =    110.595039    -0.000373    -0.534001   110.061038
	   25 B(3,4,7)        =    112.897910     0.000784     3.321489   116.219398
	   26 B(3,4,8)        =    108.337479    -0.000057     1.644181   109.981660
	   27 B(3,4,9)        =    108.340593    -0.000251    -1.667700   106.672894
	   28 B(4,3,5)        =    110.022960    -0.000156    -0.492309   109.530651
	   29 B(4,3,6)        =    110.014060    -0.000207    -0.160286   109.853775
	   30 B(4,7,10)       =    112.594569    -0.000165    -0.606022   111.988547
	   31 B(4,7,11)       =    109.188416     0.000012    -0.031949   109.156468
	   32 B(4,7,12)       =    109.498777     0.000028    -0.210693   109.288084
	   33 B(5,3,6)        =    107.416996     0.000073    -0.689658   106.727338
	   34 B(7,4,8)        =    110.156906    -0.000241     0.694516   110.851422
	   35 B(7,4,9)        =    110.196987    -0.000321    -2.267498   107.929489
	   36 B(7,10,13)      =    114.690605    -0.000081    -0.270624   114.419981
	   37 B(7,10,14)      =    109.260096     0.000026     0.039823   109.299919
	   38 B(7,10,15)      =    108.619733     0.000088     0.650954   109.270687
	   39 B(8,4,9)        =    106.693725     0.000050    -2.285476   104.408248
	   40 B(10,7,11)      =    109.905795     0.000108     0.707979   110.613774
	   41 B(10,7,12)      =    109.093468     0.000053     0.102575   109.196043
	   42 B(10,13,16)     =    114.569665    -0.000021    -0.081510   114.488155
	   43 B(10,13,17)     =    108.415628     0.000012     0.101618   108.517246
	   44 B(10,13,18)     =    109.295775     0.000003    -0.046898   109.248877
	   45 B(11,7,12)      =    106.366983    -0.000028     0.068993   106.435976
	   46 B(13,10,14)     =    109.233743     0.000012    -0.190636   109.043108
	   47 B(13,10,15)     =    108.521957    -0.000020    -0.134577   108.387380
	   48 B(13,16,19)     =    111.036247    -0.000003    -0.030767   111.005480
	   49 B(13,16,20)     =    112.017810    -0.000012    -0.051292   111.966518
	   50 B(13,16,21)     =    110.782102    -0.000002     0.006182   110.788285
	   51 B(14,10,15)     =    106.169707    -0.000021    -0.081528   106.088179
	   52 B(16,13,17)     =    108.677176     0.000005     0.051657   108.728833
	   53 B(16,13,18)     =    109.397210     0.000004    -0.045645   109.351565
	   54 B(17,13,18)     =    106.144242    -0.000002     0.031166   106.175408
	   55 B(19,16,20)     =    107.750832     0.000003    -0.014105   107.736727
	   56 B(19,16,21)     =    107.660061     0.000002     0.003756   107.663817
	   57 B(20,16,21)     =    107.400442     0.000012     0.091324   107.491766
	   58 D(1,2,3,4)      =    179.981172    -0.000008    -0.828924   179.152247
	   59 D(1,2,3,5)      =    -59.447512     0.000043    -0.355217   -59.802729
	   60 D(1,2,3,6)      =     59.419619    -0.000045    -2.695469    56.724150
	   61 D(2,3,4,7)      =     32.281125     0.000039     4.678697    36.959822
	   62 *D(2,3,4,8)     =    -89.999991     0.000000    -0.000000   -89.999991
	   63 D(2,3,4,9)      =    154.615356     0.000023     2.723053   157.338408
	   64 D(3,4,7,10)     =   -179.712732    -0.000033    -5.995866  -185.708598
	   65 D(3,4,7,11)     =    -57.348658    -0.000025    -5.525416   -62.874073
	   66 D(3,4,7,12)     =     58.739027    -0.000028    -5.578494    53.160532
	   67 D(4,7,10,13)    =   -176.269359     0.000000    -0.291082  -176.560440
	   68 D(4,7,10,14)    =     60.725880     0.000005     0.120156    60.846036
	   69 D(4,7,10,15)    =    -54.678976    -0.000003    -0.163608   -54.842583
	   70 D(5,3,4,7)      =    -88.644873     0.000021     5.072589   -83.572283
	   71 D(5,3,4,8)      =    149.074011    -0.000018     0.393892   149.467904
	   72 D(5,3,4,9)      =     33.689358     0.000005     3.116945    36.806303
	   73 D(6,3,4,7)      =    153.204111     0.000051     6.302007   159.506117
	   74 D(6,3,4,8)      =     30.922995     0.000012     1.623310    32.546304
	   75 D(6,3,4,9)      =    -84.461658     0.000035     4.346362   -80.115296
	   76 D(7,10,13,16)   =    -65.926518     0.000005     0.480056   -65.446461
	   77 D(7,10,13,17)   =    172.516243     0.000005     0.393002   172.909245
	   78 D(7,10,13,18)   =     57.233861     0.000004     0.325741    57.559601
	   79 D(8,4,7,10)     =    -58.457537     0.000034    -0.724916   -59.182453
	   80 D(8,4,7,11)     =     63.906537     0.000042    -0.254465    63.652072
	   81 D(8,4,7,12)     =    179.994222     0.000039    -0.307544   179.686677
	   82 D(9,4,7,10)     =     58.999320    -0.000030    -4.409632    54.589688
	   83 D(9,4,7,11)     =   -178.636605    -0.000022    -3.939181  -182.575787
	   84 D(9,4,7,12)     =    -62.548921    -0.000025    -3.992260   -66.541181
	   85 D(10,13,16,19)  =    -56.177906    -0.000001    -0.192795   -56.370701
	   86 D(10,13,16,20)  =     64.344091    -0.000002    -0.267252    64.076839
	   87 D(10,13,16,21)  =   -175.755712    -0.000001    -0.181437  -175.937149
	   88 D(11,7,10,13)   =     61.771632     0.000005    -0.336600    61.435031
	   89 D(11,7,10,14)   =    -61.233129     0.000010     0.074637   -61.158492
	   90 D(11,7,10,15)   =   -176.637985     0.000002    -0.209126  -176.847112
	   91 D(12,7,10,13)   =    -54.491021    -0.000008    -0.885411   -55.376433
	   92 D(12,7,10,14)   =   -177.495783    -0.000003    -0.474174  -177.969956
	   93 D(12,7,10,15)   =     67.099361    -0.000012    -0.757937    66.341424
	   94 D(14,10,13,16)  =     57.092406     0.000002     0.193934    57.286340
	   95 D(14,10,13,17)  =    -64.464834     0.000002     0.106880   -64.357954
	   96 D(14,10,13,18)  =   -179.747216     0.000000     0.039619  -179.707598
	   97 D(15,10,13,16)  =    172.429738    -0.000005    -0.076851   172.352887
	   98 D(15,10,13,17)  =     50.872498    -0.000005    -0.163905    50.708593
	   99 D(15,10,13,18)  =    -64.409884    -0.000006    -0.231166   -64.641050
	  100 D(17,13,16,19)  =     65.236060     0.000000    -0.078429    65.157632
	  101 D(17,13,16,20)  =   -174.241943    -0.000001    -0.152886  -174.394829
	  102 D(17,13,16,21)  =    -54.341746     0.000001    -0.067071   -54.408817
	  103 D(18,13,16,19)  =   -179.283720     0.000001    -0.037622  -179.321342
	  104 D(18,13,16,20)  =    -58.761724    -0.000000    -0.112079   -58.873803
	  105 D(18,13,16,21)  =     61.138473     0.000001    -0.026264    61.112209
	 ---------------------------------------------------------------------------

  ==> Convergence Check <==

  Measures of convergence in internal coordinates in au.
  Criteria marked as inactive (o), active & met (*), and active & unmet ( ).
  --------------------------------------------------------------------------------------------- ~
   Step     Total Energy     Delta E     MAX Force     RMS Force      MAX Disp      RMS Disp    ~
  --------------------------------------------------------------------------------------------- ~
    Convergence Criteria    1.00e-06 *    3.00e-04 *             o    1.20e-03 *             o  ~
  --------------------------------------------------------------------------------------------- ~
      1    -310.20799707   -3.10e+02      1.34e-02      2.50e-03 o    1.10e-01      3.14e-02 o  ~
  ---------------------------------------------------------------------------------------------

	Writing optimization data to binary file.
	Structure for next step:
	Cartesian Geometry (in Angstrom)
	    H    -3.0714122356   2.1038837049   0.4548996822
	    O    -2.3104222300   1.6119279529   0.1805651749
	    C    -2.6122120373   0.2386236480   0.1833930760
	    C    -1.4139450008  -0.6132895346  -0.2760302775
	    H    -2.9002700118  -0.0524575878   1.1922902536
	    H    -3.4706479233   0.0438961359  -0.4557966720
	    C    -0.0310929877  -0.1316661603   0.1701119135
	    H    -1.4469023928  -0.7500080547  -1.3541523832
	    H    -1.5673765032  -1.6112093128   0.1281089666
	    C     1.0735229457  -1.1199563488  -0.2183632271
	    H     0.1607533488   0.8405476880  -0.2584449990
	    H    -0.0281239662   0.0019474506   1.2506489605
	    C     2.4720242065  -0.7328646970   0.2744867534
	    H     1.0957105579  -1.2273454592  -1.3021475218
	    H     0.8301760787  -2.1047669087   0.1775435782
	    C     3.0317305396   0.5475392988  -0.3477855278
	    H     3.1533765926  -1.5526423739   0.0589396155
	    H     2.4548822275  -0.6297466740   1.3576641748
	    H     3.0497393918   0.4780544875  -1.4322198142
	    H     2.4427384935   1.4187978150  -0.0822294523
	    H     4.0488873601   0.7264961704  -0.0121263191
			--------------------------
			 OPTKING Finished Execution 
			--------------------------

    Structure for next step:
    Molecular point group: c1
    Full point group: C1

    Geometry (in Angstrom), charge = 0, multiplicity = 1:

    H           -3.052549336577     2.087129918936     0.454520746844
    O           -2.291559389091     1.595174204485     0.180186260537
    C           -2.593349173323     0.221870004475     0.183014161388
    C           -1.395082228386    -0.630043113119    -0.276409157021
    H           -2.881407125823    -0.069211209136     1.191911262023
    H           -3.451784993806     0.027142507225    -0.456175537819
    C           -0.012230320901    -0.148419775582     0.169732999894
    H           -1.428039617813    -0.766761622802    -1.354531180325
    H           -1.548513719052    -1.627962815072     0.127730056215
    C            1.092385528130    -1.136709888615    -0.218742111038
    H            0.179616001000     0.823793998466    -0.258823879798
    H           -0.009261299555    -0.014806174844     1.250269964424
    C            2.490886682226    -0.749618266329     0.274107831814
    H            1.114573138648    -1.244098990803    -1.302526322893
    H            0.849038679745    -2.121520373273     0.177164664084
    C            3.050592972532     0.530785631612    -0.348164401851
    H            3.172239016285    -1.569395880629     0.058560710377
    H            2.473744704477    -0.646500251291     1.357285170592
    H            3.068601823409     0.461300825639    -1.432598605456
    H            2.461600971424     1.402044081294    -0.082608346597
    H            4.067749715344     0.709742489549    -0.012505218757

gradient() will perform analytic gradient computation.

*** tstart() called on cx1-1-1-4.cx1.hpc.ic.ac.uk
*** at Fri Sep  2 11:41:22 2016


         ---------------------------------------------------------
                                   SCF
            by Justin Turney, Rob Parrish, and Andy Simmonett
                              RHF Reference
                        4 Threads,   2000 MiB Core
         ---------------------------------------------------------

  ==> Geometry <==

    Molecular point group: c1
    Full point group: C1

    Geometry (in Angstrom), charge = 0, multiplicity = 1:

       Center              X                  Y                   Z               Mass       
    ------------   -----------------  -----------------  -----------------  -----------------
           H         -3.052549336577     2.087129918936     0.454520746844     1.007825032070
           O         -2.291559389091     1.595174204485     0.180186260537    15.994914619560
           C         -2.593349173323     0.221870004475     0.183014161388    12.000000000000
           C         -1.395082228386    -0.630043113119    -0.276409157021    12.000000000000
           H         -2.881407125823    -0.069211209136     1.191911262023     1.007825032070
           H         -3.451784993806     0.027142507225    -0.456175537819     1.007825032070
           C         -0.012230320901    -0.148419775582     0.169732999894    12.000000000000
           H         -1.428039617813    -0.766761622802    -1.354531180325     1.007825032070
           H         -1.548513719052    -1.627962815072     0.127730056215     1.007825032070
           C          1.092385528130    -1.136709888615    -0.218742111038    12.000000000000
           H          0.179616001000     0.823793998466    -0.258823879798     1.007825032070
           H         -0.009261299555    -0.014806174844     1.250269964424     1.007825032070
           C          2.490886682226    -0.749618266329     0.274107831814    12.000000000000
           H          1.114573138648    -1.244098990803    -1.302526322893     1.007825032070
           H          0.849038679745    -2.121520373273     0.177164664084     1.007825032070
           C          3.050592972532     0.530785631612    -0.348164401851    12.000000000000
           H          3.172239016285    -1.569395880629     0.058560710377     1.007825032070
           H          2.473744704477    -0.646500251291     1.357285170592     1.007825032070
           H          3.068601823409     0.461300825639    -1.432598605456     1.007825032070
           H          2.461600971424     1.402044081294    -0.082608346597     1.007825032070
           H          4.067749715344     0.709742489549    -0.012505218757     1.007825032070

  Running in c1 symmetry.

  Rotational constants: A =      0.18273  B =      0.03342  C =      0.02977 [cm^-1]
  Rotational constants: A =   5477.99132  B =   1001.85931  C =    892.48749 [MHz]
  Nuclear repulsion =  316.655326365372900

  Charge       = 0
  Multiplicity = 1
  Electrons    = 58
  Nalpha       = 29
  Nbeta        = 29

  ==> Algorithm <==

  SCF Algorithm Type is DF.
  DIIS enabled.
  MOM disabled.
  Fractional occupation disabled.
  Guess Type is READ.
  Energy threshold   = 1.00e-08
  Density threshold  = 1.00e-08
  Integral threshold = 0.00e+00

  ==> Primary Basis <==

  Basis Set: 6-31G*
    Number of shells: 70
    Number of basis function: 133
    Number of Cartesian functions: 133
    Spherical Harmonics?: false
    Max angular momentum: 2

  ==> Pre-Iterations <==

   -------------------------------------------------------
    Irrep   Nso     Nmo     Nalpha   Nbeta   Ndocc  Nsocc
   -------------------------------------------------------
     A        133     133       0       0       0       0
   -------------------------------------------------------
    Total     133     133      29      29      29       0
   -------------------------------------------------------

 OEINTS: Overlap, kinetic, potential, dipole, and quadrupole integrals
         stored in file 35.

  ==> Integral Setup <==

  ==> DFJK: Density-Fitted J/K Matrices <==

    J tasked:                  Yes
    K tasked:                  Yes
    wK tasked:                  No
    OpenMP threads:              4
    Integrals threads:           4
    Memory (MB):              1430
    Algorithm:                Core
    Integral Cache:           NONE
    Schwarz Cutoff:          1E-12
    Fitting Condition:       1E-12

   => Auxiliary Basis Set <=

  Basis Set: 
    Number of shells: 294
    Number of basis function: 917
    Number of Cartesian functions: 917
    Spherical Harmonics?: false
    Max angular momentum: 3

  Minimum eigenvalue in the overlap matrix is 3.3698683695E-03.
  Using Symmetric Orthogonalization.
  SCF Guess: Reading in previously saved MOs, projecting if necessary.

  Using orbitals from previous SCF, no projection.
  Recomputing DOCC and SOCC from number of alpha and beta electrons from previous calculation.
              A 
    DOCC [    29 ]

  ==> Iterations <==

                           Total Energy        Delta E     RMS |[F,P]|

   @DF-RHF iter   0:  -310.18941002313767   -3.10189e+02   1.70651e-03 
   @DF-RHF iter   1:  -310.20730786396899   -1.78978e-02   2.77903e-04 
   @DF-RHF iter   2:  -310.20848680752141   -1.17894e-03   9.97092e-05 DIIS
   @DF-RHF iter   3:  -310.20863814225976   -1.51335e-04   4.01251e-05 DIIS
   @DF-RHF iter   4:  -310.20865816330871   -2.00210e-05   5.81766e-06 DIIS
   @DF-RHF iter   5:  -310.20865882220011   -6.58891e-07   2.19634e-06 DIIS
   @DF-RHF iter   6:  -310.20865889866030   -7.64602e-08   6.68680e-07 DIIS
   @DF-RHF iter   7:  -310.20865890571366   -7.05336e-09   1.67363e-07 DIIS
   @DF-RHF iter   8:  -310.20865890622537   -5.11704e-10   4.53662e-08 DIIS
   @DF-RHF iter   9:  -310.20865890625549   -3.01270e-11   1.20217e-08 DIIS
   @DF-RHF iter  10:  -310.20865890625845   -2.95586e-12   2.71629e-09 DIIS

  ==> Post-Iterations <==

    Orbital Energies (a.u.)
    -----------------------

    Doubly Occupied:                                                      

       1A    -20.551965     2A    -11.269780     3A    -11.214724  
       4A    -11.210554     5A    -11.208863     6A    -11.205691  
       7A    -11.202745     8A     -1.358157     9A     -1.079426  
      10A     -1.026752    11A     -0.951589    12A     -0.876086  
      13A     -0.801461    14A     -0.772590    15A     -0.697662  
      16A     -0.648980    17A     -0.621088    18A     -0.601720  
      19A     -0.585332    20A     -0.561238    21A     -0.537936  
      22A     -0.519318    23A     -0.497989    24A     -0.493272  
      25A     -0.478113    26A     -0.456698    27A     -0.449073  
      28A     -0.438040    29A     -0.426675  

    Virtual:                                                              

      30A      0.219464    31A      0.240000    32A      0.263108  
      33A      0.275528    34A      0.287151    35A      0.299804  
      36A      0.305452    37A      0.318817    38A      0.337760  
      39A      0.342548    40A      0.345013    41A      0.358843  
      42A      0.375660    43A      0.381256    44A      0.394286  
      45A      0.413069    46A      0.433242    47A      0.450203  
      48A      0.486922    49A      0.489826    50A      0.717240  
      51A      0.720590    52A      0.728431    53A      0.743745  
      54A      0.764285    55A      0.781480    56A      0.809547  
      57A      0.833909    58A      0.877833    59A      0.932224  
      60A      0.944502    61A      0.954963    62A      0.973422  
      63A      0.991974    64A      1.048172    65A      1.070965  
      66A      1.098269    67A      1.127970    68A      1.131223  
      69A      1.145567    70A      1.162604    71A      1.175497  
      72A      1.185759    73A      1.197363    74A      1.203363  
      75A      1.209152    76A      1.214585    77A      1.235373  
      78A      1.250563    79A      1.254642    80A      1.269575  
      81A      1.282589    82A      1.305281    83A      1.320658  
      84A      1.388231    85A      1.457180    86A      1.509502  
      87A      1.609107    88A      1.675539    89A      1.706861  
      90A      1.729758    91A      1.783804    92A      1.844112  
      93A      1.896074    94A      1.939291    95A      1.964676  
      96A      2.010473    97A      2.053662    98A      2.113322  
      99A      2.133850   100A      2.178948   101A      2.234905  
     102A      2.264306   103A      2.277170   104A      2.300378  
     105A      2.330954   106A      2.346293   107A      2.376759  
     108A      2.410721   109A      2.471040   110A      2.531051  
     111A      2.596937   112A      2.625288   113A      2.657190  
     114A      2.689284   115A      2.704144   116A      2.734578  
     117A      2.755241   118A      2.801640   119A      2.809576  
     120A      2.867095   121A      2.953639   122A      2.993370  
     123A      3.019158   124A      3.104237   125A      3.147865  
     126A      3.242477   127A      4.199292   128A      4.559341  
     129A      4.634030   130A      4.738590   131A      4.834474  
     132A      4.900775   133A      5.003889  

    Final Occupation by Irrep:
              A 
    DOCC [    29 ]

  Energy converged.

  @DF-RHF Final Energy:  -310.20865890625845

   => Energetics <=

    Nuclear Repulsion Energy =            316.6553263653729005
    One-Electron Energy =               -1048.2409395552012938
    Two-Electron Energy =                 421.3769542835696598
    DFT Exchange-Correlation Energy =       0.0000000000000000
    Empirical Dispersion Energy =           0.0000000000000000
    PCM Polarization Energy =               0.0000000000000000
    EFP Energy =                            0.0000000000000000
    Total Energy =                       -310.2086589062586768

    Alert: EFP and PCM quantities not currently incorporated into SCF psivars.

Properties will be evaluated at   0.000000,   0.000000,   0.000000 Bohr
  ==> Properties <==


Properties computed using the SCF density matrix

  Nuclear Dipole Moment: (a.u.)
     X:     4.6910      Y:    -2.3820      Z:    -0.2638

  Electronic Dipole Moment: (a.u.)
     X:    -5.2884      Y:     2.1617      Z:     0.4403

  Dipole Moment: (a.u.)
     X:    -0.5974      Y:    -0.2204      Z:     0.1765     Total:     0.6608

  Dipole Moment: (Debye)
     X:    -1.5184      Y:    -0.5602      Z:     0.4487     Total:     1.6795


  Saving occupied orbitals to File 180.

*** tstop() called on cx1-1-1-4.cx1.hpc.ic.ac.uk at Fri Sep  2 11:41:29 2016
Module time:
	user time   =      19.44 seconds =       0.32 minutes
	system time =       0.23 seconds =       0.00 minutes
	total time  =          7 seconds =       0.12 minutes
Total time:
	user time   =      63.76 seconds =       1.06 minutes
	system time =       0.69 seconds =       0.01 minutes
	total time  =         22 seconds =       0.37 minutes

*** tstart() called on cx1-1-1-4.cx1.hpc.ic.ac.uk
*** at Fri Sep  2 11:41:29 2016


         ------------------------------------------------------------
                                   SCF GRAD                          
                          Rob Parrish, Justin Turney,                
                       Andy Simmonett, and Alex Sokolov              
         ------------------------------------------------------------

  ==> Geometry <==

    Molecular point group: c1
    Full point group: C1

    Geometry (in Angstrom), charge = 0, multiplicity = 1:

       Center              X                  Y                   Z               Mass       
    ------------   -----------------  -----------------  -----------------  -----------------
           H         -3.052549336577     2.087129918936     0.454520746844     1.007825032070
           O         -2.291559389091     1.595174204485     0.180186260537    15.994914619560
           C         -2.593349173323     0.221870004475     0.183014161388    12.000000000000
           C         -1.395082228386    -0.630043113119    -0.276409157021    12.000000000000
           H         -2.881407125823    -0.069211209136     1.191911262023     1.007825032070
           H         -3.451784993806     0.027142507225    -0.456175537819     1.007825032070
           C         -0.012230320901    -0.148419775582     0.169732999894    12.000000000000
           H         -1.428039617813    -0.766761622802    -1.354531180325     1.007825032070
           H         -1.548513719052    -1.627962815072     0.127730056215     1.007825032070
           C          1.092385528130    -1.136709888615    -0.218742111038    12.000000000000
           H          0.179616001000     0.823793998466    -0.258823879798     1.007825032070
           H         -0.009261299555    -0.014806174844     1.250269964424     1.007825032070
           C          2.490886682226    -0.749618266329     0.274107831814    12.000000000000
           H          1.114573138648    -1.244098990803    -1.302526322893     1.007825032070
           H          0.849038679745    -2.121520373273     0.177164664084     1.007825032070
           C          3.050592972532     0.530785631612    -0.348164401851    12.000000000000
           H          3.172239016285    -1.569395880629     0.058560710377     1.007825032070
           H          2.473744704477    -0.646500251291     1.357285170592     1.007825032070
           H          3.068601823409     0.461300825639    -1.432598605456     1.007825032070
           H          2.461600971424     1.402044081294    -0.082608346597     1.007825032070
           H          4.067749715344     0.709742489549    -0.012505218757     1.007825032070

  Nuclear repulsion =  316.655326365372900

  ==> Basis Set <==

  Basis Set: 6-31G*
    Number of shells: 70
    Number of basis function: 133
    Number of Cartesian functions: 133
    Spherical Harmonics?: false
    Max angular momentum: 2

  ==> DFJKGrad: Density-Fitted SCF Gradients <==

    Gradient:                    1
    J tasked:                  Yes
    K tasked:                  Yes
    wK tasked:                  No
    OpenMP threads:              4
    Integrals threads:           4
    Memory (MB):              1430
    Schwarz Cutoff:          0E+00
    Fitting Condition:       1E-12

   => Auxiliary Basis Set <=

  Basis Set: 
    Number of shells: 294
    Number of basis function: 917
    Number of Cartesian functions: 917
    Spherical Harmonics?: false
    Max angular momentum: 3


  -Total Gradient:
     Atom            X                  Y                   Z
    ------   -----------------  -----------------  -----------------
       1       -0.000207818310     0.001116591610     0.000125728735
       2       -0.004663535831     0.000691788082     0.005829747457
       3       -0.001237647478     0.000231762948    -0.006013742685
       4        0.005977379750     0.002579069574    -0.000957400814
       5       -0.001594584423     0.001781526217    -0.000218192637
       6       -0.001007181006     0.001849536256     0.000986057915
       7        0.002976876302     0.000319361823    -0.001546664853
       8       -0.002685326920    -0.005665737018     0.000728555525
       9        0.002329225838     0.000768172398    -0.000408982400
      10        0.000221787518    -0.000454776954     0.000923283132
      11       -0.000552213000    -0.002280169160     0.000775652053
      12        0.000314578609    -0.000156511958     0.000106817529
      13       -0.000275368086    -0.000223101438    -0.000237865386
      14        0.000045023923     0.000103992962    -0.000007185260
      15        0.000460524171    -0.000657021349    -0.000142409630
      16       -0.000116039045    -0.000043684865     0.000041358435
      17        0.000076894174    -0.000029040716    -0.000001344565
      18       -0.000036843011     0.000041583733    -0.000010111093
      19       -0.000028587748    -0.000005121968     0.000014157199
      20       -0.000075632785     0.000025596802    -0.000012272040
      21        0.000078487361     0.000006183021     0.000024813383


*** tstop() called on cx1-1-1-4.cx1.hpc.ic.ac.uk at Fri Sep  2 11:41:35 2016
Module time:
	user time   =      22.40 seconds =       0.37 minutes
	system time =       0.19 seconds =       0.00 minutes
	total time  =          6 seconds =       0.10 minutes
Total time:
	user time   =      86.18 seconds =       1.44 minutes
	system time =       0.88 seconds =       0.01 minutes
	total time  =         28 seconds =       0.47 minutes
CURRENT ENERGY: -310.2086589063

			-----------------------------------------
			 OPTKING 2.0: for geometry optimizations 
			  - R.A. King,  Bethel University        
			-----------------------------------------

	Previous internal coordinate definitions found.
	---Fragment 1 Geometry and Gradient---
	 H          -5.7684822533        3.9441039505        0.8589197332
	 O          -4.3304196626        3.0144423807        0.3405026853
	 C          -4.9007197045        0.4192735456        0.3458466435
	 C          -2.6363233445       -1.1906089357       -0.5223376074
	 H          -5.4450703451       -0.1307902306        2.2523858599
	 H          -6.5229283079        0.0512919052       -0.8620468350
	 C          -0.0231119570       -0.2804727286        0.3207488855
	 H          -2.6986037846       -1.4489694763       -2.5596929693
	 H          -2.9262668420       -3.0764038750        0.2413748252
	 C           2.0643094797       -2.1480703820       -0.4133626836
	 H           0.3394250510        1.5567450470       -0.4891062495
	 H          -0.0175013198       -0.0279796155        2.3626678249
	 C           4.7070936575       -1.4165732276        0.5179887330
	 H           2.1062379871       -2.3510063748       -2.4614180311
	 H           1.6044505809       -4.0090924908        0.3347926955
	 C           5.7647852610        1.0030394790       -0.6579353687
	 H           5.9946629688       -2.9657284085        0.1106637048
	 H           4.6747000141       -1.2217084198        2.5648972566
	 H           5.7988170571        0.8717322253       -2.7072190227
	 H           4.6517516844        2.6494793399       -0.1561071514
	 H           7.6869329391        1.3412189301       -0.0236314387
	            -0.0002078183        0.0011165916        0.0001257287
	            -0.0046635358        0.0006917881        0.0058297475
	            -0.0012376475        0.0002317629       -0.0060137427
	             0.0059773798        0.0025790696       -0.0009574008
	            -0.0015945844        0.0017815262       -0.0002181926
	            -0.0010071810        0.0018495363        0.0009860579
	             0.0029768763        0.0003193618       -0.0015466649
	            -0.0026853269       -0.0056657370        0.0007285555
	             0.0023292258        0.0007681724       -0.0004089824
	             0.0002217875       -0.0004547770        0.0009232831
	            -0.0005522130       -0.0022801692        0.0007756521
	             0.0003145786       -0.0001565120        0.0001068175
	            -0.0002753681       -0.0002231014       -0.0002378654
	             0.0000450239        0.0001039930       -0.0000071853
	             0.0004605242       -0.0006570213       -0.0001424096
	            -0.0001160390       -0.0000436849        0.0000413584
	             0.0000768942       -0.0000290407       -0.0000013446
	            -0.0000368430        0.0000415837       -0.0000101111
	            -0.0000285877       -0.0000051220        0.0000141572
	            -0.0000756328        0.0000255968       -0.0000122720
	             0.0000784874        0.0000061830        0.0000248134

	---Fragment 1 Intrafragment Coordinates---
	 - Coordinate -           - BOHR/RAD -       - ANG/DEG -
	 R(1,2)           =         1.789148	       0.946776
	 R(2,3)           =         2.657098	       1.406076
	 R(3,4)           =         2.910834	       1.540347
	 R(3,5)           =         2.057615	       1.088843
	 R(3,6)           =         2.055718	       1.087839
	 R(4,7)           =         2.892752	       1.530779
	 R(4,8)           =         2.054616	       1.087256
	 R(4,9)           =         2.055127	       1.087526
	 R(7,10)          =         2.895543	       1.532255
	 R(7,11)          =         2.040262	       1.079660
	 R(7,12)          =         2.057478	       1.088771
	 R(10,13)         =         2.895999	       1.532497
	 R(10,14)         =         2.058512	       1.089318
	 R(10,15)         =         2.057817	       1.088950
	 R(13,16)         =         2.890681	       1.529682
	 R(13,17)         =         2.055147	       1.087537
	 R(13,18)         =         2.056418	       1.088210
	 R(16,19)         =         2.053768	       1.086807
	 R(16,20)         =         2.049741	       1.084676
	 R(16,21)         =         2.052159	       1.085956
	 B(1,2,3)         =         1.911768	     109.536220
	 B(2,3,4)         =         1.952615	     111.876571
	 B(2,3,5)         =         1.896257	     108.647535
	 B(2,3,6)         =         1.920927	     110.061038
	 B(3,4,7)         =         2.028411	     116.219398
	 B(3,4,8)         =         1.919542	     109.981660
	 B(3,4,9)         =         1.861793	     106.672894
	 B(4,3,5)         =         1.911670	     109.530651
	 B(4,3,6)         =         1.917310	     109.853775
	 B(4,7,10)        =         1.954569	     111.988547
	 B(4,7,11)        =         1.905140	     109.156468
	 B(4,7,12)        =         1.907437	     109.288084
	 B(5,3,6)         =         1.862743	     106.727338
	 B(7,4,8)         =         1.934722	     110.851422
	 B(7,4,9)         =         1.883725	     107.929489
	 B(7,10,13)       =         1.997005	     114.419981
	 B(7,10,14)       =         1.907643	     109.299919
	 B(7,10,15)       =         1.907133	     109.270687
	 B(8,4,9)         =         1.822268	     104.408248
	 B(10,7,11)       =         1.930575	     110.613774
	 B(10,7,12)       =         1.905830	     109.196043
	 B(10,13,16)      =         1.998195	     114.488155
	 B(10,13,17)      =         1.893983	     108.517246
	 B(10,13,18)      =         1.906753	     109.248877
	 B(11,7,12)       =         1.857658	     106.435976
	 B(13,10,14)      =         1.903161	     109.043108
	 B(13,10,15)      =         1.891717	     108.387380
	 B(13,16,19)      =         1.937411	     111.005480
	 B(13,16,20)      =         1.954184	     111.966518
	 B(13,16,21)      =         1.933620	     110.788285
	 B(14,10,15)      =         1.851588	     106.088179
	 B(16,13,17)      =         1.897676	     108.728833
	 B(16,13,18)      =         1.908545	     109.351565
	 B(17,13,18)      =         1.853110	     106.175408
	 B(19,16,20)      =         1.880361	     107.736727
	 B(19,16,21)      =         1.879088	     107.663817
	 B(20,16,21)      =         1.876085	     107.491766
	 D(1,2,3,4)       =         3.126797	     179.152247
	 D(1,2,3,5)       =        -1.043755	     -59.802729
	 D(1,2,3,6)       =         0.990023	      56.724150
	 D(2,3,4,7)       =         0.645071	      36.959822
	*D(2,3,4,8)       =        -1.570796	     -89.999991
	 D(2,3,4,9)       =         2.746073	     157.338408
	 D(3,4,7,10)      =         3.041959	     174.291402
	 D(3,4,7,11)      =        -1.097360	     -62.874073
	 D(3,4,7,12)      =         0.927826	      53.160532
	 D(4,7,10,13)     =        -3.081561	    -176.560440
	 D(4,7,10,14)     =         1.061964	      60.846036
	 D(4,7,10,15)     =        -0.957184	     -54.842583
	 D(5,3,4,7)       =        -1.458612	     -83.572283
	 D(5,3,4,8)       =         2.608707	     149.467904
	 D(5,3,4,9)       =         0.642391	      36.806303
	 D(6,3,4,7)       =         2.783907	     159.506117
	 D(6,3,4,8)       =         0.568040	      32.546304
	 D(6,3,4,9)       =        -1.398276	     -80.115296
	 D(7,10,13,16)    =        -1.142256	     -65.446461
	 D(7,10,13,17)    =         3.017836	     172.909245
	 D(7,10,13,18)    =         1.004605	      57.559601
	 D(8,4,7,10)      =        -1.032929	     -59.182453
	 D(8,4,7,11)      =         1.110938	      63.652072
	 D(8,4,7,12)      =         3.136124	     179.686677
	 D(9,4,7,10)      =         0.952770	      54.589688
	 D(9,4,7,11)      =         3.096637	     177.424213
	 D(9,4,7,12)      =        -1.161363	     -66.541181
	 D(10,13,16,19)   =        -0.983854	     -56.370701
	 D(10,13,16,20)   =         1.118352	      64.076839
	 D(10,13,16,21)   =        -3.070683	    -175.937149
	 D(11,7,10,13)    =         1.072244	      61.435031
	 D(11,7,10,14)    =        -1.067417	     -61.158492
	 D(11,7,10,15)    =        -3.086564	    -176.847112
	 D(12,7,10,13)    =        -0.966501	     -55.376433
	 D(12,7,10,14)    =        -3.106162	    -177.969956
	 D(12,7,10,15)    =         1.157876	      66.341424
	 D(14,10,13,16)   =         0.999835	      57.286340
	 D(14,10,13,17)   =        -1.123258	     -64.357954
	 D(14,10,13,18)   =        -3.136489	    -179.707598
	 D(15,10,13,16)   =         3.008125	     172.352887
	 D(15,10,13,17)   =         0.885032	      50.708593
	 D(15,10,13,18)   =        -1.128199	     -64.641050
	 D(17,13,16,19)   =         1.137215	      65.157632
	 D(17,13,16,20)   =        -3.043764	    -174.394829
	 D(17,13,16,21)   =        -0.949613	     -54.408817
	 D(18,13,16,19)   =        -3.129748	    -179.321342
	 D(18,13,16,20)   =        -1.027542	     -58.873803
	 D(18,13,16,21)   =         1.066609	      61.112209

	Current energy   :      -310.2086589063

	Energy change for the previous step:
		Projected    :        -0.0032270588
		Actual       :        -0.0006618331
	Energy ratio indicates iffy step: Trust radius decreased to 1.250e-01.


	Performing BFGS update.
	Previous computed or guess Hessian on step 1.
	Steps to be used in Hessian update: 1
	Taking RFO optimization step.
	Going to follow RFO solution 1.
	Using RFO vector 1.
	Norm of target step-size    0.07856
	Projected energy change by RFO approximation:        -0.0010499907

	Back-transformation to cartesian coordinates...
	Successfully converged to displaced geometry.

	Back-transformation to cartesian coordinates to adjust frozen coordinates...
	Successfully converged to displaced geometry.

	--- Internal Coordinate Step in ANG or DEG, aJ/ANG or AJ/DEG ---
	 ---------------------------------------------------------------------------
	   Coordinate                Previous        Force       Change         New 
	   ----------                --------       ------       ------       ------
	    1 R(1,2)          =      0.946776    -0.006456    -0.000451     0.946326
	    2 R(2,3)          =      1.406076    -0.005839    -0.000496     1.405580
	    3 R(3,4)          =      1.540347    -0.083413    -0.010682     1.529666
	    4 R(3,5)          =      1.088843     0.002114     0.000241     1.089084
	    5 R(3,6)          =      1.087839     0.000953     0.000075     1.087915
	    6 R(4,7)          =      1.530779    -0.014131    -0.001952     1.528827
	    7 R(4,8)          =      1.087256    -0.000588    -0.000051     1.087205
	    8 R(4,9)          =      1.087526     0.009767     0.001176     1.088702
	    9 R(7,10)         =      1.532255    -0.007408    -0.001013     1.531243
	   10 R(7,11)         =      1.079660     0.020261     0.002174     1.081834
	   11 R(7,12)         =      1.088771    -0.000722    -0.000100     1.088671
	   12 R(10,13)        =      1.532497     0.003789     0.000527     1.533024
	   13 R(10,14)        =      1.089318     0.000018     0.000019     1.089337
	   14 R(10,15)        =      1.088950    -0.003621    -0.000397     1.088553
	   15 R(13,16)        =      1.529682     0.000773     0.000105     1.529787
	   16 R(13,17)        =      1.087537    -0.000579    -0.000060     1.087477
	   17 R(13,18)        =      1.088210     0.000046     0.000006     1.088216
	   18 R(16,19)        =      1.086807     0.000118     0.000015     1.086823
	   19 R(16,20)        =      1.084676    -0.000483    -0.000065     1.084612
	   20 R(16,21)        =      1.085956    -0.000677    -0.000072     1.085884
	   21 B(1,2,3)        =    109.536220    -0.000113    -0.345623   109.190597
	   22 B(2,3,4)        =    111.876571    -0.000758    -1.710560   110.166011
	   23 B(2,3,5)        =    108.647535     0.000331     0.641148   109.288683
	   24 B(2,3,6)        =    110.061038     0.000378     1.148579   111.209618
	   25 B(3,4,7)        =    116.219398    -0.000501    -1.115979   115.103420
	   26 B(3,4,8)        =    109.981660     0.000129    -0.059643   109.922017
	   27 B(3,4,9)        =    106.672894     0.000045    -0.188271   106.484623
	   28 B(4,3,5)        =    109.530651     0.000015    -0.459158   109.071492
	   29 B(4,3,6)        =    109.853775     0.000049    -0.142945   109.710829
	   30 B(4,7,10)       =    111.988547    -0.000003    -0.013807   111.974740
	   31 B(4,7,11)       =    109.156468     0.000012    -0.011930   109.144538
	   32 B(4,7,12)       =    109.288084    -0.000018    -0.039328   109.248756
	   33 B(5,3,6)        =    106.727338     0.000024     0.599427   107.326765
	   34 B(7,4,8)        =    110.851422     0.000158     0.338160   111.189582
	   35 B(7,4,9)        =    107.929489     0.000275     0.991287   108.920776
	   36 B(7,10,13)      =    114.419981     0.000024     0.042057   114.462038
	   37 B(7,10,14)      =    109.299919     0.000006     0.088606   109.388525
	   38 B(7,10,15)      =    109.270687    -0.000051    -0.266261   109.004426
	   39 B(8,4,9)        =    104.408248    -0.000064     0.167090   104.575338
	   40 B(10,7,11)      =    110.613774    -0.000018    -0.080138   110.533637
	   41 B(10,7,12)      =    109.196043     0.000033     0.197342   109.393385
	   42 B(10,13,16)     =    114.488155     0.000017     0.041122   114.529277
	   43 B(10,13,17)     =    108.517246    -0.000009    -0.043296   108.473950
	   44 B(10,13,18)     =    109.248877    -0.000003     0.018178   109.267055
	   45 B(11,7,12)      =    106.435976    -0.000007    -0.054165   106.381811
	   46 B(13,10,14)     =    109.043108    -0.000009     0.069873   109.112981
	   47 B(13,10,15)     =    108.387380     0.000020     0.031996   108.419376
	   48 B(13,16,19)     =    111.005480     0.000002     0.007677   111.013157
	   49 B(13,16,20)     =    111.966518     0.000003     0.008022   111.974540
	   50 B(13,16,21)     =    110.788285    -0.000001    -0.007724   110.780561
	   51 B(14,10,15)     =    106.088179     0.000009     0.032447   106.120626
	   52 B(16,13,17)     =    108.728833    -0.000005    -0.029407   108.699426
	   53 B(16,13,18)     =    109.351565    -0.000003     0.022909   109.374474
	   54 B(17,13,18)     =    106.175408     0.000002    -0.014494   106.160914
	   55 B(19,16,20)     =    107.736727    -0.000000     0.008157   107.744885
	   56 B(19,16,21)     =    107.663817    -0.000001    -0.007149   107.656667
	   57 B(20,16,21)     =    107.491766    -0.000002    -0.009673   107.482093
	   58 D(1,2,3,4)      =    179.152247     0.000004    -0.111692   179.040555
	   59 D(1,2,3,5)      =    -59.802729    -0.000051    -1.334059   -61.136789
	   60 D(1,2,3,6)      =     56.724150     0.000048     0.451046    57.175195
	   61 D(2,3,4,7)      =     36.959822    -0.000018    -0.492356    36.467465
	   62 *D(2,3,4,8)     =    -89.999991    -0.000000     0.000000   -89.999991
	   63 D(2,3,4,9)      =    157.338408    -0.000002    -0.068814   157.269594
	   64 D(3,4,7,10)     =    174.291402     0.000008     0.077229   174.368630
	   65 D(3,4,7,11)     =    -62.874073     0.000005    -0.042321   -62.916395
	   66 D(3,4,7,12)     =     53.160532     0.000002    -0.135697    53.024836
	   67 D(4,7,10,13)    =   -176.560440     0.000000    -0.693880  -177.254320
	   68 D(4,7,10,14)    =     60.846036    -0.000002    -0.882839    59.963197
	   69 D(4,7,10,15)    =    -54.842583     0.000001    -0.822605   -55.665188
	   70 D(5,3,4,7)      =    -83.572283    -0.000003     0.085646   -83.486637
	   71 D(5,3,4,8)      =    149.467904     0.000015     0.578003   150.045906
	   72 D(5,3,4,9)      =     36.806303     0.000012     0.509188    37.315492
	   73 D(6,3,4,7)      =    159.506117    -0.000018    -0.288968   159.217149
	   74 D(6,3,4,8)      =     32.546304    -0.000000     0.203388    32.749693
	   75 D(6,3,4,9)      =    -80.115296    -0.000003     0.134574   -79.980722
	   76 D(7,10,13,16)   =    -65.446461    -0.000005    -0.495628   -65.942089
	   77 D(7,10,13,17)   =    172.909245    -0.000005    -0.453321   172.455924
	   78 D(7,10,13,18)   =     57.559601    -0.000004    -0.422260    57.137342
	   79 D(8,4,7,10)     =    -59.182453    -0.000014    -0.632318   -59.814771
	   80 D(8,4,7,11)     =     63.652072    -0.000018    -0.751867    62.900204
	   81 D(8,4,7,12)     =    179.686677    -0.000020    -0.845243   178.841435
	   82 D(9,4,7,10)     =     54.589688     0.000023     0.316652    54.906340
	   83 D(9,4,7,11)     =    177.424213     0.000019     0.197102   177.621315
	   84 D(9,4,7,12)     =    -66.541181     0.000016     0.103726   -66.437455
	   85 D(10,13,16,19)  =    -56.370701     0.000001     0.015545   -56.355156
	   86 D(10,13,16,20)  =     64.076839     0.000001     0.036760    64.113599
	   87 D(10,13,16,21)  =   -175.937149     0.000001     0.024569  -175.912580
	   88 D(11,7,10,13)   =     61.435031     0.000000    -0.612094    60.822937
	   89 D(11,7,10,14)   =    -61.158492    -0.000002    -0.801053   -61.959545
	   90 D(11,7,10,15)   =   -176.847112     0.000001    -0.740819  -177.587931
	   91 D(12,7,10,13)   =    -55.376433    -0.000000    -0.617486   -55.993919
	   92 D(12,7,10,14)   =   -177.969956    -0.000003    -0.806445  -178.776401
	   93 D(12,7,10,15)   =     66.341424     0.000001    -0.746211    65.595213
	   94 D(14,10,13,16)  =     57.286340    -0.000001    -0.296955    56.989385
	   95 D(14,10,13,17)  =    -64.357954    -0.000000    -0.254648   -64.612602
	   96 D(14,10,13,18)  =   -179.707598     0.000001    -0.223587  -179.931184
	   97 D(15,10,13,16)  =    172.352887     0.000003    -0.204349   172.148538
	   98 D(15,10,13,17)  =     50.708593     0.000003    -0.162043    50.546550
	   99 D(15,10,13,18)  =    -64.641050     0.000004    -0.130982   -64.772032
	  100 D(17,13,16,19)  =     65.157632    -0.000000    -0.034337    65.123294
	  101 D(17,13,16,20)  =   -174.394829     0.000000    -0.013122  -174.407951
	  102 D(17,13,16,21)  =    -54.408817    -0.000000    -0.025313   -54.434130
	  103 D(18,13,16,19)  =   -179.321342    -0.000001    -0.055363  -179.376705
	  104 D(18,13,16,20)  =    -58.873803    -0.000000    -0.034147   -58.907950
	  105 D(18,13,16,21)  =     61.112209    -0.000001    -0.046338    61.065871
	 ---------------------------------------------------------------------------

  ==> Convergence Check <==

  Measures of convergence in internal coordinates in au.
  Criteria marked as inactive (o), active & met (*), and active & unmet ( ).
  ---------------------------------------------------------------------------------------------
   Step     Total Energy     Delta E     MAX Force     RMS Force      MAX Disp      RMS Disp   
  ---------------------------------------------------------------------------------------------
    Convergence Criteria    1.00e-06 *    3.00e-04 *             o    1.20e-03 *             o
  ---------------------------------------------------------------------------------------------
      2    -310.20865891   -6.62e-04      1.01e-02      1.84e-03 o    2.99e-02      7.67e-03 o  ~
  ---------------------------------------------------------------------------------------------

	Writing optimization data to binary file.
	Structure for next step:
	Cartesian Geometry (in Angstrom)
	    H    -2.9647457900   2.0907195203   0.4608176364
	    O    -2.2219315602   1.5733551761   0.1849668872
	    C    -2.5812353873   0.2144804829   0.1810005924
	    C    -1.4021878340  -0.6413784481  -0.2850783391
	    H    -2.8626068719  -0.0861841578   1.1892344092
	    H    -3.4406251276   0.0364758387  -0.4619006521
	    C    -0.0270689046  -0.1565948889   0.1746450334
	    H    -1.4356809138  -0.7614705921  -1.3651107341
	    H    -1.5729411703  -1.6424462819   0.1073230926
	    C     1.0846358025  -1.1358149401  -0.2125820074
	    H     0.1640445828   0.8208232073  -0.2478420010
	    H    -0.0348921228  -0.0276601399   1.2556258051
	    C     2.4810045909  -0.7376427925   0.2791262681
	    H     1.1065255094  -1.2480656107  -1.2958985476
	    H     0.8462606036  -2.1193328366   0.1884389379
	    C     3.0367332124   0.5396530542  -0.3532738047
	    H     3.1660008652  -1.5562431320   0.0710870883
	    H     2.4622732000  -0.6259993813   1.3614377308
	    H     3.0570080830   0.4609946498  -1.4370565728
	    H     2.4441313577   1.4108971912  -0.0960984287
	    H     4.0525503131   0.7253691629  -0.0174633516
			--------------------------
			 OPTKING Finished Execution 
			--------------------------

    Structure for next step:
    Molecular point group: c1
    Full point group: C1

    Geometry (in Angstrom), charge = 0, multiplicity = 1:

    H           -2.970517107880     2.094477736049     0.460083765240
    O           -2.227702934736     1.577113431295     0.184233037101
    C           -2.587006734428     0.218238841912     0.180266742579
    C           -1.407959271220    -0.637620023765    -0.285812153290
    H           -2.868378197560    -0.082425775897     1.188500482445
    H           -3.446396409102     0.040234211280    -0.462634452825
    C           -0.032840446826    -0.152836501614     0.173911184124
    H           -1.441452348405    -0.757712158635    -1.365844465788
    H           -1.578712594431    -1.638687781161     0.106589248413
    C            1.078864175476    -1.132056478046    -0.213315827159
    H            0.158273026020     0.824581519974    -0.248575818020
    H           -0.040663664394    -0.023901762448     1.254891873257
    C            2.475232857170    -0.733884360823     0.278392410775
    H            1.100753880697    -1.244307140070    -1.296632284660
    H            0.840488994771    -2.115574299391     0.187705087546
    C            3.030961436236     0.543411388363    -0.354007613652
    H            3.160229079151    -1.552484637765     0.070353246949
    H            2.456501467685    -0.622240958084     1.360703790863
    H            3.051236305307     0.464752989941    -1.437790299059
    H            2.438359626840     1.414655458788    -0.096832257336
[...]
	 D(2,3,4,9)       =         2.743101	     157.168090
	 D(3,4,7,10)      =         3.067791	     175.771480
	 D(3,4,7,11)      =        -1.072096	     -61.426574
	 D(3,4,7,12)      =         0.949501	      54.402376
	 D(4,7,10,13)     =        -3.092395	    -177.181198
	 D(4,7,10,14)     =         1.047881	      60.039169
	 D(4,7,10,15)     =        -0.969810	     -55.566032
	 D(5,3,4,7)       =        -1.463320	     -83.842084
	 D(5,3,4,8)       =         2.618458	     150.026569
	 D(5,3,4,9)       =         0.649169	      37.194650
	 D(6,3,4,7)       =         2.768106	     158.600763
	 D(6,3,4,8)       =         0.566698	      32.469415
	 D(6,3,4,9)       =        -1.402590	     -80.362503
	 D(7,10,13,16)    =        -1.151626	     -65.983317
	 D(7,10,13,17)    =         3.009154	     172.411836
	 D(7,10,13,18)    =         0.996286	      57.082992
	 D(8,4,7,10)      =        -1.025825	     -58.775449
	 D(8,4,7,11)      =         1.117473	      64.026497
	 D(8,4,7,12)      =         3.139070	     179.855447
	 D(9,4,7,10)      =         0.977346	      55.997818
	 D(9,4,7,11)      =         3.120645	     178.799764
	 D(9,4,7,12)      =        -1.140944	     -65.371286
	 D(10,13,16,19)   =        -0.985346	     -56.456151
	 D(10,13,16,20)   =         1.117221	      64.012035
	 D(10,13,16,21)   =        -3.071945	    -176.009462
	 D(11,7,10,13)    =         1.062291	      60.864788
	 D(11,7,10,14)    =        -1.080618	     -61.914845
	 D(11,7,10,15)    =        -3.098309	    -177.520046
	 D(12,7,10,13)    =        -0.975741	     -55.905831
	 D(12,7,10,14)    =        -3.118650	    -178.685464
	 D(12,7,10,15)    =         1.146844	      65.709335
	 D(14,10,13,16)   =         0.993736	      56.936854
	 D(14,10,13,17)   =        -1.128669	     -64.667993
	 D(14,10,13,18)   =        -3.141537	    -179.996837
	 D(15,10,13,16)   =         3.003963	     172.114416
	 D(15,10,13,17)   =         0.881558	      50.509569
	 D(15,10,13,18)   =        -1.131310	     -64.819275
	 D(17,13,16,19)   =         1.135091	      65.035914
	 D(17,13,16,20)   =        -3.045528	    -174.495900
	 D(17,13,16,21)   =        -0.951508	     -54.517397
	 D(18,13,16,19)   =        -3.132140	    -179.458376
	 D(18,13,16,20)   =        -1.029573	     -58.990191
	 D(18,13,16,21)   =         1.064447	      60.988313

	Current energy   :      -310.2092693707

	Energy change for the previous step:
		Projected    :        -0.0000012564
		Actual       :        -0.0000000626
	Energy ratio indicates iffy step: Trust radius decreased to 1.953e-03.


	Performing BFGS update.
	Previous computed or guess Hessian on step 1.
	Steps to be used in Hessian update: 6 5
	Taking RFO optimization step.
	Going to follow RFO solution 1.
	Rejecting RFO root 1 because normalization gives large value.
	Rejecting RFO root 2 because normalization gives large value.
	Rejecting RFO root 3 because normalization gives large value.
	Rejecting RFO root 4 because normalization gives large value.
	Using RFO vector 5.

	Determining step-restricting scale parameter for RS-RFO.
	Maximum step size allowed    0.00195

	 Iter      |step|        alpha        rfo_root  
	------------------------------------------------
	    0     0.00708       1.00000           5
	    1     0.00463    9995.52104           5
	    2     0.00316   30843.17480           5
	    3     0.00239   60556.48853           5
	    4     0.00206   86771.33461           5
	    5     0.00197   98515.28145           5
	    6     0.00195  100247.94724           5
	------------------------------------------------
	Norm of target step-size    0.00195
	Projected energy change by RFO approximation:         0.0000000228

	Back-transformation to cartesian coordinates...
	Successfully converged to displaced geometry.

	Back-transformation to cartesian coordinates to adjust frozen coordinates...
	Successfully converged to displaced geometry.

	--- Internal Coordinate Step in ANG or DEG, aJ/ANG or AJ/DEG ---
	 ---------------------------------------------------------------------------
	   Coordinate                Previous        Force       Change         New 
	   ----------                --------       ------       ------       ------
	    1 R(1,2)          =      0.946463     0.000056     0.000003     0.946466
	    2 R(2,3)          =      1.405615    -0.000063    -0.000002     1.405612
	    3 R(3,4)          =      1.528799    -0.000020    -0.000011     1.528788
	    4 R(3,5)          =      1.089073    -0.000018    -0.000002     1.089071
	    5 R(3,6)          =      1.087701    -0.000010    -0.000003     1.087699
	    6 R(4,7)          =      1.528176    -0.000133    -0.000016     1.528160
	    7 R(4,8)          =      1.087326    -0.000023    -0.000002     1.087324
	    8 R(4,9)          =      1.089295     0.000068     0.000008     1.089302
	    9 R(7,10)         =      1.531022     0.000013    -0.000006     1.531016
	   10 R(7,11)         =      1.082198    -0.000062    -0.000004     1.082194
	   11 R(7,12)         =      1.088648     0.000040     0.000004     1.088653
	   12 R(10,13)        =      1.533118     0.000162     0.000024     1.533142
	   13 R(10,14)        =      1.089244     0.000051     0.000004     1.089249
	   14 R(10,15)        =      1.088490    -0.000061    -0.000006     1.088484
	   15 R(13,16)        =      1.529776     0.000046     0.000006     1.529782
	   16 R(13,17)        =      1.087479    -0.000011    -0.000001     1.087478
	   17 R(13,18)        =      1.088208     0.000028     0.000004     1.088212
	   18 R(16,19)        =      1.086815     0.000010     0.000001     1.086817
	   19 R(16,20)        =      1.084628    -0.000072    -0.000009     1.084619
	   20 R(16,21)        =      1.085879    -0.000008    -0.000001     1.085877
	   21 B(1,2,3)        =    109.400860     0.000001     0.002673   109.403533
	   22 B(2,3,4)        =    110.019182     0.000000    -0.000681   110.018501
	   23 B(2,3,5)        =    109.298153    -0.000001    -0.000999   109.297153
	   24 B(2,3,6)        =    110.956032    -0.000000     0.001152   110.957184
	   25 B(3,4,7)        =    114.747394    -0.000001    -0.001539   114.745855
	   26 B(3,4,8)        =    109.873356     0.000000     0.000122   109.873478
	   27 B(3,4,9)        =    106.809680     0.000001    -0.003768   106.805912
	   28 B(4,3,5)        =    109.228178     0.000001     0.000100   109.228278
	   29 B(4,3,6)        =    109.913603     0.000000    -0.001519   109.912084
	   30 B(4,7,10)       =    112.125007     0.000000     0.000383   112.125390
	   31 B(4,7,11)       =    109.071236    -0.000000    -0.000796   109.070439
	   32 B(4,7,12)       =    109.199292    -0.000000    -0.002703   109.196588
	   33 B(5,3,6)        =    107.369631     0.000000     0.001996   107.371627
	   34 B(7,4,8)        =    111.179497     0.000000     0.004067   111.183564
	   35 B(7,4,9)        =    109.096968     0.000000    -0.004948   109.092020
	   36 B(7,10,13)      =    114.504942     0.000002     0.006063   114.511006
	   37 B(7,10,14)      =    109.362725     0.000000     0.004198   109.366923
	   38 B(7,10,15)      =    108.964708    -0.000002    -0.008132   108.956576
	   39 B(8,4,9)        =    104.537796    -0.000000     0.006397   104.544193
	   40 B(10,7,11)      =    110.563172     0.000000     0.001459   110.564631
	   41 B(10,7,12)      =    109.362355     0.000000     0.000528   109.362883
	   42 B(10,13,16)     =    114.509469     0.000002     0.005370   114.514839
	   43 B(10,13,17)     =    108.494427    -0.000001    -0.003895   108.490532
	   44 B(10,13,18)     =    109.260345    -0.000000     0.002135   109.262480
	   45 B(11,7,12)      =    106.344894     0.000000     0.001111   106.346004
	   46 B(13,10,14)     =    109.102622    -0.000001     0.003298   109.105919
	   47 B(13,10,15)     =    108.439715    -0.000001    -0.005071   108.434644
	   48 B(13,16,19)     =    111.006184     0.000000     0.000859   111.007043
	   49 B(13,16,20)     =    111.979980     0.000000     0.001728   111.981708
	   50 B(13,16,21)     =    110.781721    -0.000000    -0.001383   110.780338
	   51 B(14,10,15)     =    106.131554     0.000000    -0.000978   106.130576
	   52 B(16,13,17)     =    108.700214    -0.000001    -0.003826   108.696388
	   53 B(16,13,18)     =    109.379206    -0.000000     0.001178   109.380384
	   54 B(17,13,18)     =    106.163186     0.000000    -0.001554   106.161632
	   55 B(19,16,20)     =    107.745320    -0.000000     0.000268   107.745588
	   56 B(19,16,21)     =    107.656417    -0.000000    -0.000555   107.655862
	   57 B(20,16,21)     =    107.482281    -0.000000    -0.001015   107.481266
	   58 D(1,2,3,4)      =    178.705532     0.000000    -0.000327   178.705205
	   59 D(1,2,3,5)      =    -61.363466     0.000000    -0.001244   -61.364710
	   60 D(1,2,3,6)      =     56.853844    -0.000000     0.001281    56.855125
	   61 D(2,3,4,7)      =     36.131356    -0.000000     0.004393    36.135749
	   62 *D(2,3,4,8)     =    -89.999991    -0.000000    -0.000000   -89.999991
	   63 D(2,3,4,9)      =    157.168090    -0.000000    -0.005564   157.162526
	   64 D(3,4,7,10)     =    175.771480     0.000000    -0.011339   175.760141
	   65 D(3,4,7,11)     =    -61.426574     0.000000    -0.009788   -61.436362
	   66 D(3,4,7,12)     =     54.402376    -0.000000    -0.010396    54.391980
	   67 D(4,7,10,13)    =   -177.181198     0.000000     0.032149  -177.149049
	   68 D(4,7,10,14)    =     60.039169    -0.000000     0.020289    60.059458
	   69 D(4,7,10,15)    =    -55.566032     0.000000     0.023659   -55.542373
	   70 D(5,3,4,7)      =    -83.842084     0.000000     0.005975   -83.836108
	   71 D(5,3,4,8)      =    150.026569     0.000000     0.001582   150.028151
	   72 D(5,3,4,9)      =     37.194650     0.000000    -0.003982    37.190668
	   73 D(6,3,4,7)      =    158.600763    -0.000000     0.004380   158.605143
	   74 D(6,3,4,8)      =     32.469415     0.000000    -0.000013    32.469402
	   75 D(6,3,4,9)      =    -80.362503    -0.000000    -0.005577   -80.368081
	   76 D(7,10,13,16)   =    -65.983317    -0.000000    -0.034005   -66.017322
	   77 D(7,10,13,17)   =    172.411836    -0.000000    -0.029803   172.382033
	   78 D(7,10,13,18)   =     57.082992    -0.000000    -0.026980    57.056012
	   79 D(8,4,7,10)     =    -58.775449     0.000000    -0.008986   -58.784435
	   80 D(8,4,7,11)     =     64.026497     0.000000    -0.007435    64.019062
	   81 D(8,4,7,12)     =    179.855447    -0.000000    -0.008043   179.847404
	   82 D(9,4,7,10)     =     55.997818    -0.000000    -0.001870    55.995948
	   83 D(9,4,7,11)     =    178.799764    -0.000000    -0.000319   178.799445
	   84 D(9,4,7,12)     =    -65.371286    -0.000000    -0.000927   -65.372214
	   85 D(10,13,16,19)  =    -56.456151     0.000000     0.012268   -56.443883
	   86 D(10,13,16,20)  =     64.012035     0.000000     0.014387    64.026421
	   87 D(10,13,16,21)  =   -176.009462     0.000000     0.013310  -175.996152
	   88 D(11,7,10,13)   =     60.864788     0.000000     0.031864    60.896652
	   89 D(11,7,10,14)   =    -61.914845     0.000000     0.020005   -61.894840
	   90 D(11,7,10,15)   =   -177.520046     0.000000     0.023374  -177.496671
	   91 D(12,7,10,13)   =    -55.905831     0.000000     0.029347   -55.876484
	   92 D(12,7,10,14)   =   -178.685464    -0.000000     0.017487  -178.667977
	   93 D(12,7,10,15)   =     65.709335     0.000000     0.020857    65.730192
	   94 D(14,10,13,16)  =     56.936854    -0.000000    -0.021695    56.915160
	   95 D(14,10,13,17)  =    -64.667993     0.000000    -0.017493   -64.685486
	   96 D(14,10,13,18)  =   -179.996837     0.000000    -0.014669  -180.011507
	   97 D(15,10,13,16)  =    172.114416    -0.000000    -0.023837   172.090579
	   98 D(15,10,13,17)  =     50.509569    -0.000000    -0.019635    50.489934
	   99 D(15,10,13,18)  =    -64.819275     0.000000    -0.016812   -64.836087
	  100 D(17,13,16,19)  =     65.035914     0.000000     0.008035    65.043949
	  101 D(17,13,16,20)  =   -174.495900     0.000000     0.010153  -174.485747
	  102 D(17,13,16,21)  =    -54.517397     0.000000     0.009077   -54.508320
	  103 D(18,13,16,19)  =   -179.458376    -0.000000     0.004715  -179.453661
	  104 D(18,13,16,20)  =    -58.990191    -0.000000     0.006834   -58.983357
	  105 D(18,13,16,21)  =     60.988313    -0.000000     0.005757    60.994070
	 ---------------------------------------------------------------------------

  ==> Convergence Check <==

  Measures of convergence in internal coordinates in au.
  Criteria marked as inactive (o), active & met (*), and active & unmet ( ).
  ---------------------------------------------------------------------------------------------
   Step     Total Energy     Delta E     MAX Force     RMS Force      MAX Disp      RMS Disp   
  ---------------------------------------------------------------------------------------------
    Convergence Criteria    1.00e-06 *    3.00e-04 *             o    1.20e-03 *             o
  ---------------------------------------------------------------------------------------------
      7    -310.20926937   -6.26e-08 *    2.99e-05 *    7.59e-06 o    5.94e-04 *    1.91e-04 o  ~
  ---------------------------------------------------------------------------------------------


  **** Optimization is complete! (in 7 steps) ****

  ==> Optimization Summary <==

  Measures of convergence in internal coordinates in au.
  --------------------------------------------------------------------------------------------------------------- ~
   Step         Total Energy             Delta E       MAX Force       RMS Force        MAX Disp        RMS Disp  ~
  --------------------------------------------------------------------------------------------------------------- ~
      1    -310.207997073135   -310.207997073135      0.01337514      0.00250318      0.10999076      0.03139375  ~
      2    -310.208658906258     -0.000661833124      0.01012447      0.00183591      0.02985490      0.00766623  ~
      3    -310.209240306242     -0.000581399983      0.00168510      0.00028888      0.04394467      0.01219884  ~
      4    -310.209260713461     -0.000020407219      0.00052134      0.00009800      0.01159000      0.00304972  ~
      5    -310.209267131028     -0.000006417567      0.00015943      0.00003862      0.00978303      0.00304969  ~
      6    -310.209269308112     -0.000002177084      0.00004132      0.00001342      0.00191711      0.00076253  ~
      7    -310.209269370747     -0.000000062635      0.00002987      0.00000759      0.00059350      0.00019063  ~
  --------------------------------------------------------------------------------------------------------------- ~

	Writing optimization data to binary file.
	Final energy is   -310.2092693707465
	Final (previous) structure:
	Cartesian Geometry (in Angstrom)
	    H    -2.9437308835   2.1102744859   0.4350135944
	    O    -2.2073158989   1.5772960449   0.1715398523
	    C    -2.5843150903   0.2232070729   0.1797346194
	    C    -1.4137581647  -0.6487218704  -0.2749787011
	    H    -2.8741057487  -0.0636159557   1.1896027308
	    H    -3.4440252143   0.0548412149  -0.4649707642
	    C    -0.0388229471  -0.1628377184   0.1819591636
	    H    -1.4462014684  -0.7775715241  -1.3541557924
	    H    -1.5901802206  -1.6464667648   0.1249499414
	    C     1.0771311688  -1.1322481555  -0.2166863736
	    H     0.1449016015   0.8196178971  -0.2329857359
	    H    -0.0429998980  -0.0425489196   1.2639333741
	    C     2.4730982477  -0.7314613951   0.2743283894
	    H     1.0963901313  -1.2345585867  -1.3009442806
	    H     0.8444822718  -2.1203247515   0.1762369272
	    C     3.0205140977   0.5536323797  -0.3494390962
	    H     3.1616348475  -1.5448877383   0.0578443035
	    H     2.4567764199  -0.6285721355   1.3575385284
	    H     3.0394623101   0.4829981769  -1.4337911049
	    H     2.4234059213   1.4196150860  -0.0849519031
	    H     4.0358091998   0.7426437166  -0.0139055355
	Saving final (previous) structure.
			--------------------------
			 OPTKING Finished Execution 
			--------------------------

    Final optimized geometry and variables:
    Molecular point group: c1
    Full point group: C1

    Geometry (in Angstrom), charge = 0, multiplicity = 1:

    H           -2.943730658747     2.110274324728     0.435013561183
    O           -2.207315730367     1.577295924451     0.171539839196
    C           -2.584314892911     0.223207055873     0.179734605648
    C           -1.413758056762    -0.648721820850    -0.274978680125
    H           -2.874105529177    -0.063615950795     1.189602639976
    H           -3.444024951262     0.054841210761    -0.464970728646
    C           -0.038822944184    -0.162837705999     0.181959149669
    H           -1.446201358011    -0.777571464738    -1.354155688973
    H           -1.590180099154    -1.646466639096     0.124949931858
    C            1.077131086530    -1.132248069057    -0.216686357039
    H            0.144901590478     0.819617834532    -0.232985718072
    H           -0.042999894681    -0.042548916353     1.263933277560
    C            2.473098058870    -0.731461339237     0.274328368456
    H            1.096390047532    -1.234558492412    -1.300944181235
    H            0.844482207272    -2.120324589610     0.176236913774
    C            3.020513867067     0.553632337392    -0.349439069482
    H            3.161634606102    -1.544887620341     0.057844299069
    H            2.456776232312    -0.628572087453     1.357538424719
    H            3.039462078045     0.482998140035    -1.433790995459
    H            2.423405736246     1.419614977590    -0.084951896578
    H            4.035808891562     0.742643659867    -0.013905534440

	Cleaning optimization helper files.


Properties will be evaluated at   0.000000,   0.000000,   0.000000 Bohr

Properties computed using the  density matrix

  Nuclear Dipole Moment: (a.u.)
     X:     4.5470      Y:    -2.2691      Z:    -0.2622

  Electronic Dipole Moment: (a.u.)
     X:    -5.1749      Y:     2.1009      Z:     0.4333

  Dipole Moment: (a.u.)
     X:    -0.6279      Y:    -0.1683      Z:     0.1711     Total:     0.6722

  Dipole Moment: (Debye)
     X:    -1.5959      Y:    -0.4277      Z:     0.4350     Total:     1.7085

  Quadrupole Moment: (Debye Ang)
    XX:   -39.3331     YY:   -46.7413     ZZ:   -46.5354
    XY:    -2.2318     XZ:    -1.6098     YZ:     0.9832

  Traceless Quadrupole Moment: (Debye Ang)
    XX:     4.8702     YY:    -2.5380     ZZ:    -2.3321
    XY:    -2.2318     XZ:    -1.6098     YZ:     0.9832

  Mulliken Charges: (a.u.)
   Center  Symbol    Alpha    Beta     Spin     Total
       1     H     0.28057  0.28057  0.00000  0.43886
       2     O     4.37016  4.37016  0.00000 -0.74031
       3     C     2.99312  2.99312  0.00000  0.01376
       4     C     3.16792  3.16792  0.00000 -0.33583
       5     H     0.43228  0.43228  0.00000  0.13543
       6     H     0.42923  0.42923  0.00000  0.14154
       7     C     3.15028  3.15028  0.00000 -0.30057
       8     H     0.41886  0.41886  0.00000  0.16228
       9     H     0.42394  0.42394  0.00000  0.15212
      10     C     3.15373  3.15373  0.00000 -0.30745
      11     H     0.40484  0.40484  0.00000  0.19032
      12     H     0.42444  0.42444  0.00000  0.15111
      13     C     3.15157  3.15157  0.00000 -0.30315
      14     H     0.42514  0.42514  0.00000  0.14973
      15     H     0.42492  0.42492  0.00000  0.15017
      16     C     3.24135  3.24135  0.00000 -0.48269
      17     H     0.42255  0.42255  0.00000  0.15491
      18     H     0.42392  0.42392  0.00000  0.15215
      19     H     0.42288  0.42288  0.00000  0.15423
      20     H     0.41754  0.41754  0.00000  0.16491
      21     H     0.42075  0.42075  0.00000  0.15849

   Total alpha = 29.00000, Total beta = 29.00000, Total charge =  0.00000


*** PSI4 exiting successfully. Buy a developer a beer!
