    -----------------------------------------------------------------------
          Psi4: An Open-Source Ab Initio Electronic Structure Package
                              Psi4 1.0.54 Driver

                          Git: Rev {master} 8d4cec3 dirty

    J. M. Turney, A. C. Simmonett, R. M. Parrish, E. G. Hohenstein,
    F. A. Evangelista, J. T. Fermann, B. J. Mintz, L. A. Burns, J. J. Wilke,
    M. L. Abrams, N. J. Russ, M. L. Leininger, C. L. Janssen, E. T. Seidl,
    W. D. Allen, H. F. Schaefer, R. A. King, E. F. Valeev, C. D. Sherrill,
    and T. D. Crawford, WIREs Comput. Mol. Sci. 2, 556-565 (2012)
    (doi: 10.1002/wcms.93)

                         Additional Contributions by
    A. E. DePrince, U. Bozkaya, A. Yu. Sokolov, D. G. A. Smith, R. Di Remigio,
    R. M. Richard, J. F. Gonthier, H. R. McAlexander, M. Saitow, and
    B. P. Pritchard
    -----------------------------------------------------------------------


    Psi4 started on: Sat Sep 10 17:42:39 2016

    Process ID:  42071
    PSI4DATADIR: /export131/home/mjharvey/miniconda3/share/psi4
    Memory level set to 256.000 MB

  ==> Input File <==

--------------------------------------------------------------------------
set {
	reference rhf
	basis cc-pvtz
}


set_num_threads( 4 )
memory 2 gb

molecule MOL {
0 1

H	 4.528161	 0.159298	 -0.886905
C	 3.700551	 -0.416115	 -0.489326
C	 2.406131	 0.388834	 -0.523786
H	 3.614473	 -1.321467	 -1.080907
H	 3.957884	 -0.707330	 0.523586
C	 1.215950	 -0.382441	 0.027187
H	 2.182535	 0.692056	 -1.540558
H	 2.535776	 1.303403	 0.050089
N	 0.000002	 0.398953	 -0.040851
H	 1.069941	 -1.283799	 -0.560524
H	 1.438254	 -0.711990	 1.046531
C	 -1.215959	 -0.382435	 0.027143
H	 -0.000012	 1.086078	 0.683841
C	 -2.451944	 0.502410	 -0.038737
H	 -1.221867	 -1.069392	 -0.813828
H	 -1.259993	 -0.999709	 0.929424
C	 -3.752217	 -0.292550	 0.005776
H	 -2.407325	 1.093801	 -0.946480
H	 -2.431979	 1.206234	 0.790023
H	 -3.817783	 -0.982946	 -0.828547
H	 -4.612613	 0.364348	 -0.042306
H	 -3.830160	 -0.871666	 0.919868

	symmetry c1
}
set optking {
	frozen_dihedral = ("
		10 6 9 12
	")
}

ee,wfn = optimize('scf', return_wfn=True)
oeprop( wfn, 'DIPOLE', 'QUADRUPOLE', 'MULLIKEN_CHARGES')
f=open( 'psi4out.xyz', 'w' )
f.write( "22  " )
f.write( str(ee) + "\n" )
f.write( MOL.save_string_xyz() )
f.close()
--------------------------------------------------------------------------

  Memory set to   2.000 GiB by Python script.
gradient() will perform analytic gradient computation.

*** tstart() called on cx1-27-1-1
*** at Sat Sep 10 17:42:40 2016


         ---------------------------------------------------------
                                   SCF
            by Justin Turney, Rob Parrish, and Andy Simmonett
                              RHF Reference
                        4 Threads,   2000 MiB Core
         ---------------------------------------------------------

  ==> Geometry <==

    Molecular point group: c1
    Full point group: C1

    Geometry (in Angstrom), charge = 0, multiplicity = 1:

       Center              X                  Y                   Z               Mass       
    ------------   -----------------  -----------------  -----------------  -----------------
           H          4.542268226574     0.193515250897    -0.746049269753     1.007825032070
           C          3.714658226574    -0.381897749103    -0.348470269753    12.000000000000
           C          2.420238226574     0.423051250897    -0.382930269753    12.000000000000
           H          3.628580226574    -1.287249749103    -0.940051269753     1.007825032070
           H          3.971991226574    -0.673112749103     0.664441730247     1.007825032070
           C          1.230057226574    -0.348223749103     0.168042730247    12.000000000000
           H          2.196642226574     0.726273250897    -1.399702269753     1.007825032070
           H          2.549883226574     1.337620250897     0.190944730247     1.007825032070
           N          0.014109226574     0.433170250897     0.100004730247    14.003074004780
           H          1.084048226574    -1.249581749103    -0.419668269753     1.007825032070
           H          1.452361226574    -0.677772749103     1.187386730247     1.007825032070
           C         -1.201851773426    -0.348217749103     0.167998730247    12.000000000000
           H          0.014095226574     1.120295250897     0.824696730247     1.007825032070
           C         -2.437836773426     0.536627250897     0.102118730247    12.000000000000
           H         -1.207759773426    -1.035174749103    -0.672972269753     1.007825032070
           H         -1.245885773426    -0.965491749103     1.070279730247     1.007825032070
           C         -3.738109773426    -0.258332749103     0.146631730247    12.000000000000
           H         -2.393217773426     1.128018250897    -0.805624269753     1.007825032070
           H         -2.417871773426     1.240451250897     0.930878730247     1.007825032070
           H         -3.803675773426    -0.948728749103    -0.687691269753     1.007825032070
           H         -4.598505773426     0.398565250897     0.098549730247     1.007825032070
           H         -3.816052773426    -0.837448749103     1.060723730247     1.007825032070

  Running in c1 symmetry.

  Rotational constants: A =      0.41980  B =      0.02571  C =      0.02510 [cm^-1]
  Rotational constants: A =  12585.38602  B =    770.69851  C =    752.36257 [MHz]
  Nuclear repulsion =  313.782187032360525

  Charge       = 0
  Multiplicity = 1
  Electrons    = 58
  Nalpha       = 29
  Nbeta        = 29

  ==> Algorithm <==

  SCF Algorithm Type is DF.
  DIIS enabled.
  MOM disabled.
  Fractional occupation disabled.
  Guess Type is SAD.
  Energy threshold   = 1.00e-08
  Density threshold  = 1.00e-08
  Integral threshold = 0.00e+00

  ==> Primary Basis <==

  Basis Set: CC-PVTZ
    Number of shells: 160
    Number of basis function: 420
    Number of Cartesian functions: 470
    Spherical Harmonics?: true
    Max angular momentum: 3

  ==> Pre-Iterations <==

   -------------------------------------------------------
    Irrep   Nso     Nmo     Nalpha   Nbeta   Ndocc  Nsocc
   -------------------------------------------------------
     A        420     420       0       0       0       0
   -------------------------------------------------------
    Total     420     420      29      29      29       0
   -------------------------------------------------------

  ==> Integral Setup <==

  ==> DFJK: Density-Fitted J/K Matrices <==

    J tasked:                  Yes
    K tasked:                  Yes
    wK tasked:                  No
    OpenMP threads:              4
    Integrals threads:           4
    Memory (MB):              1430
    Algorithm:                Core
    Integral Cache:           NONE
    Schwarz Cutoff:          1E-12
    Fitting Condition:       1E-12

   => Auxiliary Basis Set <=

  Basis Set: 
    Number of shells: 325
    Number of basis function: 1003
    Number of Cartesian functions: 1197
    Spherical Harmonics?: true
    Max angular momentum: 4

  Minimum eigenvalue in the overlap matrix is 4.9992208066E-04.
  Using Symmetric Orthogonalization.
  SCF Guess: Superposition of Atomic Densities via on-the-fly atomic UHF.

  ==> Iterations <==

                           Total Energy        Delta E     RMS |[F,P]|

   @DF-RHF iter   0:  -294.02196240563285   -2.94022e+02   1.28803e-02 
   @DF-RHF iter   1:  -290.33441045411951    3.68755e+00   1.06499e-03 
   @DF-RHF iter   2:  -290.47236226846985   -1.37952e-01   3.64724e-04 DIIS
   @DF-RHF iter   3:  -290.48626241990701   -1.39002e-02   1.35056e-04 DIIS
   @DF-RHF iter   4:  -290.48871149192928   -2.44907e-03   2.95252e-05 DIIS
   @DF-RHF iter   5:  -290.48884673070631   -1.35239e-04   1.05406e-05 DIIS
   @DF-RHF iter   6:  -290.48886233320457   -1.56025e-05   2.47773e-06 DIIS
   @DF-RHF iter   7:  -290.48886343437334   -1.10117e-06   5.72928e-07 DIIS
   @DF-RHF iter   8:  -290.48886350497833   -7.06050e-08   1.66445e-07 DIIS
   @DF-RHF iter   9:  -290.48886351053557   -5.55724e-09   4.89046e-08 DIIS
   @DF-RHF iter  10:  -290.48886351103158   -4.96016e-10   1.36516e-08 DIIS
   @DF-RHF iter  11:  -290.48886351106785   -3.62661e-11   3.52978e-09 DIIS

  ==> Post-Iterations <==

    Orbital Energies (a.u.)
    -----------------------

    Doubly Occupied:                                                      

       1A    -15.527805     2A    -11.236625     3A    -11.236226  
       4A    -11.211835     5A    -11.208322     6A    -11.207667  
       7A    -11.205628     8A     -1.207413     9A     -1.059459  
      10A     -1.026524    11A     -0.928307    12A     -0.869581  
      13A     -0.809812    14A     -0.793289    15A     -0.672111  
      16A     -0.628091    17A     -0.616001    18A     -0.608849  
      19A     -0.576643    20A     -0.561946    21A     -0.532541  
      22A     -0.521750    23A     -0.517602    24A     -0.485400  
      25A     -0.484073    26A     -0.473625    27A     -0.465540  
      28A     -0.452064    29A     -0.359980  

    Virtual:                                                              

      30A      0.141397    31A      0.149441    32A      0.159203  
      33A      0.169881    34A      0.182467    35A      0.194929  
      36A      0.200673    37A      0.213187    38A      0.229409  
      39A      0.234630    40A      0.245039    41A      0.245840  
      42A      0.257406    43A      0.259308    44A      0.290857  
      45A      0.310011    46A      0.327916    47A      0.345529  
      48A      0.354632    49A      0.365664    50A      0.382244  
      51A      0.392831    52A      0.401942    53A      0.409162  
      54A      0.443042    55A      0.460502    56A      0.466543  
      57A      0.472796    58A      0.491281    59A      0.506215  
      60A      0.520905    61A      0.537947    62A      0.561922  
      63A      0.576877    64A      0.583380    65A      0.590501  
      66A      0.602137    67A      0.610905    68A      0.628626  
      69A      0.631283    70A      0.637465    71A      0.652257  
      72A      0.656176    73A      0.665274    74A      0.667790  
      75A      0.670520    76A      0.674276    77A      0.684450  
      78A      0.694289    79A      0.695838    80A      0.704012  
      81A      0.720104    82A      0.724225    83A      0.732531  
      84A      0.745945    85A      0.778512    86A      0.792157  
      87A      0.810364    88A      0.837587    89A      0.870432  
      90A      0.884450    91A      0.890496    92A      0.920784  
      93A      0.923507    94A      0.945005    95A      0.950466  
      96A      0.958739    97A      0.975038    98A      0.982604  
      99A      1.011479   100A      1.034678   101A      1.042737  
     102A      1.079244   103A      1.089108   104A      1.109178  
     105A      1.115512   106A      1.133723   107A      1.147865  
     108A      1.172479   109A      1.188265   110A      1.198368  
     111A      1.199008   112A      1.237063   113A      1.246533  
     114A      1.252088   115A      1.264287   116A      1.276354  
     117A      1.278466   118A      1.287125   119A      1.295421  
     120A      1.312518   121A      1.326990   122A      1.333358  
     123A      1.343140   124A      1.349009   125A      1.353821  
     126A      1.372609   127A      1.379299   128A      1.396350  
     129A      1.403757   130A      1.410453   131A      1.420550  
     132A      1.435308   133A      1.441998   134A      1.480291  
     135A      1.486845   136A      1.494250   137A      1.502457  
     138A      1.511385   139A      1.523384   140A      1.531305  
     141A      1.536547   142A      1.551725   143A      1.561213  
     144A      1.581128   145A      1.594468   146A      1.602179  
     147A      1.614116   148A      1.618676   149A      1.636715  
     150A      1.642633   151A      1.651482   152A      1.655210  
     153A      1.690032   154A      1.700813   155A      1.743983  
     156A      1.753007   157A      1.767416   158A      1.775394  
     159A      1.781220   160A      1.799793   161A      1.814746  
     162A      1.825993   163A      1.843314   164A      1.870990  
     165A      1.897836   166A      1.917007   167A      1.946386  
     168A      2.031603   169A      2.048801   170A      2.085167  
     171A      2.137134   172A      2.203702   173A      2.267849  
     174A      2.516178   175A      2.534075   176A      2.587499  
     177A      2.605027   178A      2.609283   179A      2.637852  
     180A      2.664934   181A      2.679035   182A      2.693444  
     183A      2.720691   184A      2.744522   185A      2.751999  
     186A      2.769182   187A      2.792272   188A      2.804289  
     189A      2.828125   190A      2.844327   191A      2.851939  
     192A      2.855484   193A      2.864550   194A      2.879316  
     195A      2.906062   196A      2.932339   197A      2.962084  
     198A      2.981202   199A      2.990533   200A      3.003970  
     201A      3.029436   202A      3.048778   203A      3.075599  
     204A      3.085850   205A      3.095021   206A      3.109426  
     207A      3.114785   208A      3.133372   209A      3.150672  
     210A      3.154532   211A      3.159031   212A      3.181636  
     213A      3.188129   214A      3.197645   215A      3.233625  
     216A      3.248808   217A      3.250476   218A      3.273668  
     219A      3.286911   220A      3.322234   221A      3.329570  
     222A      3.334208   223A      3.355767   224A      3.365897  
     225A      3.369421   226A      3.380280   227A      3.393201  
     228A      3.407935   229A      3.411995   230A      3.419083  
     231A      3.420471   232A      3.427049   233A      3.434118  
     234A      3.439982   235A      3.446319   236A      3.454381  
     237A      3.461905   238A      3.478135   239A      3.493768  
     240A      3.514784   241A      3.525603   242A      3.529200  
     243A      3.543939   244A      3.553416   245A      3.565163  
     246A      3.582836   247A      3.593567   248A      3.599806  
     249A      3.613084   250A      3.647031   251A      3.656616  
     252A      3.667016   253A      3.668747   254A      3.685635  
     255A      3.708388   256A      3.730824   257A      3.747996  
     258A      3.761504   259A      3.774780   260A      3.793063  
     261A      3.800314   262A      3.816881   263A      3.822864  
     264A      3.846088   265A      3.860863   266A      3.865586  
     267A      3.872593   268A      3.874459   269A      3.906836  
     270A      3.914731   271A      3.928620   272A      3.936138  
     273A      3.947107   274A      3.969180   275A      3.996528  
     276A      4.020530   277A      4.043203   278A      4.050992  
     279A      4.078531   280A      4.088624   281A      4.101489  
     282A      4.104032   283A      4.121778   284A      4.130511  
     285A      4.135368   286A      4.151779   287A      4.156055  
     288A      4.168046   289A      4.173378   290A      4.182311  
     291A      4.196535   292A      4.216916   293A      4.219355  
     294A      4.236443   295A      4.248324   296A      4.276025  
     297A      4.286464   298A      4.294544   299A      4.300532  
     300A      4.317670   301A      4.321470   302A      4.338184  
     303A      4.340433   304A      4.348975   305A      4.373291  
     306A      4.379638   307A      4.386016   308A      4.405481  
     309A      4.416876   310A      4.438207   311A      4.452316  
     312A      4.457725   313A      4.464254   314A      4.476679  
     315A      4.506323   316A      4.514044   317A      4.524597  
     318A      4.534756   319A      4.544366   320A      4.564704  
     321A      4.584399   322A      4.588789   323A      4.598466  
     324A      4.614282   325A      4.622880   326A      4.644648  
     327A      4.650923   328A      4.670056   329A      4.682582  
     330A      4.699471   331A      4.715526   332A      4.729148  
     333A      4.734337   334A      4.753301   335A      4.770875  
     336A      4.798099   337A      4.807985   338A      4.826526  
     339A      4.850123   340A      4.884970   341A      4.916321  
     342A      4.968174   343A      4.973229   344A      5.002635  
     345A      5.051726   346A      5.079057   347A      5.090328  
     348A      5.102877   349A      5.117946   350A      5.152788  
     351A      5.190326   352A      5.197110   353A      5.215171  
     354A      5.246504   355A      5.255824   356A      5.257345  
     357A      5.267193   358A      5.282965   359A      5.299079  
     360A      5.314631   361A      5.337172   362A      5.348074  
     363A      5.365103   364A      5.376828   365A      5.394117  
     366A      5.412873   367A      5.452885   368A      5.490138  
     369A      5.508638   370A      5.522535   371A      5.546265  
     372A      5.568470   373A      5.575865   374A      5.594556  
     375A      5.606907   376A      5.648370   377A      5.686478  
     378A      5.697530   379A      5.735419   380A      5.745752  
     381A      5.749304   382A      5.760610   383A      5.770910  
     384A      5.779085   385A      5.811094   386A      5.834411  
     387A      5.846009   388A      5.864629   389A      5.883684  
     390A      5.901352   391A      5.912333   392A      5.914412  
     393A      5.928091   394A      5.971286   395A      5.974844  
     396A      5.994677   397A      6.033473   398A      6.089688  
     399A      6.219435   400A      6.224553   401A      6.299198  
     402A      6.305439   403A      6.314596   404A      6.325856  
     405A      6.334754   406A      6.340151   407A      6.351987  
     408A      6.424159   409A      6.438117   410A      6.484917  
     411A      6.559967   412A      6.581811   413A      7.054139  
     414A     12.520730   415A     13.230509   416A     13.520099  
     417A     13.889438   418A     14.015430   419A     14.249916  
     420A     14.268117  

    Final Occupation by Irrep:
              A 
    DOCC [    29 ]

  Energy converged.

  @DF-RHF Final Energy:  -290.48886351106785

   => Energetics <=

    Nuclear Repulsion Energy =            313.7821870323605253
    One-Electron Energy =               -1013.5726791653868304
    Two-Electron Energy =                 409.3016286219585709
    DFT Exchange-Correlation Energy =       0.0000000000000000
    Empirical Dispersion Energy =           0.0000000000000000
    PCM Polarization Energy =               0.0000000000000000
    EFP Energy =                            0.0000000000000000
    Total Energy =                       -290.4888635110677342


  Saving occupied orbitals to File 180.

*** tstop() called on cx1-27-1-1 at Sat Sep 10 17:42:52 2016
Module time:
	user time   =      43.13 seconds =       0.72 minutes
	system time =       0.83 seconds =       0.01 minutes
	total time  =         12 seconds =       0.20 minutes
Total time:
	user time   =      43.13 seconds =       0.72 minutes
	system time =       0.83 seconds =       0.01 minutes
	total time  =         12 seconds =       0.20 minutes


Properties will be evaluated at   0.000000,   0.000000,   0.000000 Bohr

Properties computed using the SCF density matrix

  Nuclear Dipole Moment: (a.u.)
     X:    -0.0404      Y:    -1.4354      Z:     0.3336

  Electronic Dipole Moment: (a.u.)
     X:     0.0101      Y:     1.3466      Z:    -0.0166

  Dipole Moment: (a.u.)
     X:    -0.0304      Y:    -0.0888      Z:     0.3170     Total:     0.3306

  Dipole Moment: (Debye)
     X:    -0.0772      Y:    -0.2257      Z:     0.8056     Total:     0.8402


*** tstart() called on cx1-27-1-1
*** at Sat Sep 10 17:42:52 2016


         ------------------------------------------------------------
                                   SCF GRAD                          
                          Rob Parrish, Justin Turney,                
                       Andy Simmonett, and Alex Sokolov              
         ------------------------------------------------------------

  ==> Geometry <==

    Molecular point group: c1
    Full point group: C1

    Geometry (in Angstrom), charge = 0, multiplicity = 1:

       Center              X                  Y                   Z               Mass       
    ------------   -----------------  -----------------  -----------------  -----------------
           H          4.542268226574     0.193515250897    -0.746049269753     1.007825032070
           C          3.714658226574    -0.381897749103    -0.348470269753    12.000000000000
           C          2.420238226574     0.423051250897    -0.382930269753    12.000000000000
           H          3.628580226574    -1.287249749103    -0.940051269753     1.007825032070
           H          3.971991226574    -0.673112749103     0.664441730247     1.007825032070
           C          1.230057226574    -0.348223749103     0.168042730247    12.000000000000
           H          2.196642226574     0.726273250897    -1.399702269753     1.007825032070
           H          2.549883226574     1.337620250897     0.190944730247     1.007825032070
           N          0.014109226574     0.433170250897     0.100004730247    14.003074004780
           H          1.084048226574    -1.249581749103    -0.419668269753     1.007825032070
           H          1.452361226574    -0.677772749103     1.187386730247     1.007825032070
           C         -1.201851773426    -0.348217749103     0.167998730247    12.000000000000
           H          0.014095226574     1.120295250897     0.824696730247     1.007825032070
           C         -2.437836773426     0.536627250897     0.102118730247    12.000000000000
           H         -1.207759773426    -1.035174749103    -0.672972269753     1.007825032070
           H         -1.245885773426    -0.965491749103     1.070279730247     1.007825032070
           C         -3.738109773426    -0.258332749103     0.146631730247    12.000000000000
           H         -2.393217773426     1.128018250897    -0.805624269753     1.007825032070
           H         -2.417871773426     1.240451250897     0.930878730247     1.007825032070
           H         -3.803675773426    -0.948728749103    -0.687691269753     1.007825032070
           H         -4.598505773426     0.398565250897     0.098549730247     1.007825032070
           H         -3.816052773426    -0.837448749103     1.060723730247     1.007825032070

  Nuclear repulsion =  313.782187032360525

  ==> Basis Set <==

  Basis Set: CC-PVTZ
    Number of shells: 160
    Number of basis function: 420
    Number of Cartesian functions: 470
    Spherical Harmonics?: true
    Max angular momentum: 3

  ==> DFJKGrad: Density-Fitted SCF Gradients <==

    Gradient:                    1
    J tasked:                  Yes
    K tasked:                  Yes
    wK tasked:                  No
    OpenMP threads:              4
    Integrals threads:           4
    Memory (MB):              1430
    Schwarz Cutoff:          0E+00
    Fitting Condition:       1E-12

   => Auxiliary Basis Set <=

  Basis Set: 
    Number of shells: 325
    Number of basis function: 1003
    Number of Cartesian functions: 1197
    Spherical Harmonics?: true
    Max angular momentum: 4


  -Total Gradient:
     Atom            X                  Y                   Z
    ------   -----------------  -----------------  -----------------
       1       -0.000102671025     0.000049152908    -0.000012486740
       2       -0.000042631365    -0.000207126232    -0.000068305850
       3       -0.001643323700    -0.000213726975    -0.000874207124
       4       -0.000059842609     0.000200682575     0.000046645901
       5       -0.000133889131     0.000103384710    -0.000092343071
       6       -0.001748124697     0.000276177552    -0.000020547560
       7        0.000341569976     0.000037156449    -0.000356408595
       8        0.000392008072     0.000027306594     0.000348989534
       9        0.001645758307     0.000577452867     0.000761780738
      10       -0.000630489834    -0.000855349814     0.000178957974
      11        0.000550481253     0.000922589261     0.000995198044
      12        0.000808389714     0.000078317934    -0.001708790302
      13        0.000097035430    -0.000713370513     0.001256732884
      14       -0.000035419054     0.000036724759    -0.000312056747
      15        0.000032323645    -0.000449535130    -0.000127179040
      16        0.000572678731     0.000137369496    -0.000078105424
      17       -0.000011409468     0.000013703456     0.000002996888
      18       -0.000082384436    -0.000009420802     0.000027377347
      19        0.000058662084     0.000004255610     0.000004487246
      20       -0.000001039591     0.000007898126     0.000011665197
      21        0.000002424248    -0.000007254968     0.000016493267
      22       -0.000010106551    -0.000016387862    -0.000000894567


*** tstop() called on cx1-27-1-1 at Sat Sep 10 17:43:05 2016
Module time:
	user time   =      47.46 seconds =       0.79 minutes
	system time =       0.88 seconds =       0.01 minutes
	total time  =         13 seconds =       0.22 minutes
Total time:
	user time   =      90.70 seconds =       1.51 minutes
	system time =       1.71 seconds =       0.03 minutes
	total time  =         25 seconds =       0.42 minutes

			-----------------------------------------
			 OPTKING 2.0: for geometry optimizations 
			  - R.A. King,  Bethel University        
			-----------------------------------------

	Internal coordinates to be generated automatically.
	Detected frag 1 with atoms:  1 2 3 4 5 6 7 8 9 10 11 12 13 14 15 16 17 18 19 20
	 21 22
	---Fragment 1 Bond Connectivity---
	 1 : 2
	 2 : 1 3 4 5
	 3 : 2 6 7 8
	 4 : 2
	 5 : 2
	 6 : 3 9 10 11
	 7 : 3
	 8 : 3
	 9 : 6 12 13
	 10 : 6
	 11 : 6
	 12 : 9 14 15 16
	 13 : 9
	 14 : 12 17 18 19
	 15 : 12
	 16 : 12
	 17 : 14 20 21 22
	 18 : 14
	 19 : 14
	 20 : 17
	 21 : 17
	 22 : 17

	Assuming in current code that numbering for constraints corresponds to unified fragment.
	Frozen dihedral atom list: 
	    10     6     9    12
	---Fragment 1 Geometry and Gradient---
	 H           8.5836429703        0.3656908267       -1.4098288015
	 C           7.0196867255       -0.7216821566       -0.6585133753
	 C           4.5735874246        0.7994510044       -0.7236333378
	 H           6.8570228794       -2.4325494904       -1.7764394507
	 H           7.5059756204       -1.2719987524        1.2556129014
	 C           2.3244712860       -0.6580475188        0.3175547388
	 H           4.1510522202        1.3724575418       -2.6450539574
	 H           4.8185809691        2.5277359440        0.3608332467
	 N           0.0266625742        0.8185731431        0.1889815522
	 H           2.0485542631       -2.3613672865       -0.7930580965
	 H           2.7445649642       -1.2808048761        2.2438357340
	 C          -2.2711707041       -0.6580361804        0.3174715908
	 H           0.0266361180        2.1170512122        1.5584509629
	 C          -4.6068438585        1.0140785396        0.1929764332
	 H          -2.2823352061       -1.9561967755       -1.2717332849
	 H          -2.3543829046       -1.8245149894        2.0225355757
	 C          -7.0640037264       -0.4881781470        0.2770938126
	 H          -4.5225261681        2.1316455671       -1.5224092358
	 H          -4.5691154762        2.3441131454        1.7591058631
	 H          -7.1879055101       -1.7928375102       -1.2995481638
	 H          -8.6899165323        0.7531791703        0.1862320006
	 H          -7.2112946504       -1.5825487861        2.0044773528
	            -0.0001026710        0.0000491529       -0.0000124867
	            -0.0000426314       -0.0002071262       -0.0000683058
	            -0.0016433237       -0.0002137270       -0.0008742071
	            -0.0000598426        0.0002006826        0.0000466459
	            -0.0001338891        0.0001033847       -0.0000923431
	            -0.0017481247        0.0002761776       -0.0000205476
	             0.0003415700        0.0000371564       -0.0003564086
	             0.0003920081        0.0000273066        0.0003489895
	             0.0016457583        0.0005774529        0.0007617807
	            -0.0006304898       -0.0008553498        0.0001789580
	             0.0005504813        0.0009225893        0.0009951980
	             0.0008083897        0.0000783179       -0.0017087903
	             0.0000970354       -0.0007133705        0.0012567329
	            -0.0000354191        0.0000367248       -0.0003120567
	             0.0000323236       -0.0004495351       -0.0001271790
	             0.0005726787        0.0001373695       -0.0000781054
	            -0.0000114095        0.0000137035        0.0000029969
	            -0.0000823844       -0.0000094208        0.0000273773
	             0.0000586621        0.0000042556        0.0000044872
	            -0.0000010396        0.0000078981        0.0000116652
	             0.0000024242       -0.0000072550        0.0000164933
	            -0.0000101066       -0.0000163879       -0.0000008946

	Previous optimization step data not found.  Starting new optimization.

	---Fragment 1 Intrafragment Coordinates---
	 - Coordinate -           - BOHR/RAD -       - ANG/DEG -
	 R(1,2)           =         2.047636	       1.083562
	 R(2,3)           =         2.881230	       1.524681
	 R(2,4)           =         2.050192	       1.084915
	 R(2,5)           =         2.050172	       1.084904
	 R(3,6)           =         2.875221	       1.521502
	 R(3,7)           =         2.049080	       1.084327
	 R(3,8)           =         2.055008	       1.087463
	 R(6,9)           =         2.734386	       1.446975
	 R(6,10)          =         2.052045	       1.085896
	 R(6,11)          =         2.067574	       1.094113
	 R(9,12)          =         2.734396	       1.446980
	 R(9,13)          =         1.887192	       0.998659
	 R(12,14)         =         2.875211	       1.521496
	 R(12,15)         =         2.052052	       1.085899
	 R(12,16)         =         2.067569	       1.094110
	 R(14,17)         =         2.881230	       1.524681
	 R(14,18)         =         2.049052	       1.084312
	 R(14,19)         =         2.055037	       1.087479
	 R(17,20)         =         2.050192	       1.084915
	 R(17,21)         =         2.047637	       1.083563
	 R(17,22)         =         2.050170	       1.084903
	 B(1,2,3)         =         1.938834	     111.086991
	 B(1,2,4)         =         1.879342	     107.678369
	 B(1,2,5)         =         1.879631	     107.694911
	 B(2,3,6)         =         1.969578	     112.848497
	 B(2,3,7)         =         1.921857	     110.114285
	 B(2,3,8)         =         1.908019	     109.321458
	 B(3,2,4)         =         1.940011	     111.154467
	 B(3,2,5)         =         1.943557	     111.357606
	 B(3,6,9)         =         1.946121	     111.504527
	 B(3,6,10)        =         1.907059	     109.266419
	 B(3,6,11)        =         1.908292	     109.337064
	 B(4,2,5)         =         1.879597	     107.692977
	 B(6,3,7)         =         1.896541	     108.663815
	 B(6,3,8)         =         1.905490	     109.176543
	 B(6,9,12)        =         1.995824	     114.352309
	 B(6,9,13)        =         1.915002	     109.721554
	 B(7,3,8)         =         1.859014	     106.513663
	 B(9,6,10)        =         1.885787	     108.047652
	 B(9,6,11)        =         1.957572	     112.160592
	 B(9,12,14)       =         1.946112	     111.504004
	 B(9,12,15)       =         1.885780	     108.047255
	 B(9,12,16)       =         1.957607	     112.162597
	 B(10,6,11)       =         1.856196	     106.352180
	 B(12,9,13)       =         1.914996	     109.721210
	 B(12,14,17)      =         1.969579	     112.848552
	 B(12,14,18)      =         1.896535	     108.663470
	 B(12,14,19)      =         1.905489	     109.176501
	 B(14,12,15)      =         1.907050	     109.265911
	 B(14,12,16)      =         1.908286	     109.336714
	 B(14,17,20)      =         1.940010	     111.154371
	 B(14,17,21)      =         1.938837	     111.087194
	 B(14,17,22)      =         1.943554	     111.357450
	 B(15,12,16)      =         1.856191	     106.351912
	 B(17,14,18)      =         1.921870	     110.115025
	 B(17,14,19)      =         1.908009	     109.320840
	 B(18,14,19)      =         1.859018	     106.513882
	 B(20,17,21)      =         1.879343	     107.678409
	 B(20,17,22)      =         1.879597	     107.692996
	 B(21,17,22)      =         1.879631	     107.694905
	 D(1,2,3,6)       =        -3.141032	    -179.967851
	 D(1,2,3,7)       =         1.019661	      58.422276
	 D(1,2,3,8)       =        -1.016982	     -58.268782
	 D(2,3,6,9)       =        -3.123961	    -178.989805
	 D(2,3,6,10)      =        -1.040546	     -59.618891
	 D(2,3,6,11)      =         0.984441	      56.404294
	 D(3,6,9,12)      =         2.794123	     160.091434
	 D(3,6,9,13)      =        -1.329024	     -76.147441
	 D(4,2,3,6)       =         1.049835	      60.151110
	 D(4,2,3,7)       =        -1.072658	     -61.458763
	 D(4,2,3,8)       =        -3.109301	    -178.149821
	 D(5,2,3,6)       =        -1.045975	     -59.929931
	 D(5,2,3,7)       =         3.114718	     178.460196
	 D(5,2,3,8)       =         1.078075	      61.769138
	 D(6,9,12,14)     =         3.133736	     179.549867
	 D(6,9,12,15)     =        -1.053478	     -60.359857
	 D(6,9,12,16)     =         0.986826	      56.540990
	 D(7,3,6,9)       =        -0.987220	     -56.563537
	 D(7,3,6,10)      =         1.096196	      62.807377
	 D(7,3,6,11)      =         3.121182	     178.830562
	 D(8,3,6,9)       =         1.033747	      59.229320
	 D(8,3,6,10)      =         3.117162	     178.600233
	 D(8,3,6,11)      =        -1.141037	     -65.376582
	 D(9,12,14,17)    =         3.123905	     178.986582
	 D(9,12,14,18)    =         0.987151	      56.559580
	 D(9,12,14,19)    =        -1.033817	     -59.233325
	*D(10,6,9,12)     =         0.698131	      39.999959
	 D(10,6,9,13)     =         2.858170	     163.761084
	 D(11,6,9,12)     =        -1.342164	     -76.900316
	 D(11,6,9,13)     =         0.817875	      46.860809
	 D(12,14,17,20)   =        -1.049744	     -60.145892
	 D(12,14,17,21)   =         3.141120	     179.972947
	 D(12,14,17,22)   =         1.046063	      59.935002
	 D(13,9,12,14)    =         0.973694	      55.788557
	 D(13,9,12,15)    =         3.069665	     175.878833
	 D(13,9,12,16)    =        -1.173216	     -67.220320
	 D(15,12,14,17)   =         1.040510	      59.616817
	 D(15,12,14,18)   =        -1.096245	     -62.810185
	 D(15,12,14,19)   =        -3.117212	    -178.603090
	 D(16,12,14,17)   =        -0.984463	     -56.405565
	 D(16,12,14,18)   =        -3.121217	    -178.832567
	 D(16,12,14,19)   =         1.141001	      65.374528
	 D(18,14,17,20)   =         1.072751	      61.464109
	 D(18,14,17,21)   =        -1.019570	     -58.417052
	 D(18,14,17,22)   =        -3.114627	    -178.454997
	 D(19,14,17,20)   =         3.109400	     178.155497
	 D(19,14,17,21)   =         1.017079	      58.274336
	 D(19,14,17,22)   =        -1.077978	     -61.763609

	Current energy   :      -290.4888635111

	Generating empirical Hessian (Schlegel '84) for each fragment.
	Taking RFO optimization step.
	Going to follow RFO solution 1.
	Using RFO vector 1.
	Norm of target step-size    0.15593
	Projected energy change by RFO approximation:        -0.0000209892

	Back-transformation to cartesian coordinates...
	Successfully converged to displaced geometry.

	Back-transformation to cartesian coordinates to adjust frozen coordinates...
	Successfully converged to displaced geometry.

	--- Internal Coordinate Step in ANG or DEG, aJ/ANG or AJ/DEG ---
	 ---------------------------------------------------------------------------
	   Coordinate                Previous        Force       Change         New 
	   ----------                --------       ------       ------       ------
	    1 R(1,2)          =      1.083562     0.000393     0.000071     1.083633
	    2 R(2,3)          =      1.524681     0.003030     0.000650     1.525331
	    3 R(2,4)          =      1.084915     0.001550     0.000281     1.085196
	    4 R(2,5)          =      1.084904     0.001201     0.000218     1.085122
	    5 R(3,6)          =      1.521502     0.005054     0.001073     1.522574
	    6 R(3,7)          =      1.084327    -0.002259    -0.000409     1.083918
	    7 R(3,8)          =      1.087463    -0.002092    -0.000382     1.087081
	    8 R(6,9)          =      1.446975     0.022760     0.003780     1.450754
	    9 R(6,10)         =      1.085896    -0.005750    -0.001046     1.084850
	   10 R(6,11)         =      1.094113    -0.006271    -0.001172     1.092941
	   11 R(9,12)         =      1.446980     0.009165     0.001522     1.448502
	   12 R(9,13)         =      0.998659    -0.003470    -0.000465     0.998194
	   13 R(12,14)        =      1.521496    -0.000761    -0.000162     1.521334
	   14 R(12,15)        =      1.085899    -0.003153    -0.000573     1.085326
	   15 R(12,16)        =      1.094110     0.001359     0.000254     1.094364
	   16 R(14,17)        =      1.524681    -0.000157    -0.000034     1.524647
	   17 R(14,18)        =      1.084312     0.000259     0.000047     1.084358
	   18 R(14,19)        =      1.087479    -0.000060    -0.000011     1.087468
	   19 R(17,20)        =      1.084915     0.000115     0.000021     1.084936
	   20 R(17,21)        =      1.083563     0.000058     0.000010     1.083573
	   21 R(17,22)        =      1.084903    -0.000072    -0.000013     1.084890
	   22 B(1,2,3)        =    111.086991     0.000008     0.049206   111.136196
	   23 B(1,2,4)        =    107.678369    -0.000006    -0.031715   107.646655
	   24 B(1,2,5)        =    107.694911    -0.000009    -0.048091   107.646820
	   25 B(2,3,6)        =    112.848497     0.000020     0.108449   112.956946
	   26 B(2,3,7)        =    110.114285     0.000019     0.164743   110.279028
	   27 B(2,3,8)        =    109.321458     0.000006     0.135547   109.457005
	   28 B(3,2,4)        =    111.154467     0.000006     0.030955   111.185423
	   29 B(3,2,5)        =    111.357606     0.000010     0.043646   111.401252
	   30 B(3,6,9)        =    111.504527     0.000092     0.557830   112.062357
	   31 B(3,6,10)       =    109.266419     0.000020     0.795537   110.061956
	   32 B(3,6,11)       =    109.337064    -0.000032    -0.198939   109.138125
	   33 B(4,2,5)        =    107.692977    -0.000010    -0.051680   107.641298
	   34 B(6,3,7)        =    108.663815    -0.000030    -0.226639   108.437177
	   35 B(6,3,8)        =    109.176543    -0.000012    -0.075666   109.100878
	   36 B(6,9,12)       =    114.352309     0.000151     0.778106   115.130415
	   37 B(6,9,13)       =    109.721554    -0.000011     0.561984   110.283538
	   38 B(7,3,8)        =    106.513663    -0.000005    -0.124282   106.389381
	   39 B(9,6,10)       =    108.047652    -0.000020     0.188317   108.235970
	   40 B(9,6,11)       =    112.160592    -0.000035    -0.429007   111.731586
	   41 B(9,12,14)      =    111.504004    -0.000022    -0.087174   111.416830
	   42 B(9,12,15)      =    108.047255    -0.000006    -0.085615   107.961640
	   43 B(9,12,16)      =    112.162597     0.000046     0.338457   112.501054
	   44 B(10,6,11)      =    106.352180    -0.000029    -0.959948   105.392231
	   45 B(12,9,13)      =    109.721210    -0.000070     0.468518   110.189728
	   46 B(12,14,17)     =    112.848552    -0.000000    -0.006139   112.842413
	   47 B(12,14,18)     =    108.663470    -0.000006    -0.048814   108.614657
	   48 B(12,14,19)     =    109.176501     0.000005     0.046791   109.223292
	   49 B(14,12,15)     =    109.265911     0.000008    -0.059170   109.206740
	   50 B(14,12,16)     =    109.336714    -0.000030    -0.171901   109.164813
	   51 B(14,17,20)     =    111.154371     0.000000     0.003938   111.158309
	   52 B(14,17,21)     =    111.087194    -0.000000    -0.005687   111.081507
	   53 B(14,17,22)     =    111.357450    -0.000001    -0.013600   111.343850
	   54 B(15,12,16)     =    106.351912     0.000004     0.065716   106.417628
	   55 B(17,14,18)     =    110.115025     0.000003    -0.001208   110.113818
	   56 B(17,14,19)     =    109.320840    -0.000002     0.008333   109.329173
	   57 B(18,14,19)     =    106.513882     0.000000     0.001736   106.515619
	   58 B(20,17,21)     =    107.678409    -0.000000    -0.000659   107.677750
	   59 B(20,17,22)     =    107.692996     0.000001     0.006383   107.699379
	   60 B(21,17,22)     =    107.694905     0.000001     0.010565   107.705471
	   61 D(1,2,3,6)      =   -179.967851    -0.000001    -0.178681  -180.146532
	   62 D(1,2,3,7)      =     58.422276     0.000001    -0.080875    58.341401
	   63 D(1,2,3,8)      =    -58.268782    -0.000000    -0.105360   -58.374142
	   64 D(2,3,6,9)      =   -178.989805    -0.000005    -2.442102  -181.431907
	   65 D(2,3,6,10)     =    -59.618891     0.000005    -1.316990   -60.935882
	   66 D(2,3,6,11)     =     56.404294    -0.000005    -2.136668    54.267626
	   67 D(3,6,9,12)     =    160.091434     0.000015     1.458883   161.550317
	   68 D(3,6,9,13)     =    -76.147441     0.000018     3.132985   -73.014455
	   69 D(4,2,3,6)      =     60.151110    -0.000001    -0.192188    59.958922
	   70 D(4,2,3,7)      =    -61.458763     0.000001    -0.094381   -61.553144
	   71 D(4,2,3,8)      =   -178.149821    -0.000001    -0.118867  -178.268688
	   72 D(5,2,3,6)      =    -59.929931    -0.000001    -0.177030   -60.106961
	   73 D(5,2,3,7)      =    178.460196     0.000002    -0.079224   178.380972
	   74 D(5,2,3,8)      =     61.769138    -0.000000    -0.103709    61.665429
	   75 D(6,9,12,14)    =    179.549867     0.000002    -0.097885   179.451982
	   76 D(6,9,12,15)    =    -60.359857     0.000000    -0.278197   -60.638054
	   77 D(6,9,12,16)    =     56.540990     0.000007    -0.057068    56.483922
	   78 D(7,3,6,9)      =    -56.563537    -0.000002    -2.321836   -58.885373
	   79 D(7,3,6,10)     =     62.807377     0.000009    -1.196724    61.610653
	   80 D(7,3,6,11)     =    178.830562    -0.000001    -2.016401   176.814161
	   81 D(8,3,6,9)      =     59.229320    -0.000008    -2.633957    56.595363
	   82 D(8,3,6,10)     =    178.600233     0.000002    -1.508845   177.091389
	   83 D(8,3,6,11)     =    -65.376582    -0.000008    -2.328522   -67.705103
	   84 D(9,12,14,17)   =    178.986582    -0.000003    -0.627089   178.359493
	   85 D(9,12,14,18)   =     56.559580    -0.000003    -0.586646    55.972934
	   86 D(9,12,14,19)   =    -59.233325    -0.000003    -0.587279   -59.820604
	   87 *D(10,6,9,12)   =     39.999959    -0.000000    -0.000000    39.999959
	   88 D(10,6,9,13)    =    163.761084     0.000002     1.674102   165.435186
	   89 D(11,6,9,12)    =    -76.900316     0.000016     1.295018   -75.605298
	   90 D(11,6,9,13)    =     46.860809     0.000018     2.969120    49.829930
	   91 D(12,14,17,20)  =    -60.145892     0.000001     0.187483   -59.958409
	   92 D(12,14,17,21)  =    179.972947     0.000001     0.189486   180.162433
	   93 D(12,14,17,22)  =     59.935002     0.000001     0.189074    60.124076
	   94 D(13,9,12,14)   =     55.788557    -0.000007    -1.820359    53.968198
	   95 D(13,9,12,15)   =    175.878833    -0.000009    -2.000672   173.878162
	   96 D(13,9,12,16)   =    -67.220320    -0.000003    -1.779543   -68.999863
	   97 D(15,12,14,17)  =     59.616817     0.000000    -0.428547    59.188270
	   98 D(15,12,14,18)  =    -62.810185     0.000000    -0.388104   -63.198289
	   99 D(15,12,14,19)  =   -178.603090     0.000000    -0.388737  -178.991827
	  100 D(16,12,14,17)  =    -56.405565     0.000002    -0.378167   -56.783732
	  101 D(16,12,14,18)  =   -178.832567     0.000002    -0.337725  -179.170291
	  102 D(16,12,14,19)  =     65.374528     0.000002    -0.338357    65.036171
	  103 D(18,14,17,20)  =     61.464109    -0.000000     0.119645    61.583754
	  104 D(18,14,17,21)  =    -58.417052    -0.000000     0.121649   -58.295403
	  105 D(18,14,17,22)  =   -178.454997    -0.000000     0.121236  -178.333761
	  106 D(19,14,17,20)  =    178.155497    -0.000000     0.125937   178.281434
	  107 D(19,14,17,21)  =     58.274336    -0.000000     0.127940    58.402277
	  108 D(19,14,17,22)  =    -61.763609    -0.000000     0.127528   -61.636081
	 ---------------------------------------------------------------------------
	Successfully symmetrized geometry.

  ==> Convergence Check <==

  Measures of convergence in internal coordinates in au.
  Criteria marked as inactive (o), active & met (*), and active & unmet ( ).
  --------------------------------------------------------------------------------------------- ~
   Step     Total Energy     Delta E     MAX Force     RMS Force      MAX Disp      RMS Disp    ~
  --------------------------------------------------------------------------------------------- ~
    Convergence Criteria    1.00e-06 *    3.00e-04 *             o    1.20e-03 *             o  ~
  --------------------------------------------------------------------------------------------- ~
      1    -290.48886351   -2.90e+02      2.76e-03      4.75e-04 o    5.47e-02      1.50e-02 o  ~
  ---------------------------------------------------------------------------------------------

	Writing optimization data to binary file.
	Structure for next step:
	Cartesian Geometry (in Angstrom)
	    H     4.5618849960   0.1992248999  -0.7151281485
	    C     3.7312573336  -0.3810328806  -0.3309148427
	    C     2.4291560250   0.4104808415  -0.3992795173
	    H     3.6675568915  -1.2922015205  -0.9168870262
	    H     3.9705574252  -0.6622886666   0.6894380291
	    C     1.2321076672  -0.3687708737   0.1280486816
	    H     2.2224532642   0.7061263616  -1.4214076253
	    H     2.5340744704   1.3301345617   0.1707859355
	    N     0.0109393389   0.4132663444   0.0849945125
	    H     1.0819449725  -1.2656002226  -0.4635997098
	    H     1.4513245578  -0.7215057652   1.1390101773
	    C    -1.2145702984  -0.3548883258   0.1638826105
	    H     0.0240915848   1.1148270951   0.7949458308
	    C    -2.4390463098   0.5471136406   0.1250361664
	    H    -1.2415135748  -1.0302399307  -0.6852972948
	    H    -1.2587308632  -0.9822083198   1.0595122293
	    C    -3.7492546228  -0.2314894158   0.1660380544
	    H    -2.3937220270   1.1537716551  -0.7725967849
	    H    -2.4031897362   1.2358915051   0.9658010398
	    H    -3.8295112539  -0.9077436733  -0.6785474089
	    H    -4.6012252429   0.4372875472   0.1341899512
	    H    -3.8284196135  -0.8238003378   1.0715142054
			--------------------------
			 OPTKING Finished Execution 
			--------------------------

    Structure for next step:
    Molecular point group: c1
    Full point group: C1

    Geometry (in Angstrom), charge = 0, multiplicity = 1:

    H            4.562021211835     0.201956023614    -0.713136073776
    C            3.731393549462    -0.378301756827    -0.328922767972
    C            2.429292240894     0.413211965267    -0.397287442631
    H            3.667693107316    -1.289470396723    -0.914894951482
    H            3.970693641107    -0.659557542894     0.691430103791
    C            1.232243883089    -0.366039749945     0.130040756317
    H            2.222589480093     0.708857485331    -1.419415550604
    H            2.534210686232     1.332865685425     0.172778010253
    N            0.011075554774     0.415997468175     0.086986587246
    H            1.082081188383    -1.262869098812    -0.461607635124
    H            1.451460773711    -0.718774641425     1.141002251992
    C           -1.214434082517    -0.352157202004     0.165874685232
    H            0.024227800643     1.117558218874     0.796937905519
    C           -2.438910093944     0.549844764309     0.127028241119
    H           -1.241377358957    -1.027508806944    -0.683305220061
    H           -1.258594647356    -0.979477196049     1.061504304013
    C           -3.749118406985    -0.228758292050     0.168030129124
    H           -2.393585811148     1.156502778824    -0.770604710220
    H           -2.403053520375     1.238622628859     0.967793114507
    H           -3.829375038037    -0.905012549573    -0.676555334235
    H           -4.601089027036     0.440018670962     0.136182025895
    H           -3.828283397611    -0.821069214070     1.073506280120

gradient() will perform analytic gradient computation.

*** tstart() called on cx1-27-1-1
*** at Sat Sep 10 17:43:06 2016


         ---------------------------------------------------------
                                   SCF
            by Justin Turney, Rob Parrish, and Andy Simmonett
                              RHF Reference
                        4 Threads,   2000 MiB Core
         ---------------------------------------------------------

  ==> Geometry <==

    Molecular point group: c1
    Full point group: C1

    Geometry (in Angstrom), charge = 0, multiplicity = 1:

       Center              X                  Y                   Z               Mass       
    ------------   -----------------  -----------------  -----------------  -----------------
           H          4.562021211835     0.201956023614    -0.713136073776     1.007825032070
           C          3.731393549462    -0.378301756827    -0.328922767972    12.000000000000
           C          2.429292240894     0.413211965267    -0.397287442631    12.000000000000
           H          3.667693107316    -1.289470396723    -0.914894951482     1.007825032070
           H          3.970693641107    -0.659557542894     0.691430103791     1.007825032070
           C          1.232243883089    -0.366039749945     0.130040756317    12.000000000000
           H          2.222589480093     0.708857485331    -1.419415550604     1.007825032070
           H          2.534210686232     1.332865685425     0.172778010253     1.007825032070
           N          0.011075554774     0.415997468175     0.086986587246    14.003074004780
           H          1.082081188383    -1.262869098812    -0.461607635124     1.007825032070
           H          1.451460773711    -0.718774641425     1.141002251992     1.007825032070
           C         -1.214434082517    -0.352157202004     0.165874685232    12.000000000000
           H          0.024227800643     1.117558218874     0.796937905519     1.007825032070
           C         -2.438910093944     0.549844764309     0.127028241119    12.000000000000
           H         -1.241377358957    -1.027508806944    -0.683305220061     1.007825032070
           H         -1.258594647356    -0.979477196049     1.061504304013     1.007825032070
           C         -3.749118406985    -0.228758292050     0.168030129124    12.000000000000
           H         -2.393585811148     1.156502778824    -0.770604710220     1.007825032070
           H         -2.403053520375     1.238622628859     0.967793114507     1.007825032070
           H         -3.829375038037    -0.905012549573    -0.676555334235     1.007825032070
           H         -4.601089027036     0.440018670962     0.136182025895     1.007825032070
           H         -3.828283397611    -0.821069214070     1.073506280120     1.007825032070

  Running in c1 symmetry.

  Rotational constants: A =      0.42679  B =      0.02554  C =      0.02493 [cm^-1]
  Rotational constants: A =  12794.98532  B =    765.70848  C =    747.28907 [MHz]
  Nuclear repulsion =  313.322462936539807

  Charge       = 0
  Multiplicity = 1
  Electrons    = 58
  Nalpha       = 29
  Nbeta        = 29

  ==> Algorithm <==

  SCF Algorithm Type is DF.
  DIIS enabled.
  MOM disabled.
  Fractional occupation disabled.
  Guess Type is READ.
  Energy threshold   = 1.00e-08
  Density threshold  = 1.00e-08
  Integral threshold = 0.00e+00

  ==> Primary Basis <==

  Basis Set: CC-PVTZ
    Number of shells: 160
    Number of basis function: 420
    Number of Cartesian functions: 470
    Spherical Harmonics?: true
    Max angular momentum: 3

  ==> Pre-Iterations <==

   -------------------------------------------------------
    Irrep   Nso     Nmo     Nalpha   Nbeta   Ndocc  Nsocc
   -------------------------------------------------------
     A        420     420       0       0       0       0
   -------------------------------------------------------
    Total     420     420      29      29      29       0
   -------------------------------------------------------

  ==> Integral Setup <==

  ==> DFJK: Density-Fitted J/K Matrices <==

    J tasked:                  Yes
    K tasked:                  Yes
    wK tasked:                  No
    OpenMP threads:              4
    Integrals threads:           4
    Memory (MB):              1430
    Algorithm:                Core
    Integral Cache:           NONE
    Schwarz Cutoff:          1E-12
    Fitting Condition:       1E-12

   => Auxiliary Basis Set <=

  Basis Set: 
    Number of shells: 325
    Number of basis function: 1003
    Number of Cartesian functions: 1197
    Spherical Harmonics?: true
    Max angular momentum: 4

  Minimum eigenvalue in the overlap matrix is 5.0061227810E-04.
  Using Symmetric Orthogonalization.
  SCF Guess: Reading in previously saved MOs, projecting if necessary.

  Using orbitals from previous SCF, no projection.
  Recomputing DOCC and SOCC from number of alpha and beta electrons from previous calculation.
              A 
    DOCC [    29 ]

  ==> Iterations <==

                           Total Energy        Delta E     RMS |[F,P]|

   @DF-RHF iter   0:  -290.48511224051259   -2.90485e+02   1.27284e-04 
   @DF-RHF iter   1:  -290.48889377608765   -3.78154e-03   2.38132e-05 
   @DF-RHF iter   2:  -290.48897731051437   -8.35344e-05   8.39168e-06 DIIS
   @DF-RHF iter   3:  -290.48898787392676   -1.05634e-05   4.22033e-06 DIIS
   @DF-RHF iter   4:  -290.48898965036614   -1.77644e-06   5.10405e-07 DIIS
   @DF-RHF iter   5:  -290.48898970948056   -5.91144e-08   1.65278e-07 DIIS
   @DF-RHF iter   6:  -290.48898971574448   -6.26392e-09   4.88082e-08 DIIS
   @DF-RHF iter   7:  -290.48898971628449   -5.40012e-10   1.49734e-08 DIIS
   @DF-RHF iter   8:  -290.48898971633906   -5.45697e-11   4.39767e-09 DIIS

  ==> Post-Iterations <==

    Orbital Energies (a.u.)
    -----------------------

    Doubly Occupied:                                                      

       1A    -15.527473     2A    -11.236785     3A    -11.236510  
       4A    -11.211880     5A    -11.209291     6A    -11.207676  
       7A    -11.206350     8A     -1.204813     9A     -1.059421  
      10A     -1.026512    11A     -0.928453    12A     -0.869803  
      13A     -0.809900    14A     -0.794125    15A     -0.670244  
      16A     -0.627993    17A     -0.616031    18A     -0.608942  
      19A     -0.575727    20A     -0.562358    21A     -0.532103  
      22A     -0.523051    23A     -0.517446    24A     -0.484994  
      25A     -0.484711    26A     -0.473869    27A     -0.465536  
      28A     -0.453085    29A     -0.358070  

    Virtual:                                                              

      30A      0.141672    31A      0.149298    32A      0.159592  
      33A      0.169809    34A      0.182535    35A      0.195043  
      36A      0.200676    37A      0.212710    38A      0.229443  
      39A      0.234760    40A      0.244662    41A      0.246444  
      42A      0.257060    43A      0.258818    44A      0.291155  
      45A      0.310009    46A      0.327861    47A      0.346042  
      48A      0.354116    49A      0.365479    50A      0.382201  
      51A      0.391866    52A      0.401863    53A      0.409174  
      54A      0.442415    55A      0.461259    56A      0.466891  
      57A      0.473329    58A      0.489376    59A      0.504025  
      60A      0.521929    61A      0.536061    62A      0.561744  
      63A      0.577366    64A      0.582727    65A      0.590210  
      66A      0.601547    67A      0.610195    68A      0.628705  
      69A      0.631504    70A      0.637812    71A      0.652253  
      72A      0.656327    73A      0.665390    74A      0.667927  
      75A      0.670745    76A      0.673956    77A      0.684253  
      78A      0.693877    79A      0.696382    80A      0.703166  
      81A      0.720510    82A      0.724337    83A      0.732169  
      84A      0.745877    85A      0.778592    86A      0.792672  
      87A      0.810192    88A      0.835802    89A      0.873231  
      90A      0.884259    91A      0.891300    92A      0.921543  
      93A      0.923864    94A      0.945910    95A      0.952084  
      96A      0.955098    97A      0.975006    98A      0.980508  
      99A      1.010153   100A      1.029800   101A      1.040733  
     102A      1.079056   103A      1.089851   104A      1.108403  
     105A      1.114157   106A      1.132978   107A      1.148732  
     108A      1.173135   109A      1.188028   110A      1.194688  
     111A      1.198539   112A      1.235717   113A      1.246067  
     114A      1.253430   115A      1.264201   116A      1.277833  
     117A      1.278695   118A      1.287470   119A      1.294389  
     120A      1.313042   121A      1.326661   122A      1.331835  
     123A      1.342549   124A      1.347685   125A      1.353449  
     126A      1.372399   127A      1.378277   128A      1.397051  
     129A      1.403317   130A      1.409627   131A      1.420594  
     132A      1.434511   133A      1.441613   134A      1.479649  
     135A      1.486485   136A      1.493862   137A      1.502018  
     138A      1.507522   139A      1.522781   140A      1.530321  
     141A      1.536926   142A      1.549243   143A      1.561234  
     144A      1.581973   145A      1.595298   146A      1.601133  
     147A      1.611284   148A      1.615040   149A      1.634917  
     150A      1.643437   151A      1.652054   152A      1.657622  
     153A      1.688887   154A      1.699515   155A      1.744868  
     156A      1.753234   157A      1.767652   158A      1.776819  
     159A      1.781851   160A      1.797831   161A      1.812812  
     162A      1.825952   163A      1.843727   164A      1.870106  
     165A      1.894537   166A      1.917199   167A      1.942395  
     168A      2.034366   169A      2.046702   170A      2.087715  
     171A      2.139166   172A      2.204521   173A      2.264244  
     174A      2.514941   175A      2.533793   176A      2.587032  
     177A      2.607584   178A      2.609392   179A      2.636755  
     180A      2.664152   181A      2.676789   182A      2.692761  
     183A      2.720835   184A      2.744080   185A      2.749728  
     186A      2.769287   187A      2.793169   188A      2.804251  
     189A      2.826866   190A      2.843654   191A      2.850325  
     192A      2.854222   193A      2.863999   194A      2.877388  
     195A      2.904313   196A      2.931893   197A      2.960474  
     198A      2.981869   199A      2.989051   200A      3.004506  
     201A      3.029948   202A      3.047040   203A      3.073797  
     204A      3.082221   205A      3.093035   206A      3.105641  
     207A      3.111051   208A      3.131098   209A      3.151103  
     210A      3.153582   211A      3.156526   212A      3.181021  
     213A      3.188646   214A      3.198416   215A      3.233911  
     216A      3.249214   217A      3.252756   218A      3.274447  
     219A      3.287871   220A      3.319782   221A      3.328499  
     222A      3.333357   223A      3.356519   224A      3.366215  
     225A      3.370785   226A      3.379922   227A      3.391203  
     228A      3.405558   229A      3.411503   230A      3.418362  
     231A      3.422142   232A      3.426871   233A      3.432806  
     234A      3.439500   235A      3.444996   236A      3.455071  
     237A      3.461036   238A      3.477267   239A      3.493480  
     240A      3.516346   241A      3.525142   242A      3.530272  
     243A      3.542235   244A      3.552510   245A      3.561194  
     246A      3.583383   247A      3.594022   248A      3.597861  
     249A      3.618296   250A      3.646825   251A      3.654845  
     252A      3.665573   253A      3.668095   254A      3.686312  
     255A      3.706347   256A      3.730251   257A      3.747170  
     258A      3.760473   259A      3.776754   260A      3.792479  
     261A      3.801499   262A      3.815896   263A      3.822802  
     264A      3.846642   265A      3.858606   266A      3.866800  
     267A      3.869001   268A      3.872372   269A      3.904426  
     270A      3.913397   271A      3.924771   272A      3.934249  
     273A      3.951081   274A      3.970892   275A      3.996256  
     276A      4.014823   277A      4.038074   278A      4.050675  
     279A      4.076345   280A      4.086209   281A      4.097682  
     282A      4.102350   283A      4.122965   284A      4.129259  
     285A      4.134039   286A      4.149819   287A      4.155989  
     288A      4.165126   289A      4.172358   290A      4.181661  
     291A      4.194959   292A      4.212342   293A      4.219537  
     294A      4.235509   295A      4.248988   296A      4.278402  
     297A      4.286626   298A      4.293171   299A      4.301812  
     300A      4.314105   301A      4.319575   302A      4.337670  
     303A      4.343904   304A      4.347669   305A      4.373752  
     306A      4.380139   307A      4.386430   308A      4.403205  
     309A      4.418424   310A      4.438009   311A      4.449674  
     312A      4.459641   313A      4.465978   314A      4.479053  
     315A      4.505452   316A      4.512351   317A      4.524707  
     318A      4.535352   319A      4.537238   320A      4.564979  
     321A      4.583485   322A      4.590193   323A      4.597582  
     324A      4.612623   325A      4.625038   326A      4.645196  
     327A      4.649144   328A      4.667879   329A      4.674362  
     330A      4.695990   331A      4.717143   332A      4.727133  
     333A      4.733590   334A      4.752309   335A      4.769018  
     336A      4.799992   337A      4.805983   338A      4.821507  
     339A      4.846695   340A      4.883296   341A      4.917744  
     342A      4.964223   343A      4.968936   344A      4.998421  
     345A      5.051340   346A      5.079223   347A      5.090393  
     348A      5.102759   349A      5.112753   350A      5.148995  
     351A      5.190786   352A      5.196090   353A      5.214749  
     354A      5.245137   355A      5.253817   356A      5.258988  
     357A      5.266548   358A      5.284830   359A      5.297580  
     360A      5.318517   361A      5.336236   362A      5.349524  
     363A      5.363349   364A      5.377186   365A      5.390204  
     366A      5.408190   367A      5.454492   368A      5.482104  
     369A      5.506542   370A      5.525788   371A      5.547303  
     372A      5.561853   373A      5.575528   374A      5.593313  
     375A      5.604421   376A      5.644047   377A      5.687760  
     378A      5.705309   379A      5.733675   380A      5.745973  
     381A      5.748511   382A      5.760570   383A      5.772463  
     384A      5.775637   385A      5.808111   386A      5.829044  
     387A      5.844447   388A      5.861329   389A      5.882610  
     390A      5.899070   391A      5.911785   392A      5.914066  
     393A      5.924303   394A      5.970834   395A      5.974900  
     396A      5.992197   397A      6.030425   398A      6.086748  
     399A      6.216904   400A      6.226311   401A      6.300088  
     402A      6.303994   403A      6.312980   404A      6.325725  
     405A      6.334804   406A      6.338382   407A      6.350665  
     408A      6.422679   409A      6.440064   410A      6.481596  
     411A      6.555833   412A      6.585538   413A      7.047848  
     414A     12.531282   415A     13.219050   416A     13.504282  
     417A     13.867136   418A     13.978277   419A     14.241846  
     420A     14.263646  

    Final Occupation by Irrep:
              A 
    DOCC [    29 ]

  Energy converged.

  @DF-RHF Final Energy:  -290.48898971633906

   => Energetics <=

    Nuclear Repulsion Energy =            313.3224629365398073
    One-Electron Energy =               -1012.6566046152536273
    Two-Electron Energy =                 408.8451519623750414
    DFT Exchange-Correlation Energy =       0.0000000000000000
    Empirical Dispersion Energy =           0.0000000000000000
    PCM Polarization Energy =               0.0000000000000000
    EFP Energy =                            0.0000000000000000
    Total Energy =                       -290.4889897163388355


  Saving occupied orbitals to File 180.

*** tstop() called on cx1-27-1-1 at Sat Sep 10 17:43:16 2016
Module time:
	user time   =      33.69 seconds =       0.56 minutes
	system time =       0.64 seconds =       0.01 minutes
	total time  =         10 seconds =       0.17 minutes
Total time:
	user time   =     126.78 seconds =       2.11 minutes
	system time =       2.42 seconds =       0.04 minutes
	total time  =         36 seconds =       0.60 minutes


Properties will be evaluated at   0.000000,   0.000000,   0.000000 Bohr

Properties computed using the SCF density matrix

  Nuclear Dipole Moment: (a.u.)
     X:    -0.0379      Y:    -1.3768      Z:     0.3762

  Electronic Dipole Moment: (a.u.)
     X:     0.0187      Y:     1.2958      Z:    -0.0693

  Dipole Moment: (a.u.)
     X:    -0.0192      Y:    -0.0810      Z:     0.3070     Total:     0.3181

  Dipole Moment: (Debye)
     X:    -0.0488      Y:    -0.2059      Z:     0.7803     Total:     0.8085


*** tstart() called on cx1-27-1-1
*** at Sat Sep 10 17:43:16 2016


         ------------------------------------------------------------
                                   SCF GRAD                          
                          Rob Parrish, Justin Turney,                
                       Andy Simmonett, and Alex Sokolov              
         ------------------------------------------------------------

  ==> Geometry <==

    Molecular point group: c1
    Full point group: C1

    Geometry (in Angstrom), charge = 0, multiplicity = 1:

       Center              X                  Y                   Z               Mass       
    ------------   -----------------  -----------------  -----------------  -----------------
           H          4.562021211835     0.201956023614    -0.713136073776     1.007825032070
           C          3.731393549462    -0.378301756827    -0.328922767972    12.000000000000
           C          2.429292240894     0.413211965267    -0.397287442631    12.000000000000
           H          3.667693107316    -1.289470396723    -0.914894951482     1.007825032070
           H          3.970693641107    -0.659557542894     0.691430103791     1.007825032070
           C          1.232243883089    -0.366039749945     0.130040756317    12.000000000000
           H          2.222589480093     0.708857485331    -1.419415550604     1.007825032070
           H          2.534210686232     1.332865685425     0.172778010253     1.007825032070
           N          0.011075554774     0.415997468175     0.086986587246    14.003074004780
           H          1.082081188383    -1.262869098812    -0.461607635124     1.007825032070
           H          1.451460773711    -0.718774641425     1.141002251992     1.007825032070
           C         -1.214434082517    -0.352157202004     0.165874685232    12.000000000000
           H          0.024227800643     1.117558218874     0.796937905519     1.007825032070
           C         -2.438910093944     0.549844764309     0.127028241119    12.000000000000
           H         -1.241377358957    -1.027508806944    -0.683305220061     1.007825032070
           H         -1.258594647356    -0.979477196049     1.061504304013     1.007825032070
           C         -3.749118406985    -0.228758292050     0.168030129124    12.000000000000
           H         -2.393585811148     1.156502778824    -0.770604710220     1.007825032070
           H         -2.403053520375     1.238622628859     0.967793114507     1.007825032070
           H         -3.829375038037    -0.905012549573    -0.676555334235     1.007825032070
           H         -4.601089027036     0.440018670962     0.136182025895     1.007825032070
           H         -3.828283397611    -0.821069214070     1.073506280120     1.007825032070

  Nuclear repulsion =  313.322462936539807

  ==> Basis Set <==

  Basis Set: CC-PVTZ
    Number of shells: 160
    Number of basis function: 420
    Number of Cartesian functions: 470
    Spherical Harmonics?: true
    Max angular momentum: 3

  ==> DFJKGrad: Density-Fitted SCF Gradients <==

    Gradient:                    1
    J tasked:                  Yes
    K tasked:                  Yes
    wK tasked:                  No
    OpenMP threads:              4
    Integrals threads:           4
    Memory (MB):              1430
    Schwarz Cutoff:          0E+00
    Fitting Condition:       1E-12

   => Auxiliary Basis Set <=

  Basis Set: 
    Number of shells: 325
    Number of basis function: 1003
    Number of Cartesian functions: 1197
    Spherical Harmonics?: true
    Max angular momentum: 4


  -Total Gradient:
     Atom            X                  Y                   Z
    ------   -----------------  -----------------  -----------------
       1        0.000114607573    -0.000066419195     0.000050993769
       2        0.000375603605     0.000101252545     0.000038667714
       3        0.000737459313     0.000042485887     0.000070354559
       4        0.000000045647     0.000008707405    -0.000019008447
       5        0.000110856873    -0.000054288341     0.000030994093
       6        0.001479774614     0.000587166730    -0.004609455115
       7       -0.000274995098    -0.000242601684     0.000239287918
       8        0.000159102149     0.000152886849    -0.000062796098
       9       -0.000238725712     0.000819678711     0.003630784602
      10       -0.000599082073    -0.001416467561     0.002467160894
      11       -0.000153253849     0.000421557779    -0.000453412143
      12       -0.001145948228    -0.000334001353    -0.001838527398
      13       -0.000317096820     0.000203912742     0.000428292499
      14       -0.000072804233    -0.000254225207     0.000073858072
      15       -0.000011759679     0.000042269234     0.000050215984
      16       -0.000169637875    -0.000054872089    -0.000020178635
      17       -0.000033062930     0.000032359153    -0.000053169041
      18        0.000018869066    -0.000002917194     0.000029040890
      19        0.000019697490     0.000034911527    -0.000029523471
      20       -0.000015124662    -0.000026660844    -0.000004778196
      21       -0.000008887260    -0.000001453726    -0.000021738436
      22        0.000024362088     0.000006718633     0.000002935986


*** tstop() called on cx1-27-1-1 at Sat Sep 10 17:43:29 2016
Module time:
	user time   =      47.39 seconds =       0.79 minutes
	system time =       0.85 seconds =       0.01 minutes
	total time  =         13 seconds =       0.22 minutes
Total time:
	user time   =     174.28 seconds =       2.90 minutes
	system time =       3.28 seconds =       0.05 minutes
	total time  =         49 seconds =       0.82 minutes

			-----------------------------------------
			 OPTKING 2.0: for geometry optimizations 
			  - R.A. King,  Bethel University        
			-----------------------------------------

	Previous internal coordinate definitions found.
	---Fragment 1 Geometry and Gradient---
	 H           8.6209707028        0.3816415755       -1.3476318749
	 C           7.0513119025       -0.7148867160       -0.6215739503
	 C           4.5906970320        0.7808574492       -0.7507644626
	 H           6.9309355123       -2.4367459063       -1.7289008987
	 H           7.5035235393       -1.2463831249        1.3066135362
	 C           2.3286034680       -0.6917148811        0.2457414156
	 H           4.2000854232        1.3395465145       -2.6823066594
	 H           4.7889641600        2.5187511174        0.3265031212
	 N           0.0209297653        0.7861212868        0.1643808271
	 H           2.0448370996       -2.3864767384       -0.8723120112
	 H           2.7428633549       -1.3582872236        2.1561817733
	 C          -2.2949478224       -0.6654806675        0.3134577275
	 H           0.0457839080        2.1118789712        1.5059943863
	 C          -4.6088721403        1.0390560201        0.2400485869
	 H          -2.3458632360       -1.9417102443       -1.2912597311
	 H          -2.3783991958       -1.8509436539        2.0059524235
	 C          -7.0848070290       -0.4322905226        0.3175309261
	 H          -4.5232216586        2.1854735239       -1.4562318590
	 H          -4.5411130362        2.3406575505        1.8288639397
	 H          -7.2364700820       -1.7102258655       -1.2785042954
	 H          -8.6947981741        0.8315147815        0.2573467332
	 H          -7.2344071806       -1.5515959507        2.0286328714
	             0.0001146076       -0.0000664192        0.0000509938
	             0.0003756036        0.0001012525        0.0000386677
	             0.0007374593        0.0000424859        0.0000703546
	             0.0000000456        0.0000087074       -0.0000190084
	             0.0001108569       -0.0000542883        0.0000309941
	             0.0014797746        0.0005871667       -0.0046094551
	            -0.0002749951       -0.0002426017        0.0002392879
	             0.0001591021        0.0001528868       -0.0000627961
	            -0.0002387257        0.0008196787        0.0036307846
	            -0.0005990821       -0.0014164676        0.0024671609
	            -0.0001532538        0.0004215578       -0.0004534121
	            -0.0011459482       -0.0003340014       -0.0018385274
	            -0.0003170968        0.0002039127        0.0004282925
	            -0.0000728042       -0.0002542252        0.0000738581
	            -0.0000117597        0.0000422692        0.0000502160
	            -0.0001696379       -0.0000548721       -0.0000201786
	            -0.0000330629        0.0000323592       -0.0000531690
	             0.0000188691       -0.0000029172        0.0000290409
	             0.0000196975        0.0000349115       -0.0000295235
	            -0.0000151247       -0.0000266608       -0.0000047782
	            -0.0000088873       -0.0000014537       -0.0000217384
	             0.0000243621        0.0000067186        0.0000029360

	---Fragment 1 Intrafragment Coordinates---
	 - Coordinate -           - BOHR/RAD -       - ANG/DEG -
	 R(1,2)           =         2.047770	       1.083633
	 R(2,3)           =         2.882458	       1.525331
	 R(2,4)           =         2.050722	       1.085196
	 R(2,5)           =         2.050583	       1.085122
	 R(3,6)           =         2.877249	       1.522574
	 R(3,7)           =         2.048308	       1.083918
	 R(3,8)           =         2.054286	       1.087081
	 R(6,9)           =         2.741528	       1.450754
	 R(6,10)          =         2.050069	       1.084850
	 R(6,11)          =         2.065360	       1.092941
	 R(9,12)          =         2.737273	       1.448502
	 R(9,13)          =         1.886313	       0.998194
	 R(12,14)         =         2.874905	       1.521334
	 R(12,15)         =         2.050969	       1.085326
	 R(12,16)         =         2.068049	       1.094364
	 R(14,17)         =         2.881166	       1.524647
	 R(14,18)         =         2.049140	       1.084358
	 R(14,19)         =         2.055016	       1.087468
	 R(17,20)         =         2.050231	       1.084936
	 R(17,21)         =         2.047657	       1.083573
	 R(17,22)         =         2.050145	       1.084890
	 B(1,2,3)         =         1.939693	     111.136196
	 B(1,2,4)         =         1.878789	     107.646655
	 B(1,2,5)         =         1.878791	     107.646820
	 B(2,3,6)         =         1.971471	     112.956946
	 B(2,3,7)         =         1.924732	     110.279028
	 B(2,3,8)         =         1.910385	     109.457005
	 B(3,2,4)         =         1.940552	     111.185423
	 B(3,2,5)         =         1.944319	     111.401252
	 B(3,6,9)         =         1.955857	     112.062357
	 B(3,6,10)        =         1.920944	     110.061956
	 B(3,6,11)        =         1.904820	     109.138125
	 B(4,2,5)         =         1.878695	     107.641298
	 B(6,3,7)         =         1.892586	     108.437177
	 B(6,3,8)         =         1.904170	     109.100878
	 B(6,9,12)        =         2.009405	     115.130415
	 B(6,9,13)        =         1.924811	     110.283538
	 B(7,3,8)         =         1.856845	     106.389381
	 B(9,6,10)        =         1.889074	     108.235970
	 B(9,6,11)        =         1.950084	     111.731586
	 B(9,12,14)       =         1.944591	     111.416830
	 B(9,12,15)       =         1.884286	     107.961640
	 B(9,12,16)       =         1.963514	     112.501054
	 B(10,6,11)       =         1.839441	     105.392231
	 B(12,9,13)       =         1.923174	     110.189728
	 B(12,14,17)      =         1.969472	     112.842413
	 B(12,14,18)      =         1.895683	     108.614657
	 B(12,14,19)      =         1.906306	     109.223292
	 B(14,12,15)      =         1.906017	     109.206740
	 B(14,12,16)      =         1.905285	     109.164813
	 B(14,17,20)      =         1.940078	     111.158309
	 B(14,17,21)      =         1.938738	     111.081507
	 B(14,17,22)      =         1.943317	     111.343850
	 B(15,12,16)      =         1.857338	     106.417628
	 B(17,14,18)      =         1.921849	     110.113818
	 B(17,14,19)      =         1.908154	     109.329173
	 B(18,14,19)      =         1.859048	     106.515619
	 B(20,17,21)      =         1.879331	     107.677750
	 B(20,17,22)      =         1.879709	     107.699379
	 B(21,17,22)      =         1.879815	     107.705471
	 D(1,2,3,6)       =         3.139035	     179.853468
	 D(1,2,3,7)       =         1.018250	      58.341401
	 D(1,2,3,8)       =        -1.018821	     -58.374142
	 D(2,3,6,9)       =         3.116601	     178.568093
	 D(2,3,6,10)      =        -1.063532	     -60.935882
	 D(2,3,6,11)      =         0.947149	      54.267626
	 D(3,6,9,12)      =         2.819585	     161.550317
	 D(3,6,9,13)      =        -1.274343	     -73.014455
	 D(4,2,3,6)       =         1.046481	      59.958922
	 D(4,2,3,7)       =        -1.074305	     -61.553144
	 D(4,2,3,8)       =        -3.111376	    -178.268688
	 D(5,2,3,6)       =        -1.049064	     -60.106961
	 D(5,2,3,7)       =         3.113335	     178.380972
	 D(5,2,3,8)       =         1.076265	      61.665429
	 D(6,9,12,14)     =         3.132028	     179.451982
	 D(6,9,12,15)     =        -1.058334	     -60.638054
	 D(6,9,12,16)     =         0.985830	      56.483922
	 D(7,3,6,9)       =        -1.027744	     -58.885373
	 D(7,3,6,10)      =         1.075309	      61.610653
	 D(7,3,6,11)      =         3.085989	     176.814161
	 D(8,3,6,9)       =         0.987775	      56.595363
	 D(8,3,6,10)      =         3.090828	     177.091389
	 D(8,3,6,11)      =        -1.181677	     -67.705103
	 D(9,12,14,17)    =         3.112960	     178.359493
	 D(9,12,14,18)    =         0.976912	      55.972934
	 D(9,12,14,19)    =        -1.044067	     -59.820604
	*D(10,6,9,12)     =         0.698131	      39.999959
	 D(10,6,9,13)     =         2.887389	     165.435186
	 D(11,6,9,12)     =        -1.319561	     -75.605298
	 D(11,6,9,13)     =         0.869696	      49.829930
	 D(12,14,17,20)   =        -1.046472	     -59.958409
	 D(12,14,17,21)   =        -3.138758	    -179.837567
	 D(12,14,17,22)   =         1.049363	      60.124076
	 D(13,9,12,14)    =         0.941923	      53.968198
	 D(13,9,12,15)    =         3.034746	     173.878162
	 D(13,9,12,16)    =        -1.204275	     -68.999863
	 D(15,12,14,17)   =         1.033030	      59.188270
	 D(15,12,14,18)   =        -1.103018	     -63.198289
[...]
	 B(18,14,19)      =         1.859557	     106.544760
	 B(20,17,21)      =         1.879372	     107.680070
	 B(20,17,22)      =         1.879792	     107.704152
	 B(21,17,22)      =         1.879680	     107.697710
	 D(1,2,3,6)       =         3.137552	     179.768477
	 D(1,2,3,7)       =         1.014290	      58.114550
	 D(1,2,3,8)       =        -1.022556	     -58.588146
	 D(2,3,6,9)       =         3.130133	     179.343425
	 D(2,3,6,10)      =        -1.055690	     -60.486601
	 D(2,3,6,11)      =         0.956126	      54.781958
	 D(3,6,9,12)      =         2.816105	     161.350909
	 D(3,6,9,13)      =        -1.271162	     -72.832194
	 D(4,2,3,6)       =         1.044980	      59.872930
	 D(4,2,3,7)       =        -1.078282	     -61.780997
	 D(4,2,3,8)       =        -3.115128	    -178.483693
	 D(5,2,3,6)       =        -1.050404	     -60.183724
	 D(5,2,3,7)       =         3.109520	     178.162349
	 D(5,2,3,8)       =         1.072673	      61.459652
	 D(6,9,12,14)     =         3.124388	     179.014229
	 D(6,9,12,15)     =        -1.065050	     -61.022847
	 D(6,9,12,16)     =         0.979336	      56.111806
	 D(7,3,6,9)       =        -1.013684	     -58.079807
	 D(7,3,6,10)      =         1.083678	      62.090167
	 D(7,3,6,11)      =         3.095494	     177.358725
	 D(8,3,6,9)       =         1.002407	      57.433711
	 D(8,3,6,10)      =         3.099769	     177.603685
	 D(8,3,6,11)      =        -1.171600	     -67.127756
	 D(9,12,14,17)    =         3.115133	     178.483969
	 D(9,12,14,18)    =         0.978728	      56.077002
	 D(9,12,14,19)    =        -1.042752	     -59.745276
	*D(10,6,9,12)     =         0.698131	      39.999959
	 D(10,6,9,13)     =         2.894050	     165.816856
	 D(11,6,9,12)     =        -1.319444	     -75.598591
	 D(11,6,9,13)     =         0.876475	      50.218306
	 D(12,14,17,20)   =        -1.049212	     -60.115423
	 D(12,14,17,21)   =        -3.141475	    -179.993281
	 D(12,14,17,22)   =         1.046730	      59.973223
	 D(13,9,12,14)    =         0.929062	      53.231306
	 D(13,9,12,15)    =         3.022810	     173.194230
	 D(13,9,12,16)    =        -1.215990	     -69.671117
	 D(15,12,14,17)   =         1.034056	      59.247062
	 D(15,12,14,18)   =        -1.102348	     -63.159905
	 D(15,12,14,19)   =        -3.123828	    -178.982183
	 D(16,12,14,17)   =        -0.990360	     -56.743445
	 D(16,12,14,18)   =        -3.126765	    -179.150412
	 D(16,12,14,19)   =         1.134941	      65.027310
	 D(18,14,17,20)   =         1.072660	      61.458905
	 D(18,14,17,21)   =        -1.019603	     -58.418953
	 D(18,14,17,22)   =        -3.114583	    -178.452449
	 D(19,14,17,20)   =         3.109817	     178.179417
	 D(19,14,17,21)   =         1.017554	      58.301559
	 D(19,14,17,22)   =        -1.077426	     -61.731938

	Current energy   :      -290.4890111164

	Energy change for the previous step:
		Projected    :        -0.0000011226
		Actual       :        -0.0000001245
	Energy ratio indicates iffy step: Trust radius decreased to 2.500e-01.


	Performing BFGS update.
	Previous computed or guess Hessian on step 1.
	Steps to be used in Hessian update: 4 3
	Taking RFO optimization step.
	Going to follow RFO solution 1.
	Rejecting RFO root 1 because normalization gives large value.
	Rejecting RFO root 2 because normalization gives large value.
	Using RFO vector 3.
	Norm of target step-size    0.00188
	Projected energy change by RFO approximation:        -0.0000000087

	Back-transformation to cartesian coordinates...
	Successfully converged to displaced geometry.

	Back-transformation to cartesian coordinates to adjust frozen coordinates...
	Successfully converged to displaced geometry.

	--- Internal Coordinate Step in ANG or DEG, aJ/ANG or AJ/DEG ---
	 ---------------------------------------------------------------------------
	   Coordinate                Previous        Force       Change         New 
	   ----------                --------       ------       ------       ------
	    1 R(1,2)          =      1.083609    -0.000035    -0.000006     1.083603
	    2 R(2,3)          =      1.524705    -0.000104    -0.000014     1.524691
	    3 R(2,4)          =      1.085167     0.000024     0.000004     1.085172
	    4 R(2,5)          =      1.085028     0.000046     0.000007     1.085034
	    5 R(3,6)          =      1.521285     0.000124     0.000031     1.521316
	    6 R(3,7)          =      1.084154     0.000065     0.000009     1.084163
	    7 R(3,8)          =      1.087036    -0.000036    -0.000001     1.087034
	    8 R(6,9)          =      1.448271    -0.000034    -0.000018     1.448253
	    9 R(6,10)         =      1.085162    -0.000145    -0.000019     1.085144
	   10 R(6,11)         =      1.093910    -0.000095    -0.000011     1.093898
	   11 R(9,12)         =      1.446395    -0.000033    -0.000010     1.446385
	   12 R(9,13)         =      0.997660     0.000030     0.000004     0.997664
	   13 R(12,14)        =      1.521555    -0.000019    -0.000004     1.521552
	   14 R(12,15)        =      1.085465     0.000014     0.000007     1.085472
	   15 R(12,16)        =      1.094434     0.000078     0.000016     1.094450
	   16 R(14,17)        =      1.524635    -0.000048    -0.000011     1.524624
	   17 R(14,18)        =      1.084396     0.000032     0.000005     1.084401
	   18 R(14,19)        =      1.087463     0.000013     0.000003     1.087466
	   19 R(17,20)        =      1.084903     0.000001    -0.000000     1.084903
	   20 R(17,21)        =      1.083575    -0.000009    -0.000002     1.083574
	   21 R(17,22)        =      1.084883    -0.000007    -0.000001     1.084882
	   22 B(1,2,3)        =    111.118427    -0.000002    -0.007480   111.110946
	   23 B(1,2,4)        =    107.659074     0.000001     0.001106   107.660180
	   24 B(1,2,5)        =    107.678719     0.000000     0.000430   107.679149
	   25 B(2,3,6)        =    112.905262    -0.000002    -0.005939   112.899323
	   26 B(2,3,7)        =    110.240062     0.000001     0.003595   110.243657
	   27 B(2,3,8)        =    109.484502     0.000000    -0.001603   109.482900
	   28 B(3,2,4)        =    111.181229     0.000000     0.002173   111.183402
	   29 B(3,2,5)        =    111.371248     0.000001     0.003431   111.374679
	   30 B(3,6,9)        =    111.889945    -0.000000     0.000545   111.890491
	   31 B(3,6,10)       =    110.087353    -0.000000    -0.003633   110.083721
	   32 B(3,6,11)       =    109.266167     0.000001     0.002525   109.268692
	   33 B(4,2,5)        =    107.652215    -0.000000     0.000451   107.652665
	   34 B(6,3,7)        =    108.596990     0.000001     0.002920   108.599910
	   35 B(6,3,8)        =    109.012013     0.000001     0.001007   109.013020
	   36 B(6,9,12)       =    115.142111    -0.000000     0.000441   115.142552
	   37 B(6,9,13)       =    110.354078     0.000000     0.002196   110.356274
	   38 B(7,3,8)        =    106.384075    -0.000000     0.000398   106.384473
	   39 B(9,6,10)       =    108.054296     0.000000    -0.001344   108.052952
	   40 B(9,6,11)       =    111.955925     0.000000     0.002240   111.958165
	   41 B(9,12,14)      =    111.387696    -0.000001    -0.002927   111.384769
	   42 B(9,12,15)      =    108.013398     0.000000    -0.000514   108.012885
	   43 B(9,12,16)      =    112.455604     0.000000     0.002622   112.458226
	   44 B(10,6,11)      =    105.374048    -0.000000    -0.000590   105.373458
	   45 B(12,9,13)      =    110.420010    -0.000000    -0.000558   110.419452
	   46 B(12,14,17)     =    112.847128    -0.000001    -0.003373   112.843755
	   47 B(12,14,18)     =    108.636373     0.000001     0.002151   108.638524
	   48 B(12,14,19)     =    109.190353     0.000001     0.002829   109.193181
	   49 B(14,12,15)     =    109.237106     0.000000     0.000218   109.237325
	   50 B(14,12,16)     =    109.156809     0.000001     0.001708   109.158517
	   51 B(14,17,20)     =    111.151534     0.000000     0.000427   111.151961
	   52 B(14,17,21)     =    111.081940    -0.000000    -0.001684   111.080256
	   53 B(14,17,22)     =    111.350812     0.000000     0.000523   111.351335
	   54 B(15,12,16)     =    106.422700    -0.000000    -0.001097   106.421603
	   55 B(17,14,18)     =    110.115220     0.000000    -0.000560   110.114660
	   56 B(17,14,19)     =    109.306543     0.000000     0.000517   109.307060
	   57 B(18,14,19)     =    106.544760    -0.000000    -0.001427   106.543333
	   58 B(20,17,21)     =    107.680070     0.000000     0.000204   107.680273
	   59 B(20,17,22)     =    107.704152    -0.000000     0.000120   107.704272
	   60 B(21,17,22)     =    107.697710     0.000000     0.000453   107.698163
	   61 D(1,2,3,6)      =    179.768477     0.000000     0.025678   179.794155
	   62 D(1,2,3,7)      =     58.114550     0.000000     0.023434    58.137985
	   63 D(1,2,3,8)      =    -58.588146    -0.000000     0.021808   -58.566339
	   64 D(2,3,6,9)      =    179.343425    -0.000000    -0.019907   179.323518
	   65 D(2,3,6,10)     =    -60.486601    -0.000000    -0.023706   -60.510307
	   66 D(2,3,6,11)     =     54.781958    -0.000000    -0.025009    54.756948
	   67 D(3,6,9,12)     =    161.350909    -0.000000    -0.005086   161.345822
	   68 D(3,6,9,13)     =    -72.832194    -0.000000    -0.003635   -72.835829
	   69 D(4,2,3,6)      =     59.872930     0.000000     0.027832    59.900763
	   70 D(4,2,3,7)      =    -61.780997     0.000000     0.025589   -61.755408
	   71 D(4,2,3,8)      =   -178.483693     0.000000     0.023962  -178.459731
	   72 D(5,2,3,6)      =    -60.183724     0.000000     0.023478   -60.160246
	   73 D(5,2,3,7)      =    178.162349    -0.000000     0.021234   178.183583
	   74 D(5,2,3,8)      =     61.459652    -0.000000     0.019607    61.479260
	   75 D(6,9,12,14)    =    179.014229     0.000000     0.005554   179.019783
	   76 D(6,9,12,15)    =    -61.022847     0.000000     0.003735   -61.019112
	   77 D(6,9,12,16)    =     56.111806     0.000000     0.003580    56.115386
	   78 D(7,3,6,9)      =    -58.079807    -0.000000    -0.017205   -58.097013
	   79 D(7,3,6,10)     =     62.090167    -0.000000    -0.021004    62.069163
	   80 D(7,3,6,11)     =    177.358725    -0.000000    -0.022307   177.336418
	   81 D(8,3,6,9)      =     57.433711     0.000000    -0.014608    57.419103
	   82 D(8,3,6,10)     =    177.603685     0.000000    -0.018407   177.585278
	   83 D(8,3,6,11)     =    -67.127756     0.000000    -0.019710   -67.147466
	   84 D(9,12,14,17)   =    178.483969    -0.000000    -0.014578   178.469391
	   85 D(9,12,14,18)   =     56.077002    -0.000000    -0.013148    56.063854
	   86 D(9,12,14,19)   =    -59.745276    -0.000000    -0.014169   -59.759444
	   87 *D(10,6,9,12)   =     39.999959     0.000000     0.000000    39.999959
	   88 D(10,6,9,13)    =    165.816856     0.000000     0.001451   165.818307
	   89 D(11,6,9,12)    =    -75.598591     0.000000     0.000284   -75.598307
	   90 D(11,6,9,13)    =     50.218306     0.000000     0.001735    50.220042
	   91 D(12,14,17,20)  =    -60.115423     0.000000     0.010519   -60.104903
	   92 D(12,14,17,21)  =   -179.993281     0.000000     0.011102  -179.982179
	   93 D(12,14,17,22)  =     59.973223     0.000000     0.011313    59.984536
	   94 D(13,9,12,14)   =     53.231306    -0.000000     0.002683    53.233989
	   95 D(13,9,12,15)   =    173.194230    -0.000000     0.000864   173.195094
	   96 D(13,9,12,16)   =    -69.671117    -0.000000     0.000708   -69.670408
	   97 D(15,12,14,17)  =     59.247062     0.000000    -0.012269    59.234793
	   98 D(15,12,14,18)  =    -63.159905     0.000000    -0.010840   -63.170745
	   99 D(15,12,14,19)  =   -178.982183     0.000000    -0.011860  -178.994043
	  100 D(16,12,14,17)  =    -56.743445    -0.000000    -0.012031   -56.755476
	  101 D(16,12,14,18)  =   -179.150412     0.000000    -0.010601  -179.161014
	  102 D(16,12,14,19)  =     65.027310    -0.000000    -0.011622    65.015688
	  103 D(18,14,17,20)  =     61.458905     0.000000     0.010557    61.469462
	  104 D(18,14,17,21)  =    -58.418953     0.000000     0.011139   -58.407813
	  105 D(18,14,17,22)  =   -178.452449     0.000000     0.011350  -178.441099
	  106 D(19,14,17,20)  =    178.179417    -0.000000     0.008808   178.188225
	  107 D(19,14,17,21)  =     58.301559    -0.000000     0.009391    58.310950
	  108 D(19,14,17,22)  =    -61.731938    -0.000000     0.009602   -61.722336
	 ---------------------------------------------------------------------------
	Successfully symmetrized geometry.

  ==> Convergence Check <==

  Measures of convergence in internal coordinates in au.
  Criteria marked as inactive (o), active & met (*), and active & unmet ( ).
  ---------------------------------------------------------------------------------------------
   Step     Total Energy     Delta E     MAX Force     RMS Force      MAX Disp      RMS Disp   
  ---------------------------------------------------------------------------------------------
    Convergence Criteria    1.00e-06 *    3.00e-04 *             o    1.20e-03 *             o
  ---------------------------------------------------------------------------------------------
      5    -290.48901112   -1.25e-07 *    3.01e-05 *    6.43e-06 o    4.86e-04 *    1.81e-04 o  ~
  ---------------------------------------------------------------------------------------------


  **** Optimization is complete! (in 5 steps) ****

  ==> Optimization Summary <==

  Measures of convergence in internal coordinates in au.
  --------------------------------------------------------------------------------------------------------------- ~
   Step         Total Energy             Delta E       MAX Force       RMS Force        MAX Disp        RMS Disp  ~
  --------------------------------------------------------------------------------------------------------------- ~
      1    -290.488863511068   -290.488863511068      0.00276255      0.00047482      0.05468091      0.01499613  ~
      2    -290.488989716339     -0.000126205271      0.00182586      0.00030911      0.01663195      0.00456797  ~
      3    -290.489009614455     -0.000019898116      0.00038887      0.00007192      0.00394304      0.00158716  ~
      4    -290.489010991843     -0.000001377388      0.00008311      0.00001767      0.00161813      0.00063702  ~
      5    -290.489011116378     -0.000000124535      0.00003006      0.00000643      0.00048577      0.00018060  ~
  --------------------------------------------------------------------------------------------------------------- ~

	Writing optimization data to binary file.
	Final energy is   -290.4890111163780
	Final (previous) structure:
	Cartesian Geometry (in Angstrom)
	    H     4.5566519794   0.2131280751  -0.7096599843
	    C     3.7279767780  -0.3689057634  -0.3239874631
	    C     2.4255562028   0.4213743017  -0.3863120566
	    H     3.6630217183  -1.2787816620  -0.9117756305
	    H     3.9702631917  -0.6520857375   0.6950275306
	    C     1.2323328443  -0.3611778940   0.1410773729
	    H     2.2179023456   0.7222850348  -1.4069603115
	    H     2.5298466147   1.3381174618   0.1884508928
	    N     0.0106919667   0.4147361828   0.0859441082
	    H     1.0864323049  -1.2605146829  -0.4484002975
	    H     1.4494169919  -0.7107934088   1.1546266122
	    C    -1.2108553222  -0.3562704419   0.1596258413
	    H     0.0178161926   1.1235381665   0.7879942388
	    C    -2.4377509138   0.5427217100   0.1187437411
	    H    -1.2335639680  -1.0312126532  -0.6901812782
	    H    -1.2554574592  -0.9842860190   1.0548309245
	    C    -3.7460798466  -0.2391312885   0.1573791911
	    H    -2.3925950496   1.1500531202  -0.7784872370
	    H    -2.4050246479   1.2306567755   0.9603194217
	    H    -3.8243041405  -0.9134340444  -0.6889139535
	    H    -4.5996574970   0.4276591629   0.1268647043
	    H    -3.8242852126  -0.8338179910   1.0613714154
	Saving final (previous) structure.
			--------------------------
			 OPTKING Finished Execution 
			--------------------------

    Final optimized geometry and variables:
    Molecular point group: c1
    Full point group: C1

    Geometry (in Angstrom), charge = 0, multiplicity = 1:

    H            4.556651979400     0.213128075074    -0.709659984276
    C            3.727976778048    -0.368905763446    -0.323987463134
    C            2.425556202808     0.421374301712    -0.386312056572
    H            3.663021718301    -1.278781662048    -0.911775630508
    H            3.970263191741    -0.652085737491     0.695027530578
    C            1.232332844257    -0.361177893991     0.141077372918
    H            2.217902345597     0.722285034821    -1.406960311460
    H            2.529846614733     1.338117461842     0.188450892795
    N            0.010691966694     0.414736182752     0.085944108154
    H            1.086432304920    -1.260514682946    -0.448400297517
    H            1.449416991882    -0.710793408847     1.154626612184
    C           -1.210855322185    -0.356270441920     0.159625841270
    H            0.017816192629     1.123538166516     0.787994238840
    C           -2.437750913793     0.542721710013     0.118743741111
    H           -1.233563967988    -1.031212653242    -0.690181278172
    H           -1.255457459183    -0.984286019029     1.054830924538
    C           -3.746079846612    -0.239131288522     0.157379191081
    H           -2.392595049589     1.150053120153    -0.778487237034
    H           -2.405024647865     1.230656775494     0.960319421663
    H           -3.824304140463    -0.913434044414    -0.688913953525
    H           -4.599657497035     0.427659162938     0.126864704340
    H           -3.824285212646    -0.833817990958     1.061371415376

	Cleaning optimization helper files.


Properties will be evaluated at   0.000000,   0.000000,   0.000000 Bohr

Properties computed using the  density matrix

  Nuclear Dipole Moment: (a.u.)
     X:    -0.0408      Y:    -1.3694      Z:     0.3702

  Electronic Dipole Moment: (a.u.)
     X:     0.0178      Y:     1.2948      Z:    -0.0646

  Dipole Moment: (a.u.)
     X:    -0.0231      Y:    -0.0746      Z:     0.3055     Total:     0.3153

  Dipole Moment: (Debye)
     X:    -0.0586      Y:    -0.1896      Z:     0.7765     Total:     0.8015

  Quadrupole Moment: (Debye Ang)
    XX:   -47.8135     YY:   -47.8423     ZZ:   -47.0963
    XY:     0.0400     XZ:     0.0664     YZ:     1.8520

  Traceless Quadrupole Moment: (Debye Ang)
    XX:    -0.2294     YY:    -0.2583     ZZ:     0.4877
    XY:     0.0400     XZ:     0.0664     YZ:     1.8520

  Mulliken Charges: (a.u.)
   Center  Symbol    Alpha    Beta     Spin     Total
       1     H     0.44778  0.44778  0.00000  0.10445
       2     C     3.15438  3.15438  0.00000 -0.30877
       3     C     3.07487  3.07487  0.00000 -0.14975
       4     H     0.45552  0.45552  0.00000  0.08897
       5     H     0.45660  0.45660  0.00000  0.08681
       6     C     3.03046  3.03046  0.00000 -0.06092
       7     H     0.45130  0.45130  0.00000  0.09740
       8     H     0.45869  0.45869  0.00000  0.08261
       9     N     3.64152  3.64152  0.00000 -0.28303
      10     H     0.45741  0.45741  0.00000  0.08519
      11     H     0.46900  0.46900  0.00000  0.06199
      12     C     3.02149  3.02149  0.00000 -0.04299
      13     H     0.44310  0.44310  0.00000  0.11379
      14     C     3.08148  3.08148  0.00000 -0.16296
      15     H     0.45956  0.45956  0.00000  0.08088
      16     H     0.47601  0.47601  0.00000  0.04797
      17     C     3.15357  3.15357  0.00000 -0.30713
      18     H     0.44925  0.44925  0.00000  0.10151
      19     H     0.45947  0.45947  0.00000  0.08107
      20     H     0.45481  0.45481  0.00000  0.09038
      21     H     0.44767  0.44767  0.00000  0.10466
      22     H     0.45607  0.45607  0.00000  0.08786

   Total alpha = 29.00000, Total beta = 29.00000, Total charge = -0.00000


*** Psi4 exiting successfully. Buy a developer a beer!
