    -----------------------------------------------------------------------
          Psi4: An Open-Source Ab Initio Electronic Structure Package
                              Psi4 (no tag) Driver

                          Git: Rev {detached?}  

    J. M. Turney, A. C. Simmonett, R. M. Parrish, E. G. Hohenstein,
    F. A. Evangelista, J. T. Fermann, B. J. Mintz, L. A. Burns, J. J. Wilke,
    M. L. Abrams, N. J. Russ, M. L. Leininger, C. L. Janssen, E. T. Seidl,
    W. D. Allen, H. F. Schaefer, R. A. King, E. F. Valeev, C. D. Sherrill,
    and T. D. Crawford, WIREs Comput. Mol. Sci. 2, 556-565 (2012)
    (doi: 10.1002/wcms.93)

                         Additional Contributions by
    A. E. DePrince, M. Saitow, U. Bozkaya, A. Yu. Sokolov
    -----------------------------------------------------------------------


    Psi4 started on: Fri Sep  2 21:18:58 2016

    Process ID:  17942
    PSI4DATADIR: /export131/home/mjharvey/miniconda3/share
    Memory level set to 256.000 MB

  ==> Input File <==

--------------------------------------------------------------------------
set {
	reference rhf
	basis 6-31G*
}


set_num_threads( 4 )
memory 2 gb

molecule MOL {
0 1

H	 -3.261111	 -0.295142	 1.469456
C	 -3.306842	 -0.277400	 0.373456
C	 -2.660244	 0.921717	 -0.272021
O	 -3.838538	 -1.161155	 -0.216482
C	 -1.220012	 1.144545	 0.209990
H	 -2.705793	 0.797307	 -1.347733
H	 -3.263782	 1.790044	 -0.010477
C	 -0.252658	 0.041456	 -0.226725
H	 -0.873521	 2.100229	 -0.171974
H	 -1.211708	 1.231594	 1.295398
C	 1.180775	 0.282413	 0.250794
H	 -0.266029	 -0.034465	 -1.312038
H	 -0.597733	 -0.921000	 0.146291
C	 2.148627	 -0.814315	 -0.201312
H	 1.516199	 1.249228	 -0.115937
H	 1.192670	 0.346017	 1.338083
C	 3.580890	 -0.659131	 0.322722
H	 2.166869	 -0.852443	 -1.289387
H	 1.762857	 -1.776509	 0.128956
C	 3.826289	 -1.284711	 1.696785
H	 3.813206	 0.401548	 0.376919
H	 4.276196	 -1.084894	 -0.397832
H	 3.133533	 -0.889138	 2.434945
H	 3.710564	 -2.363258	 1.678946
H	 4.833372	 -1.071777	 2.042384

	symmetry c1
}
set optking {
	frozen_dihedral = ("
		20 17 14 18
	")
}

ee = optimize('scf')
oeprop('DIPOLE', 'QUADRUPOLE', 'MULLIKEN_CHARGES')
f=open( 'psi4out.xyz', 'w' )
f.write( "25  " )
f.write( str(ee) + "\n" )
f.write( MOL.save_string_xyz() )
f.close()
--------------------------------------------------------------------------

  Memory set to   2.000 GiB by Python script.
gradient() will perform analytic gradient computation.

*** tstart() called on cx1-1-2-2.cx1.hpc.ic.ac.uk
*** at Fri Sep  2 21:18:59 2016


         ---------------------------------------------------------
                                   SCF
            by Justin Turney, Rob Parrish, and Andy Simmonett
                              RHF Reference
                        4 Threads,   2000 MiB Core
         ---------------------------------------------------------

  ==> Geometry <==

    Molecular point group: c1
    Full point group: C1

    Geometry (in Angstrom), charge = 0, multiplicity = 1:

       Center              X                  Y                   Z               Mass       
    ------------   -----------------  -----------------  -----------------  -----------------
           H         -3.202587158439    -0.078930149448     1.245473305990     1.007825032070
           C         -3.248318158439    -0.061188149448     0.149473305990    12.000000000000
           C         -2.601720158439     1.137928850552    -0.496003694010    12.000000000000
           O         -3.780014158439    -0.944943149448    -0.440464694010    15.994914619560
           C         -1.161488158439     1.360756850552    -0.013992694010    12.000000000000
           H         -2.647269158439     1.013518850552    -1.571715694010     1.007825032070
           H         -3.205258158439     2.006255850552    -0.234459694010     1.007825032070
           C         -0.194134158439     0.257667850552    -0.450707694010    12.000000000000
           H         -0.814997158439     2.316440850552    -0.395956694010     1.007825032070
           H         -1.153184158439     1.447805850552     1.071415305990     1.007825032070
           C          1.239298841561     0.498624850552     0.026811305990    12.000000000000
           H         -0.207505158439     0.181746850552    -1.536020694010     1.007825032070
           H         -0.539209158439    -0.704788149448    -0.077691694010     1.007825032070
           C          2.207150841561    -0.598103149448    -0.425294694010    12.000000000000
           H          1.574722841561     1.465439850552    -0.339919694010     1.007825032070
           H          1.251193841561     0.562228850552     1.114100305990     1.007825032070
           C          3.639413841561    -0.442919149448     0.098739305990    12.000000000000
           H          2.225392841561    -0.636231149448    -1.513369694010     1.007825032070
           H          1.821380841561    -1.560297149448    -0.095026694010     1.007825032070
           C          3.884812841561    -1.068499149448     1.472802305990    12.000000000000
           H          3.871729841561     0.617759850552     0.152936305990     1.007825032070
           H          4.334719841561    -0.868682149448    -0.621814694010     1.007825032070
           H          3.192056841561    -0.672926149448     2.210962305990     1.007825032070
           H          3.769087841561    -2.147046149448     1.454963305990     1.007825032070
           H          4.891895841561    -0.855565149448     1.818401305990     1.007825032070

  Running in c1 symmetry.

  Rotational constants: A =      0.12505  B =      0.01585  C =      0.01513 [cm^-1]
  Rotational constants: A =   3748.84482  B =    475.06981  C =    453.66022 [MHz]
  Nuclear repulsion =  438.609556475123554

  Charge       = 0
  Multiplicity = 1
  Electrons    = 72
  Nalpha       = 36
  Nbeta        = 36

  ==> Algorithm <==

  SCF Algorithm Type is DF.
  DIIS enabled.
  MOM disabled.
  Fractional occupation disabled.
  Guess Type is CORE.
  Energy threshold   = 1.00e-08
  Density threshold  = 1.00e-08
  Integral threshold = 0.00e+00

  ==> Primary Basis <==

  Basis Set: 6-31G*
    Number of shells: 86
    Number of basis function: 167
    Number of Cartesian functions: 167
    Spherical Harmonics?: false
    Max angular momentum: 2

  ==> Pre-Iterations <==

   -------------------------------------------------------
    Irrep   Nso     Nmo     Nalpha   Nbeta   Ndocc  Nsocc
   -------------------------------------------------------
     A        167     167       0       0       0       0
   -------------------------------------------------------
    Total     167     167      36      36      36       0
   -------------------------------------------------------

 OEINTS: Overlap, kinetic, potential, dipole, and quadrupole integrals
         stored in file 35.

  ==> Integral Setup <==

  ==> DFJK: Density-Fitted J/K Matrices <==

    J tasked:                  Yes
    K tasked:                  Yes
    wK tasked:                  No
    OpenMP threads:              4
    Integrals threads:           4
    Memory (MB):              1430
    Algorithm:                Core
    Integral Cache:           NONE
    Schwarz Cutoff:          1E-12
    Fitting Condition:       1E-12

   => Auxiliary Basis Set <=

  Basis Set: 
    Number of shells: 360
    Number of basis function: 1129
    Number of Cartesian functions: 1129
    Spherical Harmonics?: false
    Max angular momentum: 3

  Minimum eigenvalue in the overlap matrix is 3.0641264038E-03.
  Using Symmetric Orthogonalization.
  SCF Guess: Core (One-Electron) Hamiltonian.

  ==> Iterations <==

                           Total Energy        Delta E     RMS |[F,P]|

   @DF-RHF iter   1:  -292.01949943200520   -2.92019e+02   5.76206e-02 
   @DF-RHF iter   2:   -25.64181200230314    2.66378e+02   7.36236e-02 DIIS
   @DF-RHF iter   3:  -268.70199480622045   -2.43060e+02   4.36688e-02 DIIS
   @DF-RHF iter   4:  -212.09243865293934    5.66096e+01   6.53935e-02 DIIS
   @DF-RHF iter   5:  -337.60324278512860   -1.25511e+02   3.42366e-02 DIIS
   @DF-RHF iter   6:  -371.73461177016395   -3.41314e+01   2.41121e-02 DIIS
   @DF-RHF iter   7:  -384.29310011443772   -1.25585e+01   9.15197e-03 DIIS
   @DF-RHF iter   8:  -386.83205781725906   -2.53896e+00   4.46129e-03 DIIS
   @DF-RHF iter   9:  -387.08221239525096   -2.50155e-01   1.41699e-03 DIIS
   @DF-RHF iter  10:  -387.11029288818008   -2.80805e-02   7.05884e-04 DIIS
   @DF-RHF iter  11:  -387.11908123500666   -8.78835e-03   2.40051e-04 DIIS
   @DF-RHF iter  12:  -387.12018590789785   -1.10467e-03   9.07427e-05 DIIS
   @DF-RHF iter  13:  -387.12032634069419   -1.40433e-04   3.70095e-05 DIIS
   @DF-RHF iter  14:  -387.12035064487463   -2.43042e-05   1.06988e-05 DIIS
   @DF-RHF iter  15:  -387.12035381937494   -3.17450e-06   2.15931e-06 DIIS
   @DF-RHF iter  16:  -387.12035397540262   -1.56028e-07   8.22857e-07 DIIS
   @DF-RHF iter  17:  -387.12035400271202   -2.73094e-08   3.38205e-07 DIIS
   @DF-RHF iter  18:  -387.12035401175581   -9.04379e-09   1.55002e-07 DIIS
   @DF-RHF iter  19:  -387.12035401425646   -2.50066e-09   5.13697e-08 DIIS
   @DF-RHF iter  20:  -387.12035401448713   -2.30671e-10   1.74680e-08 DIIS
   @DF-RHF iter  21:  -387.12035401450248   -1.53477e-11   7.31085e-09 DIIS

  ==> Post-Iterations <==

    Orbital Energies (a.u.)
    -----------------------

    Doubly Occupied:                                                      

       1A    -20.562047     2A    -11.326195     3A    -11.235458  
       4A    -11.234729     5A    -11.223998     6A    -11.220638  
       7A    -11.217309     8A    -11.216327     9A    -11.210961  
      10A     -1.402025    11A     -1.104036    12A     -1.069529  
      13A     -1.014076    14A     -0.942908    15A     -0.872981  
      16A     -0.818749    17A     -0.788934    18A     -0.785251  
      19A     -0.664151    20A     -0.662451    21A     -0.630271  
      22A     -0.625471    23A     -0.606724    24A     -0.593195  
      25A     -0.567454    26A     -0.559594    27A     -0.528202  
      28A     -0.521696    29A     -0.516870    30A     -0.497288  
      31A     -0.485259    32A     -0.482413    33A     -0.464732  
      34A     -0.457487    35A     -0.441471    36A     -0.409598  

    Virtual:                                                              

      37A      0.160259    38A      0.224487    39A      0.239312  
      40A      0.252335    41A      0.261945    42A      0.271592  
      43A      0.278096    44A      0.301787    45A      0.309176  
      46A      0.310552    47A      0.315398    48A      0.322427  
      49A      0.333690    50A      0.343634    51A      0.349556  
      52A      0.358369    53A      0.364113    54A      0.385084  
      55A      0.402374    56A      0.428775    57A      0.437809  
      58A      0.464448    59A      0.472135    60A      0.481915  
      61A      0.500859    62A      0.695699    63A      0.700538  
      64A      0.715529    65A      0.725219    66A      0.748187  
      67A      0.760332    68A      0.773102    69A      0.780384  
      70A      0.826773    71A      0.846777    72A      0.864748  
      73A      0.886577    74A      0.920586    75A      0.936588  
      76A      0.965122    77A      0.967949    78A      0.978854  
      79A      0.986735    80A      1.019831    81A      1.039582  
      82A      1.072379    83A      1.101710    84A      1.114573  
      85A      1.119286    86A      1.126900    87A      1.136565  
      88A      1.143923    89A      1.155601    90A      1.172012  
      91A      1.181368    92A      1.192607    93A      1.196262  
      94A      1.205973    95A      1.207283    96A      1.220703  
      97A      1.230788    98A      1.249414    99A      1.253471  
     100A      1.261129   101A      1.284559   102A      1.289983  
     103A      1.322022   104A      1.357730   105A      1.388290  
     106A      1.429058   107A      1.468499   108A      1.607701  
     109A      1.648851   110A      1.698438   111A      1.724976  
     112A      1.766827   113A      1.779636   114A      1.840569  
     115A      1.846387   116A      1.887765   117A      1.908075  
     118A      1.937615   119A      1.992700   120A      2.068560  
     121A      2.081285   122A      2.120028   123A      2.141768  
     124A      2.156592   125A      2.179034   126A      2.197988  
     127A      2.226082   128A      2.239110   129A      2.260478  
     130A      2.281337   131A      2.289382   132A      2.333737  
     133A      2.362004   134A      2.385667   135A      2.405311  
     136A      2.421624   137A      2.464905   138A      2.526848  
     139A      2.566535   140A      2.573722   141A      2.629496  
     142A      2.658325   143A      2.689729   144A      2.715801  
     145A      2.748972   146A      2.770837   147A      2.800113  
     148A      2.831229   149A      2.899656   150A      2.937862  
     151A      2.953321   152A      2.983475   153A      3.005608  
     154A      3.024273   155A      3.131393   156A      3.190602  
     157A      3.265441   158A      3.368624   159A      4.313255  
     160A      4.525515   161A      4.570379   162A      4.634583  
     163A      4.728474   164A      4.828374   165A      4.882885  
     166A      4.921217   167A      5.008163  

    Final Occupation by Irrep:
              A 
    DOCC [    36 ]

  Energy converged.

  @DF-RHF Final Energy:  -387.12035401450248

   => Energetics <=

    Nuclear Repulsion Energy =            438.6095564751235543
    One-Electron Energy =               -1393.5388650244576638
    Two-Electron Energy =                 567.8089545348318552
    DFT Exchange-Correlation Energy =       0.0000000000000000
    Empirical Dispersion Energy =           0.0000000000000000
    PCM Polarization Energy =               0.0000000000000000
    EFP Energy =                            0.0000000000000000
    Total Energy =                       -387.1203540145022544

    Alert: EFP and PCM quantities not currently incorporated into SCF psivars.

Properties will be evaluated at   0.000000,   0.000000,   0.000000 Bohr
  ==> Properties <==


Properties computed using the SCF density matrix

  Nuclear Dipole Moment: (a.u.)
     X:    14.1959      Y:     1.9517      Z:     2.5124

  Electronic Dipole Moment: (a.u.)
     X:   -13.4977      Y:    -1.0229      Z:    -2.1247

  Dipole Moment: (a.u.)
     X:     0.6982      Y:     0.9288      Z:     0.3877     Total:     1.2249

  Dipole Moment: (Debye)
     X:     1.7746      Y:     2.3607      Z:     0.9856     Total:     3.1134


  Saving occupied orbitals to File 180.

*** tstop() called on cx1-1-2-2.cx1.hpc.ic.ac.uk at Fri Sep  2 21:19:09 2016
Module time:
	user time   =      31.93 seconds =       0.53 minutes
	system time =       0.38 seconds =       0.01 minutes
	total time  =         10 seconds =       0.17 minutes
Total time:
	user time   =      31.93 seconds =       0.53 minutes
	system time =       0.38 seconds =       0.01 minutes
	total time  =         10 seconds =       0.17 minutes

*** tstart() called on cx1-1-2-2.cx1.hpc.ic.ac.uk
*** at Fri Sep  2 21:19:09 2016


         ------------------------------------------------------------
                                   SCF GRAD                          
                          Rob Parrish, Justin Turney,                
                       Andy Simmonett, and Alex Sokolov              
         ------------------------------------------------------------

  ==> Geometry <==

    Molecular point group: c1
    Full point group: C1

    Geometry (in Angstrom), charge = 0, multiplicity = 1:

       Center              X                  Y                   Z               Mass       
    ------------   -----------------  -----------------  -----------------  -----------------
           H         -3.202587158439    -0.078930149448     1.245473305990     1.007825032070
           C         -3.248318158439    -0.061188149448     0.149473305990    12.000000000000
           C         -2.601720158439     1.137928850552    -0.496003694010    12.000000000000
           O         -3.780014158439    -0.944943149448    -0.440464694010    15.994914619560
           C         -1.161488158439     1.360756850552    -0.013992694010    12.000000000000
           H         -2.647269158439     1.013518850552    -1.571715694010     1.007825032070
           H         -3.205258158439     2.006255850552    -0.234459694010     1.007825032070
           C         -0.194134158439     0.257667850552    -0.450707694010    12.000000000000
           H         -0.814997158439     2.316440850552    -0.395956694010     1.007825032070
           H         -1.153184158439     1.447805850552     1.071415305990     1.007825032070
           C          1.239298841561     0.498624850552     0.026811305990    12.000000000000
           H         -0.207505158439     0.181746850552    -1.536020694010     1.007825032070
           H         -0.539209158439    -0.704788149448    -0.077691694010     1.007825032070
           C          2.207150841561    -0.598103149448    -0.425294694010    12.000000000000
           H          1.574722841561     1.465439850552    -0.339919694010     1.007825032070
           H          1.251193841561     0.562228850552     1.114100305990     1.007825032070
           C          3.639413841561    -0.442919149448     0.098739305990    12.000000000000
           H          2.225392841561    -0.636231149448    -1.513369694010     1.007825032070
           H          1.821380841561    -1.560297149448    -0.095026694010     1.007825032070
           C          3.884812841561    -1.068499149448     1.472802305990    12.000000000000
           H          3.871729841561     0.617759850552     0.152936305990     1.007825032070
           H          4.334719841561    -0.868682149448    -0.621814694010     1.007825032070
           H          3.192056841561    -0.672926149448     2.210962305990     1.007825032070
           H          3.769087841561    -2.147046149448     1.454963305990     1.007825032070
           H          4.891895841561    -0.855565149448     1.818401305990     1.007825032070

  Nuclear repulsion =  438.609556475123554

  ==> Basis Set <==

  Basis Set: 6-31G*
    Number of shells: 86
    Number of basis function: 167
    Number of Cartesian functions: 167
    Spherical Harmonics?: false
    Max angular momentum: 2

  ==> DFJKGrad: Density-Fitted SCF Gradients <==

    Gradient:                    1
    J tasked:                  Yes
    K tasked:                  Yes
    wK tasked:                  No
    OpenMP threads:              4
    Integrals threads:           4
    Memory (MB):              1430
    Schwarz Cutoff:          0E+00
    Fitting Condition:       1E-12

   => Auxiliary Basis Set <=

  Basis Set: 
    Number of shells: 360
    Number of basis function: 1129
    Number of Cartesian functions: 1129
    Spherical Harmonics?: false
    Max angular momentum: 3


  -Total Gradient:
     Atom            X                  Y                   Z
    ------   -----------------  -----------------  -----------------
       1        0.000283913453    -0.000125266294    -0.000069944871
       2       -0.000799118488     0.000373190167     0.000148739589
       3        0.000317555852    -0.000285657749    -0.000131107331
       4        0.000318116952    -0.000044392114    -0.000040193663
       5        0.000031659442     0.000078859154    -0.000008725349
       6       -0.000002925506     0.000039754269     0.000022445698
       7       -0.000045206695    -0.000025033391     0.000066863272
       8        0.000114412900     0.000217651438    -0.000695510867
       9       -0.000026872147    -0.000154235317    -0.000008716411
      10        0.000001906301     0.000068196839     0.000129731579
      11        0.000444165438     0.001607030045    -0.001709360121
      12       -0.000104576603    -0.000062066384     0.000010847048
      13        0.000030298282     0.000026064048     0.000035322909
      14        0.001497108618     0.004352045841     0.001056268889
      15       -0.001877028463    -0.000256398477     0.000428608793
      16        0.000562274523    -0.000593112867     0.000416396194
      17       -0.002295928137    -0.003744822200     0.000786789623
      18        0.001124691642    -0.001343487861    -0.001161081785
      19        0.001020327863     0.000989238655     0.001854475315
      20        0.000651754226    -0.002301216320    -0.000773749700
      21       -0.002335315003    -0.000443302101     0.000884167667
      22        0.000402046883     0.000535376933    -0.001862181198
      23       -0.000671993079     0.000569919811    -0.000441171322
      24        0.001167591649     0.000709411879     0.001369449180
      25        0.000191140110    -0.000187748004    -0.000308363140


*** tstop() called on cx1-1-2-2.cx1.hpc.ic.ac.uk at Fri Sep  2 21:19:19 2016
Module time:
	user time   =      37.30 seconds =       0.62 minutes
	system time =       0.32 seconds =       0.01 minutes
	total time  =         10 seconds =       0.17 minutes
Total time:
	user time   =      69.24 seconds =       1.15 minutes
	system time =       0.70 seconds =       0.01 minutes
	total time  =         20 seconds =       0.33 minutes
CURRENT ENERGY: -387.1203540145

			-----------------------------------------
			 OPTKING 2.0: for geometry optimizations 
			  - R.A. King,  Bethel University        
			-----------------------------------------

	Internal coordinates to be generated automatically.
	Detected frag with atoms:  1 2 3 4 5 6 7 8 9 10 11 12 13 14 15 16 17 18 19 20
	 21 22 23 24 25
	---Fragment 1 Bond Connectivity---
	 1 : 2
	 2 : 1 3 4
	 3 : 2 5 6 7
	 4 : 2
	 5 : 3 8 9 10
	 6 : 3
	 7 : 3
	 8 : 5 11 12 13
	 9 : 5
	 10 : 5
	 11 : 8 14 15 16
	 12 : 8
	 13 : 8
	 14 : 11 17 18 19
	 15 : 11
	 16 : 11
	 17 : 14 20 21 22
	 18 : 14
	 19 : 14
	 20 : 17 23 24 25
	 21 : 17
	 22 : 17
	 23 : 20
	 24 : 20
	 25 : 20

	Assuming in current code that numbering for constraints corresponds to unified fragment.
	Frozen dihedral atom list: 
	    20    17    14    18
	---Fragment 1 Geometry and Gradient---
	 H          -6.0520126461       -0.1491563661        2.3536034541
	 C          -6.1384317119       -0.1156288450        0.2824636125
	 C          -4.9165385739        2.1503738863       -0.9373111426
	 O          -7.1431915379       -1.7856837636       -0.8323576429
	 C          -2.1948945260        2.5714577810       -0.0264423595
	 H          -5.0026137095        1.9152730581       -2.9701122204
	 H          -6.0570601046        3.7912741100       -0.4430646109
	 C          -0.3668603925        0.4869216708       -0.8517141077
	 H          -1.5401214285        4.3774388106       -0.7482497122
	 H          -2.1792022402        2.7359565511        2.0246815029
	 C           2.3419354074        0.9422644106        0.0506660256
	 H          -0.3921279206        0.3434517731       -2.9026584461
	 H          -1.0189576378       -1.3318565842       -0.1468160245
	 C           4.1709106245       -1.1302511517       -0.8036904974
	 H           2.9757949057        2.7692799818       -0.6423551289
	 H           2.3644136997        1.0624585516        2.1053444629
	 C           6.8774954448       -0.8369958915        0.1865902469
	 H           4.2053830086       -1.2023026297       -2.8598542595
	 H           3.4419109742       -2.9485342984       -0.1795744270
	 C           7.3412323481       -2.0191707657        2.7831930062
	 H           7.3165090611        1.1673969334        0.2890077341
	 H           8.1914333633       -1.6415713590       -1.1750594771
	 H           6.0321132312       -1.2716461301        4.1781132485
	 H           7.1225437913       -4.0573292171        2.7494821817
	 H           9.2443434112       -1.6167838213        3.4362804680
	             0.0002839135       -0.0001252663       -0.0000699449
	            -0.0007991185        0.0003731902        0.0001487396
	             0.0003175559       -0.0002856577       -0.0001311073
	             0.0003181170       -0.0000443921       -0.0000401937
	             0.0000316594        0.0000788592       -0.0000087253
	            -0.0000029255        0.0000397543        0.0000224457
	            -0.0000452067       -0.0000250334        0.0000668633
	             0.0001144129        0.0002176514       -0.0006955109
	            -0.0000268721       -0.0001542353       -0.0000087164
	             0.0000019063        0.0000681968        0.0001297316
	             0.0004441654        0.0016070300       -0.0017093601
	            -0.0001045766       -0.0000620664        0.0000108470
	             0.0000302983        0.0000260640        0.0000353229
	             0.0014971086        0.0043520458        0.0010562689
	            -0.0018770285       -0.0002563985        0.0004286088
	             0.0005622745       -0.0005931129        0.0004163962
	            -0.0022959281       -0.0037448222        0.0007867896
	             0.0011246916       -0.0013434879       -0.0011610818
	             0.0010203279        0.0009892387        0.0018544753
	             0.0006517542       -0.0023012163       -0.0007737497
	            -0.0023353150       -0.0004433021        0.0008841677
	             0.0004020469        0.0005353769       -0.0018621812
	            -0.0006719931        0.0005699198       -0.0004411713
	             0.0011675916        0.0007094119        0.0013694492
	             0.0001911401       -0.0001877480       -0.0003083631

	Previous optimization step data not found.  Starting new optimization.

	---Fragment 1 Intrafragment Coordinates---
	 - Coordinate -           - BOHR/RAD -       - ANG/DEG -
	 R(1,2)           =         2.073213	       1.097097
	 R(2,3)           =         2.848797	       1.507518
	 R(2,4)           =         2.245318	       1.188171
	 R(3,5)           =         2.900748	       1.535010
	 R(3,6)           =         2.048161	       1.083840
	 R(3,7)           =         2.058549	       1.089337
	 R(5,8)           =         2.892762	       1.530784
	 R(5,9)           =         2.052145	       1.085949
	 R(5,10)          =         2.057769	       1.088925
	 R(8,11)          =         2.891228	       1.529972
	 R(8,12)          =         2.056112	       1.088047
	 R(8,13)          =         2.056713	       1.088365
	 R(11,14)         =         2.893164	       1.530996
	 R(11,15)         =         2.054274	       1.087075
	 R(11,16)         =         2.058314	       1.089213
	 R(14,17)         =         2.896939	       1.532994
	 R(14,18)         =         2.057715	       1.088896
	 R(14,19)         =         2.055995	       1.087986
	 R(17,20)         =         2.890490	       1.529582
	 R(17,21)         =         2.054462	       1.087174
	 R(17,22)         =         2.056177	       1.088082
	 R(20,23)         =         2.053872	       1.086862
	 R(20,24)         =         2.050134	       1.084884
	 R(20,25)         =         2.051894	       1.085816
	 B(1,2,3)         =         2.007250	     115.006965
	 B(1,2,4)         =         2.097443	     120.174643
	 B(2,3,5)         =         1.964324	     112.547454
	 B(2,3,6)         =         1.891919	     108.398955
	 B(2,3,7)         =         1.868793	     107.073971
	 B(3,2,4)         =         2.178492	     124.818377
	 B(3,5,8)         =         1.980924	     113.498558
	 B(3,5,9)         =         1.893013	     108.461633
	 B(3,5,10)        =         1.908962	     109.375455
	 B(5,3,6)         =         1.947385	     111.576947
	 B(5,3,7)         =         1.905753	     109.191583
	 B(5,8,11)        =         1.970917	     112.925234
	 B(5,8,12)        =         1.904016	     109.092094
	 B(5,8,13)        =         1.916760	     109.822233
	 B(6,3,7)         =         1.882319	     107.848921
	 B(8,5,9)         =         1.909420	     109.401708
	 B(8,5,10)        =         1.914688	     109.703540
	 B(8,11,14)       =         1.968494	     112.786418
	 B(8,11,15)       =         1.900606	     108.896722
	 B(8,11,16)       =         1.908145	     109.328671
	 B(9,5,10)        =         1.852313	     106.129710
	 B(11,8,12)       =         1.911158	     109.501291
	 B(11,8,13)       =         1.906416	     109.229577
	 B(11,14,17)      =         2.001127	     114.656143
	 B(11,14,18)      =         1.907898	     109.314490
	 B(11,14,19)      =         1.896245	     108.646808
	 B(12,8,13)       =         1.850705	     106.037584
	 B(14,11,15)      =         1.920287	     110.024335
	 B(14,11,16)      =         1.906790	     109.251013
	 B(14,17,20)      =         1.999369	     114.555394
	 B(14,17,21)      =         1.891727	     108.387985
	 B(14,17,22)      =         1.908210	     109.332354
	 B(15,11,16)      =         1.856107	     106.347111
	 B(17,14,18)      =         1.906541	     109.236727
	 B(17,14,19)      =         1.893394	     108.483514
	 B(17,20,23)      =         1.937990	     111.038672
	 B(17,20,24)      =         1.954884	     112.006603
	 B(17,20,25)      =         1.933199	     110.764116
	 B(18,14,19)      =         1.852824	     106.158983
	 B(20,17,21)      =         1.896478	     108.660174
	 B(20,17,22)      =         1.909576	     109.410626
	 B(21,17,22)      =         1.852739	     106.154143
	 B(23,20,24)      =         1.880745	     107.758747
	 B(23,20,25)      =         1.879297	     107.675814
	 B(24,20,25)      =         1.874576	     107.405287
	 D(1,2,3,5)       =         0.911725	      52.238018
	 D(1,2,3,6)       =         3.074186	     176.137879
	 D(1,2,3,7)       =        -1.182515	     -67.753132
	 D(2,3,5,8)       =         1.166881	      66.857339
	 D(2,3,5,9)       =        -2.990401	    -171.337351
	 D(2,3,5,10)      =        -0.977463	     -56.004502
	 D(3,5,8,11)      =         3.133357	     179.528141
	 D(3,5,8,12)      =         1.004026	      57.526455
	 D(3,5,8,13)      =        -1.017393	     -58.292351
	 D(4,2,3,5)       =        -2.230678	    -127.808463
	 D(4,2,3,6)       =        -0.068218	      -3.908602
	 D(4,2,3,7)       =         1.958266	     112.200387
	 D(5,8,11,14)     =        -3.130079	    -179.340336
	 D(5,8,11,15)     =        -0.993161	     -56.903962
	 D(5,8,11,16)     =         1.028037	      58.902156
	 D(6,3,5,8)       =        -0.964520	     -55.262904
	 D(6,3,5,9)       =         1.161384	      66.542406
	 D(6,3,5,10)      =        -3.108863	    -178.124745
	 D(7,3,5,8)       =        -3.043568	    -174.383589
	 D(7,3,5,9)       =        -0.917664	     -52.578279
	 D(7,3,5,10)      =         1.095274	      62.754570
	 D(8,11,14,17)    =        -3.081836	    -176.576209
	 D(8,11,14,18)    =         1.054137	      60.397615
	 D(8,11,14,19)    =        -0.960606	     -55.038673
	 D(9,5,8,11)      =         1.016622	      58.248135
	 D(9,5,8,12)      =        -1.112709	     -63.753550
	 D(9,5,8,13)      =        -3.134129	    -179.572357
	 D(10,5,8,11)     =        -1.008641	     -57.790889
	 D(10,5,8,12)     =        -3.137972	    -179.792575
	 D(10,5,8,13)     =         1.123793	      64.388619
	 D(11,14,17,20)   =         1.517250	      86.932035
	 D(11,14,17,21)   =        -0.603417	     -34.573269
	 D(11,14,17,22)   =        -2.615757	    -149.871854
	 D(12,8,11,14)    =        -1.004768	     -57.568948
	 D(12,8,11,15)    =         1.132150	      64.867425
	 D(12,8,11,16)    =        -3.129837	    -179.326456
	 D(13,8,11,14)    =         1.014879	      58.148278
	 D(13,8,11,15)    =        -3.131389	    -179.415348
	 D(13,8,11,16)    =        -1.110190	     -63.609230
	 D(14,17,20,23)   =        -0.975995	     -55.920414
	 D(14,17,20,24)   =         1.127582	      64.605708
	 D(14,17,20,25)   =        -3.063188	    -175.507759
	 D(15,11,14,17)   =         1.075509	      61.622122
	 D(15,11,14,18)   =        -1.071703	     -61.404054
	 D(15,11,14,19)   =        -3.086446	    -176.840342
	 D(16,11,14,17)   =        -0.956001	     -54.774830
	 D(16,11,14,18)   =        -3.103213	    -177.801006
	 D(16,11,14,19)   =         1.165229	      66.762706
	*D(18,14,17,20)   =        -2.617994	    -149.999987
	 D(18,14,17,21)   =         1.544524	      88.494709
	 D(18,14,17,22)   =        -0.467816	     -26.803877
	 D(19,14,17,20)   =        -0.605537	     -34.694711
	 D(19,14,17,21)   =        -2.726205	    -156.200015
	 D(19,14,17,22)   =         1.544641	      88.501400
	 D(21,17,20,23)   =         1.142068	      65.435659
	 D(21,17,20,24)   =        -3.037540	    -174.038218
	 D(21,17,20,25)   =        -0.945125	     -54.151686
	 D(22,17,20,23)   =        -3.125438	    -179.074430
	 D(22,17,20,24)   =        -1.021861	     -58.548307
	 D(22,17,20,25)   =         1.070554	      61.338225

	Current energy   :      -387.1203540145

	Generating empirical Hessian (Schlegel '84) for each fragment.
	Taking RFO optimization step.
	Going to follow RFO solution 1.
	Using RFO vector 1.
	Norm of target step-size    0.26498
	Projected energy change by RFO approximation:        -0.0030408075

	Back-transformation to cartesian coordinates...
	Successfully converged to displaced geometry.

	Back-transformation to cartesian coordinates to adjust frozen coordinates...
	Successfully converged to displaced geometry.

	--- Internal Coordinate Step in ANG or DEG, aJ/ANG or AJ/DEG ---
	 ---------------------------------------------------------------------------
	   Coordinate                Previous        Force       Change         New 
	   ----------                --------       ------       ------       ------
	    1 R(1,2)          =      1.097097     0.000462     0.000087     1.097184
	    2 R(2,3)          =      1.507518     0.000501     0.000102     1.507620
	    3 R(2,4)          =      1.188171     0.000736     0.000043     1.188214
	    4 R(3,5)          =      1.535010     0.000470     0.000104     1.535114
	    5 R(3,6)          =      1.083840     0.000220     0.000040     1.083880
	    6 R(3,7)          =      1.089337    -0.000174    -0.000032     1.089305
	    7 R(5,8)          =      1.530784     0.000598     0.000130     1.530914
	    8 R(5,9)          =      1.085949     0.001164     0.000211     1.086160
	    9 R(5,10)         =      1.088925    -0.001110    -0.000204     1.088721
	   10 R(8,11)         =      1.529972    -0.000331    -0.000072     1.529900
	   11 R(8,12)         =      1.088047     0.000043     0.000008     1.088055
	   12 R(8,13)         =      1.088365     0.000169     0.000031     1.088396
	   13 R(11,14)        =      1.530996    -0.005599    -0.001222     1.529774
	   14 R(11,15)        =      1.087075     0.007842     0.001429     1.088504
	   15 R(11,16)        =      1.089213    -0.003190    -0.000585     1.088627
	   16 R(14,17)        =      1.532994     0.027278     0.005992     1.538986
	   17 R(14,18)        =      1.088896    -0.010101    -0.001852     1.087044
	   18 R(14,19)        =      1.087986     0.005550     0.001015     1.089000
	   19 R(17,20)        =      1.529582    -0.004707    -0.001023     1.528559
	   20 R(17,21)        =      1.087174     0.007311     0.001333     1.088507
	   21 R(17,22)        =      1.088082    -0.010551    -0.001929     1.086153
	   22 R(20,23)        =      1.086862    -0.002769    -0.000504     1.086358
	   23 R(20,24)        =      1.084884     0.007022     0.001270     1.086155
	   24 R(20,25)        =      1.085816    -0.000349    -0.000063     1.085753
	   25 B(1,2,3)        =    115.006965    -0.000001    -0.052281   114.954683
	   26 B(1,2,4)        =    120.174643    -0.000006    -0.075553   120.099090
	   27 B(2,3,5)        =    112.547454    -0.000003    -0.008258   112.539196
	   28 B(2,3,6)        =    108.398955    -0.000001    -0.019946   108.379009
	   29 B(2,3,7)        =    107.073971     0.000004     0.044124   107.118095
	   30 B(3,2,4)        =    124.818377     0.000008    -0.024079   124.794297
	   31 B(3,5,8)        =    113.498558     0.000007     0.028806   113.527364
	   32 B(3,5,9)        =    108.461633    -0.000004    -0.006863   108.454771
	   33 B(3,5,10)       =    109.375455    -0.000001    -0.007675   109.367780
	   34 B(5,3,6)        =    111.576947     0.000000    -0.016585   111.560362
	   35 B(5,3,7)        =    109.191583    -0.000000     0.009124   109.200708
	   36 B(5,8,11)       =    112.925234     0.000006     0.019670   112.944904
	   37 B(5,8,12)       =    109.092094    -0.000000    -0.047638   109.044455
	   38 B(5,8,13)       =    109.822233    -0.000001     0.055072   109.877305
	   39 B(6,3,7)        =    107.848921    -0.000001    -0.006009   107.842912
	   40 B(8,5,9)        =    109.401708     0.000000     0.016520   109.418227
	   41 B(8,5,10)       =    109.703540    -0.000004    -0.024962   109.678578
	   42 B(8,11,14)      =    112.786418     0.000049     0.206676   112.993094
	   43 B(8,11,15)      =    108.896722     0.000077     0.416049   109.312771
	   44 B(8,11,16)      =    109.328671    -0.000060    -0.079907   109.248764
	   45 B(9,5,10)       =    106.129710     0.000001    -0.007972   106.121739
	   46 B(11,8,12)      =    109.501291    -0.000011    -0.118832   109.382460
	   47 B(11,8,13)      =    109.229577     0.000004     0.079523   109.309101
	   48 B(11,14,17)     =    114.656143    -0.000276    -0.712285   113.943858
	   49 B(11,14,18)     =    109.314490     0.000065     0.349867   109.664356
	   50 B(11,14,19)     =    108.646808     0.000056     0.215457   108.862265
	   51 B(12,8,13)      =    106.037584     0.000002     0.010448   106.048033
	   52 B(14,11,15)     =    110.024335    -0.000126    -0.951157   109.073179
	   53 B(14,11,16)     =    109.251013     0.000055     0.506630   109.757644
	   54 B(14,17,20)     =    114.555394    -0.000278    -0.994186   113.561208
	   55 B(14,17,21)     =    108.387985     0.000184     1.940924   110.328909
	   56 B(14,17,22)     =    109.332354     0.000091    -0.535992   108.796362
	   57 B(15,11,16)     =    106.347111     0.000002    -0.117329   106.229782
	   58 B(17,14,18)     =    109.236727     0.000107     0.387781   109.624507
	   59 B(17,14,19)     =    108.483514     0.000154     0.794128   109.277642
	   60 B(17,20,23)     =    111.038672     0.000120     0.557720   111.596392
	   61 B(17,20,24)     =    112.006603    -0.000194    -1.006550   111.000053
	   62 B(17,20,25)     =    110.764116     0.000043     0.299156   111.063272
	   63 B(18,14,19)     =    106.158983    -0.000095    -1.070780   105.088204
	   64 B(20,17,21)     =    108.660174     0.000070     1.210065   109.870238
	   65 B(20,17,22)     =    109.410626     0.000016    -1.417286   107.993341
	   66 B(21,17,22)     =    106.154143    -0.000069    -0.177241   105.976902
	   67 B(23,20,24)     =    107.758747     0.000013    -0.122936   107.635811
	   68 B(23,20,25)     =    107.675814    -0.000059    -0.090886   107.584929
	   69 B(24,20,25)     =    107.405287     0.000080     0.376042   107.781329
	   70 D(1,2,3,5)      =     52.238018     0.000004     2.313787    54.551805
	   71 D(1,2,3,6)      =    176.137879     0.000003     2.272556   178.410435
	   72 D(1,2,3,7)      =    -67.753132     0.000003     2.278438   -65.474693
	   73 D(2,3,5,8)      =     66.857339    -0.000000     0.640782    67.498121
	   74 D(2,3,5,9)      =   -171.337351     0.000000     0.676022  -170.661329
	   75 D(2,3,5,10)     =    -56.004502    -0.000000     0.658690   -55.345811
	   76 D(3,5,8,11)     =    179.528141    -0.000002    -0.657128   178.871012
	   77 D(3,5,8,12)     =     57.526455     0.000001    -0.484653    57.041802
	   78 D(3,5,8,13)     =    -58.292351     0.000000    -0.500897   -58.793248
	   79 D(4,2,3,5)      =   -127.808463    -0.000003    -2.136970  -129.945433
	   80 D(4,2,3,6)      =     -3.908602    -0.000003    -2.178201    -6.086803
	   81 D(4,2,3,7)      =    112.200387    -0.000003    -2.172318   110.028069
	   82 D(5,8,11,14)    =   -179.340336     0.000011     0.750480  -178.589855
	   83 D(5,8,11,15)    =    -56.903962    -0.000006    -0.027759   -56.931721
	   84 D(5,8,11,16)    =     58.902156    -0.000003     0.019192    58.921348
	   85 D(6,3,5,8)      =    -55.262904     0.000000     0.685037   -54.577866
	   86 D(6,3,5,9)      =     66.542406     0.000001     0.720278    67.262684
	   87 D(6,3,5,10)     =   -178.124745     0.000000     0.702946  -177.421799
	   88 D(7,3,5,8)      =   -174.383589     0.000000     0.696855  -173.686734
	   89 D(7,3,5,9)      =    -52.578279     0.000001     0.732095   -51.846184
	   90 D(7,3,5,10)     =     62.754570     0.000001     0.714763    63.469333
	   91 D(8,11,14,17)   =   -176.576209    -0.000002    -1.669036  -178.245245
	   92 D(8,11,14,18)   =     60.397615    -0.000000    -1.935819    58.461796
	   93 D(8,11,14,19)   =    -55.038673     0.000010    -0.968433   -56.007107
	   94 D(9,5,8,11)     =     58.248135    -0.000002    -0.679764    57.568371
	   95 D(9,5,8,12)     =    -63.753550     0.000000    -0.507289   -64.260839
	   96 D(9,5,8,13)     =   -179.572357     0.000000    -0.523533  -180.095889
	   97 D(10,5,8,11)    =    -57.790889    -0.000002    -0.665438   -58.456327
	   98 D(10,5,8,12)    =   -179.792575     0.000001    -0.492962  -180.285537
	   99 D(10,5,8,13)    =     64.388619     0.000000    -0.509206    63.879413
	  100 D(11,14,17,20)  =     86.932035     0.000007    -0.246633    86.685402
	  101 D(11,14,17,21)  =    -34.573269    -0.000003    -2.589634   -37.162903
	  102 D(11,14,17,22)  =   -149.871854    -0.000018    -3.150563  -153.022417
	  103 D(12,8,11,14)   =    -57.568948     0.000010     0.617829   -56.951119
	  104 D(12,8,11,15)   =     64.867425    -0.000007    -0.160410    64.707016
	  105 D(12,8,11,16)   =   -179.326456    -0.000004    -0.113459  -179.439915
	  106 D(13,8,11,14)   =     58.148278     0.000010     0.608585    58.756863
	  107 D(13,8,11,15)   =   -179.415348    -0.000007    -0.169654  -179.585002
	  108 D(13,8,11,16)   =    -63.609230    -0.000004    -0.122703   -63.731933
	  109 D(14,17,20,23)  =    -55.920414    -0.000010    -4.609123   -60.529537
	  110 D(14,17,20,24)  =     64.605708    -0.000017    -5.070612    59.535096
	  111 D(14,17,20,25)  =   -175.507759    -0.000017    -5.064826  -180.572586
	  112 D(15,11,14,17)  =     61.622122    -0.000011    -1.660407    59.961716
	  113 D(15,11,14,18)  =    -61.404054    -0.000010    -1.927190   -63.331244
	  114 D(15,11,14,19)  =   -176.840342     0.000001    -0.959804  -177.800146
	  115 D(16,11,14,17)  =    -54.774830    -0.000003    -1.266214   -56.041043
	  116 D(16,11,14,18)  =   -177.801006    -0.000001    -1.532997  -179.334003
	  117 D(16,11,14,19)  =     66.762706     0.000009    -0.565611    66.197095
	  118 *D(18,14,17,20) =   -149.999987     0.000000    -0.000000  -149.999987
	  119 D(18,14,17,21)  =     88.494709    -0.000009    -2.343000    86.151708
	  120 D(18,14,17,22)  =    -26.803877    -0.000025    -2.903929   -29.707806
	  121 D(19,14,17,20)  =    -34.694711     0.000006    -0.629328   -35.324039
	  122 D(19,14,17,21)  =   -156.200015    -0.000003    -2.972329  -159.172344
	  123 D(19,14,17,22)  =     88.501400    -0.000018    -3.533258    84.968142
	  124 D(21,17,20,23)  =     65.435659     0.000014    -1.867796    63.567864
	  125 D(21,17,20,24)  =   -174.038218     0.000006    -2.329284  -176.367502
	  126 D(21,17,20,25)  =    -54.151686     0.000006    -2.323499   -56.475185
	  127 D(22,17,20,23)  =   -179.074430     0.000006    -2.200316  -181.274746
	  128 D(22,17,20,24)  =    -58.548307    -0.000002    -2.661805   -61.210112
	  129 D(22,17,20,25)  =     61.338225    -0.000002    -2.656019    58.682206
	 ---------------------------------------------------------------------------

  ==> Convergence Check <==

  Measures of convergence in internal coordinates in au.
  Criteria marked as inactive (o), active & met (*), and active & unmet ( ).
  --------------------------------------------------------------------------------------------- ~
   Step     Total Energy     Delta E     MAX Force     RMS Force      MAX Disp      RMS Disp    ~
  --------------------------------------------------------------------------------------------- ~
    Convergence Criteria    1.00e-06 *    3.00e-04 *             o    1.20e-03 *             o  ~
  --------------------------------------------------------------------------------------------- ~
      1    -387.12035401   -3.87e+02      3.65e-03      8.36e-04 o    8.85e-02      2.33e-02 o  ~
  ---------------------------------------------------------------------------------------------

	Writing optimization data to binary file.
	Structure for next step:
	Cartesian Geometry (in Angstrom)
	    H    -3.2683952617  -0.0600634482   1.2266181300
	    C    -3.2640277080  -0.0575333889   0.1294455988
	    C    -2.5967801202   1.1382786660  -0.5012142777
	    O    -3.8270411500  -0.9147007974  -0.4706641138
	    C    -1.1613468784   1.3447203726   0.0022614734
	    H    -2.6278433447   1.0185763749  -1.5780157915
	    H    -3.1953507042   2.0115972858  -0.2450629482
	    C    -0.1946274787   0.2425648759  -0.4386530922
	    H    -0.8044796837   2.3043678372  -0.3603209863
	    H    -1.1663845425   1.4149136367   1.0887058376
	    C     1.2372494971   0.4757152334   0.0471085530
	    H    -0.2014557819   0.1779228700  -1.5247650161
	    H    -0.5444695874  -0.7227565796  -0.0775826626
	    C     2.2110395419  -0.6069635603  -0.4216651888
	    H     1.5845684285   1.4443503492  -0.3077953848
	    H     1.2430017446   0.5301044844   1.1343611809
	    C     3.6499169587  -0.4169278260   0.0901900312
	    H     2.2128542712  -0.6519301863  -1.5077769744
	    H     1.8397745448  -1.5783302623  -0.0983532650
	    C     3.8960417633  -1.0368189884   1.4655627053
	    H     3.9079151630   0.6403879477   0.1093804894
	    H     4.3357302088  -0.8792800705  -0.6138121395
	    H     3.2524529112  -0.5980984625   2.2228545860
	    H     3.7049769266  -2.1059305625   1.4504943768
	    H     4.9238534773  -0.8881093671   1.7823387269
			--------------------------
			 OPTKING Finished Execution 
			--------------------------

    Structure for next step:
    Molecular point group: c1
    Full point group: C1

    Geometry (in Angstrom), charge = 0, multiplicity = 1:

    H           -3.263962096441    -0.063495277880     1.229189037626
    C           -3.259594543049    -0.060965218852     0.132016590189
    C           -2.592347006163     1.134846744778    -0.498643238094
    O           -3.822607942056    -0.918132561907    -0.468093076549
    C           -1.156913874006     1.341288435642     0.004832474541
    H           -2.623410228313     1.015144462772    -1.575444669642
    H           -3.190917544466     2.008165297896    -0.242491928164
    C           -0.190194548109     0.239133023071    -0.436082057398
    H           -0.800046706551     2.300935826882    -0.357749957444
    H           -1.161951537663     1.411481694382     1.091276755813
    C            1.241682318337     0.472283362731     0.049679550694
    H           -0.197022850803     0.174491022139    -1.522193898317
    H           -0.540036630115    -0.726188358715    -0.075011655327
    C            2.215472288803    -0.610395348233    -0.419094155248
    H            1.589001223233     1.440918404608    -0.305224359998
    H            1.247434565385     0.526672609604     1.136932095614
    C            3.654349595683    -0.420359628480     0.092761025645
    H            2.217287017975    -0.655361970879    -1.505205857971
    H            1.844207320004    -1.581761976105    -0.095782256184
    C            3.900474381456    -1.040250743520     1.468133594688
    H            3.912347780339     0.636956064491     0.111951482403
    H            4.340162793468    -0.882711837700    -0.611241091295
    H            3.256885578597    -0.601530251173     2.225425417572
    H            3.709409559402    -2.109362236011     1.453065267399
    H            4.928286017056    -0.891541133608     1.784909592069

gradient() will perform analytic gradient computation.

*** tstart() called on cx1-1-2-2.cx1.hpc.ic.ac.uk
*** at Fri Sep  2 21:19:20 2016


         ---------------------------------------------------------
                                   SCF
            by Justin Turney, Rob Parrish, and Andy Simmonett
                              RHF Reference
                        4 Threads,   2000 MiB Core
         ---------------------------------------------------------

  ==> Geometry <==

    Molecular point group: c1
    Full point group: C1

    Geometry (in Angstrom), charge = 0, multiplicity = 1:

       Center              X                  Y                   Z               Mass       
    ------------   -----------------  -----------------  -----------------  -----------------
           H         -3.263962096441    -0.063495277880     1.229189037626     1.007825032070
           C         -3.259594543049    -0.060965218852     0.132016590189    12.000000000000
           C         -2.592347006163     1.134846744778    -0.498643238094    12.000000000000
           O         -3.822607942056    -0.918132561907    -0.468093076549    15.994914619560
           C         -1.156913874006     1.341288435642     0.004832474541    12.000000000000
           H         -2.623410228313     1.015144462772    -1.575444669642     1.007825032070
           H         -3.190917544466     2.008165297896    -0.242491928164     1.007825032070
           C         -0.190194548109     0.239133023071    -0.436082057398    12.000000000000
           H         -0.800046706551     2.300935826882    -0.357749957444     1.007825032070
           H         -1.161951537663     1.411481694382     1.091276755813     1.007825032070
           C          1.241682318337     0.472283362731     0.049679550694    12.000000000000
           H         -0.197022850803     0.174491022139    -1.522193898317     1.007825032070
           H         -0.540036630115    -0.726188358715    -0.075011655327     1.007825032070
           C          2.215472288803    -0.610395348233    -0.419094155248    12.000000000000
           H          1.589001223233     1.440918404608    -0.305224359998     1.007825032070
           H          1.247434565385     0.526672609604     1.136932095614     1.007825032070
           C          3.654349595683    -0.420359628480     0.092761025645    12.000000000000
           H          2.217287017975    -0.655361970879    -1.505205857971     1.007825032070
           H          1.844207320004    -1.581761976105    -0.095782256184     1.007825032070
           C          3.900474381456    -1.040250743520     1.468133594688    12.000000000000
           H          3.912347780339     0.636956064491     0.111951482403     1.007825032070
           H          4.340162793468    -0.882711837700    -0.611241091295     1.007825032070
           H          3.256885578597    -0.601530251173     2.225425417572     1.007825032070
           H          3.709409559402    -2.109362236011     1.453065267399     1.007825032070
           H          4.928286017056    -0.891541133608     1.784909592069     1.007825032070

  Running in c1 symmetry.

  Rotational constants: A =      0.12805  B =      0.01570  C =      0.01505 [cm^-1]
  Rotational constants: A =   3838.77705  B =    470.81278  C =    451.07028 [MHz]
  Nuclear repulsion =  438.317819092797208

  Charge       = 0
  Multiplicity = 1
  Electrons    = 72
  Nalpha       = 36
  Nbeta        = 36

  ==> Algorithm <==

  SCF Algorithm Type is DF.
  DIIS enabled.
  MOM disabled.
  Fractional occupation disabled.
  Guess Type is READ.
  Energy threshold   = 1.00e-08
  Density threshold  = 1.00e-08
  Integral threshold = 0.00e+00

  ==> Primary Basis <==

  Basis Set: 6-31G*
    Number of shells: 86
    Number of basis function: 167
    Number of Cartesian functions: 167
    Spherical Harmonics?: false
    Max angular momentum: 2

  ==> Pre-Iterations <==

   -------------------------------------------------------
    Irrep   Nso     Nmo     Nalpha   Nbeta   Ndocc  Nsocc
   -------------------------------------------------------
     A        167     167       0       0       0       0
   -------------------------------------------------------
    Total     167     167      36      36      36       0
   -------------------------------------------------------

 OEINTS: Overlap, kinetic, potential, dipole, and quadrupole integrals
         stored in file 35.

  ==> Integral Setup <==

  ==> DFJK: Density-Fitted J/K Matrices <==

    J tasked:                  Yes
    K tasked:                  Yes
    wK tasked:                  No
    OpenMP threads:              4
    Integrals threads:           4
    Memory (MB):              1430
    Algorithm:                Core
    Integral Cache:           NONE
    Schwarz Cutoff:          1E-12
    Fitting Condition:       1E-12

   => Auxiliary Basis Set <=

  Basis Set: 
    Number of shells: 360
    Number of basis function: 1129
    Number of Cartesian functions: 1129
    Spherical Harmonics?: false
    Max angular momentum: 3

  Minimum eigenvalue in the overlap matrix is 3.0735977337E-03.
  Using Symmetric Orthogonalization.
  SCF Guess: Reading in previously saved MOs, projecting if necessary.

  Using orbitals from previous SCF, no projection.
  Recomputing DOCC and SOCC from number of alpha and beta electrons from previous calculation.
              A 
    DOCC [    36 ]

  ==> Iterations <==

                           Total Energy        Delta E     RMS |[F,P]|

   @DF-RHF iter   0:  -387.11216465544487   -3.87112e+02   5.61938e-04 
   @DF-RHF iter   1:  -387.12007559438098   -7.91094e-03   1.03977e-04 
   @DF-RHF iter   2:  -387.12038511641208   -3.09522e-04   3.82685e-05 DIIS
   @DF-RHF iter   3:  -387.12044658463356   -6.14682e-05   1.27780e-05 DIIS
   @DF-RHF iter   4:  -387.12045338743803   -6.80280e-06   6.65391e-06 DIIS
   @DF-RHF iter   5:  -387.12045697066537   -3.58323e-06   3.49682e-06 DIIS
   @DF-RHF iter   6:  -387.12045784849806   -8.77833e-07   1.52145e-06 DIIS
   @DF-RHF iter   7:  -387.12045801594559   -1.67448e-07   5.17288e-07 DIIS
   @DF-RHF iter   8:  -387.12045803334911   -1.74035e-08   1.94035e-07 DIIS
   @DF-RHF iter   9:  -387.12045803548426   -2.13515e-09   6.73627e-08 DIIS
   @DF-RHF iter  10:  -387.12045803571255   -2.28283e-10   1.60484e-08 DIIS
   @DF-RHF iter  11:  -387.12045803572403   -1.14824e-11   4.36417e-09 DIIS

  ==> Post-Iterations <==

    Orbital Energies (a.u.)
    -----------------------

    Doubly Occupied:                                                      

       1A    -20.562093     2A    -11.326165     3A    -11.235277  
       4A    -11.234683     5A    -11.224155     6A    -11.220467  
       7A    -11.217908     8A    -11.216863     9A    -11.210705  
      10A     -1.402011    11A     -1.103833    12A     -1.069259  
      13A     -1.014075    14A     -0.942754    15A     -0.872144  
      16A     -0.818785    17A     -0.789227    18A     -0.785859  
      19A     -0.664424    20A     -0.662124    21A     -0.629512  
      22A     -0.625671    23A     -0.607333    24A     -0.592270  
      25A     -0.567322    26A     -0.560319    27A     -0.527293  
      28A     -0.520298    29A     -0.517444    30A     -0.496805  
      31A     -0.486035    32A     -0.482025    33A     -0.467243  
      34A     -0.457778    35A     -0.440221    36A     -0.409517  

    Virtual:                                                              

      37A      0.159356    38A      0.224974    39A      0.239260  
      40A      0.252431    41A      0.261435    42A      0.270185  
      43A      0.278519    44A      0.301766    45A      0.309890  
      46A      0.310216    47A      0.312446    48A      0.325351  
      49A      0.334779    50A      0.344127    51A      0.349827  
      52A      0.359207    53A      0.367052    54A      0.383739  
      55A      0.400172    56A      0.427019    57A      0.437566  
      58A      0.464417    59A      0.470035    60A      0.481250  
      61A      0.499217    62A      0.693909    63A      0.699084  
      64A      0.714563    65A      0.726199    66A      0.746731  
      67A      0.761277    68A      0.771934    69A      0.779949  
      70A      0.827924    71A      0.846506    72A      0.866567  
      73A      0.886131    74A      0.920202    75A      0.937322  
      76A      0.965517    77A      0.966986    78A      0.977985  
      79A      0.987691    80A      1.019226    81A      1.043131  
      82A      1.073886    83A      1.099231    84A      1.114235  
      85A      1.120464    86A      1.126364    87A      1.137175  
      88A      1.143389    89A      1.155236    90A      1.171638  
      91A      1.179887    92A      1.194094    93A      1.198299  
      94A      1.206910    95A      1.207574    96A      1.222474  
      97A      1.230869    98A      1.247399    99A      1.254549  
     100A      1.260019   101A      1.283881   102A      1.290759  
     103A      1.326786   104A      1.355583   105A      1.385413  
     106A      1.429454   107A      1.468243   108A      1.607255  
     109A      1.651040   110A      1.705132   111A      1.727657  
     112A      1.766153   113A      1.781442   114A      1.843798  
     115A      1.851885   116A      1.885074   117A      1.906912  
     118A      1.936375   119A      1.993090   120A      2.072725  
     121A      2.077869   122A      2.114434   123A      2.140522  
     124A      2.156445   125A      2.180088   126A      2.198700  
     127A      2.224977   128A      2.241162   129A      2.262476  
     130A      2.278307   131A      2.290708   132A      2.333208  
     133A      2.357959   134A      2.383594   135A      2.398719  
     136A      2.412074   137A      2.464301   138A      2.528317  
     139A      2.568945   140A      2.574276   141A      2.630415  
     142A      2.662473   143A      2.688177   144A      2.713102  
     145A      2.751574   146A      2.773670   147A      2.794406  
     148A      2.833054   149A      2.898708   150A      2.936756  
     151A      2.946745   152A      2.983282   153A      3.005854  
     154A      3.023351   155A      3.130332   156A      3.191070  
     157A      3.266665   158A      3.368975   159A      4.314196  
     160A      4.525823   161A      4.570498   162A      4.635653  
     163A      4.730839   164A      4.830520   165A      4.882372  
     166A      4.918805   167A      5.007787  

    Final Occupation by Irrep:
              A 
    DOCC [    36 ]

  Energy converged.

  @DF-RHF Final Energy:  -387.12045803572403

   => Energetics <=

    Nuclear Repulsion Energy =            438.3178190927972082
    One-Electron Energy =               -1392.9567641782778082
    Two-Electron Energy =                 567.5184870497565726
    DFT Exchange-Correlation Energy =       0.0000000000000000
    Empirical Dispersion Energy =           0.0000000000000000
    PCM Polarization Energy =               0.0000000000000000
    EFP Energy =                            0.0000000000000000
    Total Energy =                       -387.1204580357240275

    Alert: EFP and PCM quantities not currently incorporated into SCF psivars.

Properties will be evaluated at   0.000000,   0.000000,   0.000000 Bohr
  ==> Properties <==


Properties computed using the SCF density matrix

  Nuclear Dipole Moment: (a.u.)
     X:    14.2946      Y:     1.8732      Z:     2.5687

  Electronic Dipole Moment: (a.u.)
     X:   -13.5715      Y:    -0.9667      Z:    -2.1717

  Dipole Moment: (a.u.)
     X:     0.7231      Y:     0.9065      Z:     0.3969     Total:     1.2256

  Dipole Moment: (Debye)
     X:     1.8379      Y:     2.3040      Z:     1.0089     Total:     3.1151


  Saving occupied orbitals to File 180.

*** tstop() called on cx1-1-2-2.cx1.hpc.ic.ac.uk at Fri Sep  2 21:19:29 2016
Module time:
	user time   =      27.47 seconds =       0.46 minutes
	system time =       0.38 seconds =       0.01 minutes
	total time  =          9 seconds =       0.15 minutes
Total time:
	user time   =      98.41 seconds =       1.64 minutes
	system time =       1.13 seconds =       0.02 minutes
	total time  =         30 seconds =       0.50 minutes

*** tstart() called on cx1-1-2-2.cx1.hpc.ic.ac.uk
*** at Fri Sep  2 21:19:29 2016


         ------------------------------------------------------------
                                   SCF GRAD                          
                          Rob Parrish, Justin Turney,                
                       Andy Simmonett, and Alex Sokolov              
         ------------------------------------------------------------

  ==> Geometry <==

    Molecular point group: c1
    Full point group: C1

    Geometry (in Angstrom), charge = 0, multiplicity = 1:

       Center              X                  Y                   Z               Mass       
    ------------   -----------------  -----------------  -----------------  -----------------
           H         -3.263962096441    -0.063495277880     1.229189037626     1.007825032070
           C         -3.259594543049    -0.060965218852     0.132016590189    12.000000000000
           C         -2.592347006163     1.134846744778    -0.498643238094    12.000000000000
           O         -3.822607942056    -0.918132561907    -0.468093076549    15.994914619560
           C         -1.156913874006     1.341288435642     0.004832474541    12.000000000000
           H         -2.623410228313     1.015144462772    -1.575444669642     1.007825032070
           H         -3.190917544466     2.008165297896    -0.242491928164     1.007825032070
           C         -0.190194548109     0.239133023071    -0.436082057398    12.000000000000
           H         -0.800046706551     2.300935826882    -0.357749957444     1.007825032070
           H         -1.161951537663     1.411481694382     1.091276755813     1.007825032070
           C          1.241682318337     0.472283362731     0.049679550694    12.000000000000
           H         -0.197022850803     0.174491022139    -1.522193898317     1.007825032070
           H         -0.540036630115    -0.726188358715    -0.075011655327     1.007825032070
           C          2.215472288803    -0.610395348233    -0.419094155248    12.000000000000
           H          1.589001223233     1.440918404608    -0.305224359998     1.007825032070
           H          1.247434565385     0.526672609604     1.136932095614     1.007825032070
           C          3.654349595683    -0.420359628480     0.092761025645    12.000000000000
           H          2.217287017975    -0.655361970879    -1.505205857971     1.007825032070
           H          1.844207320004    -1.581761976105    -0.095782256184     1.007825032070
           C          3.900474381456    -1.040250743520     1.468133594688    12.000000000000
           H          3.912347780339     0.636956064491     0.111951482403     1.007825032070
           H          4.340162793468    -0.882711837700    -0.611241091295     1.007825032070
           H          3.256885578597    -0.601530251173     2.225425417572     1.007825032070
           H          3.709409559402    -2.109362236011     1.453065267399     1.007825032070
           H          4.928286017056    -0.891541133608     1.784909592069     1.007825032070

  Nuclear repulsion =  438.317819092797208

  ==> Basis Set <==

  Basis Set: 6-31G*
    Number of shells: 86
    Number of basis function: 167
    Number of Cartesian functions: 167
    Spherical Harmonics?: false
    Max angular momentum: 2

  ==> DFJKGrad: Density-Fitted SCF Gradients <==

    Gradient:                    1
    J tasked:                  Yes
    K tasked:                  Yes
    wK tasked:                  No
    OpenMP threads:              4
    Integrals threads:           4
    Memory (MB):              1430
    Schwarz Cutoff:          0E+00
    Fitting Condition:       1E-12

   => Auxiliary Basis Set <=

  Basis Set: 
    Number of shells: 360
    Number of basis function: 1129
    Number of Cartesian functions: 1129
    Spherical Harmonics?: false
    Max angular momentum: 3


  -Total Gradient:
     Atom            X                  Y                   Z
    ------   -----------------  -----------------  -----------------
       1       -0.002959591645     0.001768685522    -0.000033481996
       2        0.008661099484    -0.005250290915    -0.000294596725
       3       -0.003058647270     0.001712660175     0.000114811629
       4       -0.002786954574     0.001807568625     0.000209316500
       5       -0.000004726001    -0.000499417473     0.000331074806
       6       -0.000079973185    -0.000069583320     0.000058439094
       7        0.000391902609     0.000624232958    -0.000336535244
       8       -0.000106803306    -0.000589180769     0.000071680476
       9       -0.000216006141     0.000065990192    -0.000039297160
      10        0.000025974730    -0.000036148043    -0.000050706682
      11        0.000310424953    -0.000116915350     0.000277557748
      12        0.000041533557     0.000005657697     0.000027322084
      13       -0.000022221958     0.000081366737    -0.000128093704
      14       -0.000269751368     0.001635041465    -0.001216961758
      15        0.000212051982    -0.000112832230     0.000039015613
      16       -0.000108528679     0.000123817786     0.000172870422
      17       -0.000597084923     0.003968147052     0.002208594603
      18        0.000287445964    -0.003353887468     0.000375939040
      19       -0.001098333624     0.000150576407    -0.000292576243
      20        0.000834454351    -0.002427709854    -0.002024770686
      21        0.001217937570     0.000546505528     0.000220064042
      22       -0.000486875571    -0.000037056874     0.000540402699
      23       -0.000157552381     0.000230258281    -0.000374011969
      24       -0.000120351515    -0.000165732386     0.000353963956
      25        0.000090576949    -0.000061753747    -0.000210020545


*** tstop() called on cx1-1-2-2.cx1.hpc.ic.ac.uk at Fri Sep  2 21:19:39 2016
Module time:
	user time   =      37.48 seconds =       0.62 minutes
	system time =       0.28 seconds =       0.00 minutes
	total time  =         10 seconds =       0.17 minutes
Total time:
	user time   =     135.91 seconds =       2.27 minutes
	system time =       1.41 seconds =       0.02 minutes
	total time  =         40 seconds =       0.67 minutes
CURRENT ENERGY: -387.1204580357

			-----------------------------------------
			 OPTKING 2.0: for geometry optimizations 
			  - R.A. King,  Bethel University        
			-----------------------------------------

	Previous internal coordinate definitions found.
	---Fragment 1 Geometry and Gradient---
	 H          -6.1679944704       -0.1199886859        2.3228306467
	 C          -6.1597409906       -0.1152075673        0.2494752005
	 C          -4.8988258831        2.1445495504       -0.9422991580
	 O          -7.2236821239       -1.7350190957       -0.8845677194
	 C          -2.1862503812        2.5346678086        0.0091320534
	 H          -4.9575268657        1.9183450200       -2.9771589631
	 H          -6.0299602717        3.7948824426       -0.4582433337
	 C          -0.3594156079        0.4518959229       -0.8240756599
	 H          -1.5118691689        4.3481385622       -0.6760494436
	 H          -2.1957701859        2.6673138440        2.0622142037
	 C           2.3464395257        0.8924862127        0.0938807452
	 H          -0.3723192299        0.3297402445       -2.8765295890
	 H          -1.0205213326       -1.3722971189       -0.1417514853
	 C           4.1866358808       -1.1534800409       -0.7919731773
	 H           3.0027771367        2.7229411645       -0.5767904495
	 H           2.3573096973        0.9952669938        2.1484902924
	 C           6.9057199297       -0.7943645751        0.1752929343
	 H           4.1900652220       -1.2384546429       -2.8444268452
	 H           3.4850467671       -2.9890969423       -0.1810022326
	 C           7.3708283693       -1.9657890148        2.7743704204
	 H           7.3932658414        1.2036725206        0.2115576419
	 H           8.2017190518       -1.6680836275       -1.1550782637
	 H           6.1546217897       -1.1367274354        4.2054445684
	 H           7.0097681820       -3.9861169411        2.7458954086
	 H           9.3131108768       -1.6847685787        3.3729903010
	            -0.0029595916        0.0017686855       -0.0000334820
	             0.0086610995       -0.0052502909       -0.0002945967
	            -0.0030586473        0.0017126602        0.0001148116
	            -0.0027869546        0.0018075686        0.0002093165
	            -0.0000047260       -0.0004994175        0.0003310748
	            -0.0000799732       -0.0000695833        0.0000584391
	             0.0003919026        0.0006242330       -0.0003365352
	            -0.0001068033       -0.0005891808        0.0000716805
	            -0.0002160061        0.0000659902       -0.0000392972
	             0.0000259747       -0.0000361480       -0.0000507067
	             0.0003104250       -0.0001169153        0.0002775577
	             0.0000415336        0.0000056577        0.0000273221
	            -0.0000222220        0.0000813667       -0.0001280937
	            -0.0002697514        0.0016350415       -0.0012169618
	             0.0002120520       -0.0001128322        0.0000390156
	            -0.0001085287        0.0001238178        0.0001728704
	            -0.0005970849        0.0039681471        0.0022085946
	             0.0002874460       -0.0033538875        0.0003759390
	            -0.0010983336        0.0001505764       -0.0002925762
	             0.0008344544       -0.0024277099       -0.0020247707
	             0.0012179376        0.0005465055        0.0002200640
	            -0.0004868756       -0.0000370569        0.0005404027
	            -0.0001575524        0.0002302583       -0.0003740120
	            -0.0001203515       -0.0001657324        0.0003539640
	             0.0000905769       -0.0000617537       -0.0002100205

	---Fragment 1 Intrafragment Coordinates---
	 - Coordinate -           - BOHR/RAD -       - ANG/DEG -
	 R(1,2)           =         2.073377	       1.097184
	 R(2,3)           =         2.848988	       1.507620
	 R(2,4)           =         2.245398	       1.188214
	 R(3,5)           =         2.900945	       1.535114
	 R(3,6)           =         2.048236	       1.083880
	 R(3,7)           =         2.058488	       1.089305
	 R(5,8)           =         2.893009	       1.530914
	 R(5,9)           =         2.052545	       1.086160
	 R(5,10)          =         2.057385	       1.088721
	 R(8,11)          =         2.891092	       1.529900
	 R(8,12)          =         2.056126	       1.088055
	 R(8,13)          =         2.056771	       1.088396
	 R(11,14)         =         2.890854	       1.529774
	 R(11,15)         =         2.056975	       1.088504
	 R(11,16)         =         2.057207	       1.088627
	 R(14,17)         =         2.908262	       1.538986
	 R(14,18)         =         2.054215	       1.087044
	 R(14,19)         =         2.057912	       1.089000
	 R(17,20)         =         2.888558	       1.528559
	 R(17,21)         =         2.056980	       1.088507
	 R(17,22)         =         2.052532	       1.086153
	 R(20,23)         =         2.052919	       1.086358
	 R(20,24)         =         2.052535	       1.086155
	 R(20,25)         =         2.051775	       1.085753
	 B(1,2,3)         =         2.006338	     114.954683
	 B(1,2,4)         =         2.096125	     120.099090
	 B(2,3,5)         =         1.964180	     112.539196
	 B(2,3,6)         =         1.891571	     108.379009
	 B(2,3,7)         =         1.869563	     107.118095
	 B(3,2,4)         =         2.178071	     124.794297
	 B(3,5,8)         =         1.981426	     113.527364
	 B(3,5,9)         =         1.892893	     108.454771
	 B(3,5,10)        =         1.908828	     109.367780
	 B(5,3,6)         =         1.947096	     111.560362
	 B(5,3,7)         =         1.905912	     109.200708
	 B(5,8,11)        =         1.971260	     112.944904
	 B(5,8,12)        =         1.903185	     109.044455
	 B(5,8,13)        =         1.917721	     109.877305
	 B(6,3,7)         =         1.882214	     107.842912
	 B(8,5,9)         =         1.909708	     109.418227
	 B(8,5,10)        =         1.914252	     109.678578
	 B(8,11,14)       =         1.972102	     112.993094
	 B(8,11,15)       =         1.907868	     109.312771
	 B(8,11,16)       =         1.906751	     109.248764
	 B(9,5,10)        =         1.852174	     106.121739
	 B(11,8,12)       =         1.909084	     109.382460
	 B(11,8,13)       =         1.907804	     109.309101
	 B(11,14,17)      =         1.988695	     113.943858
	 B(11,14,18)      =         1.914004	     109.664356
	 B(11,14,19)      =         1.900005	     108.862265
	 B(12,8,13)       =         1.850887	     106.048033
	 B(14,11,15)      =         1.903686	     109.073179
	 B(14,11,16)      =         1.915632	     109.757644
	 B(14,17,20)      =         1.982017	     113.561208
	 B(14,17,21)      =         1.925603	     110.328909
	 B(14,17,22)      =         1.898855	     108.796362
	 B(15,11,16)      =         1.854059	     106.229782
	 B(17,14,18)      =         1.913309	     109.624507
	 B(17,14,19)      =         1.907255	     109.277642
	 B(17,20,23)      =         1.947724	     111.596392
	 B(17,20,24)      =         1.937316	     111.000053
	 B(17,20,25)      =         1.938420	     111.063272
	 B(18,14,19)      =         1.834135	     105.088204
	 B(20,17,21)      =         1.917597	     109.870238
	 B(20,17,22)      =         1.884839	     107.993341
	 B(21,17,22)      =         1.849646	     105.976902
	 B(23,20,24)      =         1.878599	     107.635811
	 B(23,20,25)      =         1.877711	     107.584929
	 B(24,20,25)      =         1.881139	     107.781329
	 D(1,2,3,5)       =         0.952109	      54.551805
	 D(1,2,3,6)       =         3.113850	     178.410435
	 D(1,2,3,7)       =        -1.142749	     -65.474693
	 D(2,3,5,8)       =         1.178064	      67.498121
	 D(2,3,5,9)       =        -2.978602	    -170.661329
	 D(2,3,5,10)      =        -0.965967	     -55.345811
	 D(3,5,8,11)      =         3.121888	     178.871012
	 D(3,5,8,12)      =         0.995567	      57.041802
	 D(3,5,8,13)      =        -1.026136	     -58.793248
	 D(4,2,3,5)       =        -2.267976	    -129.945433
	 D(4,2,3,6)       =        -0.106235	      -6.086803
	 D(4,2,3,7)       =         1.920352	     110.028069
	 D(5,8,11,14)     =        -3.116981	    -178.589855
	 D(5,8,11,15)     =        -0.993646	     -56.931721
	 D(5,8,11,16)     =         1.028372	      58.921348
	 D(6,3,5,8)       =        -0.952563	     -54.577866
	 D(6,3,5,9)       =         1.173955	      67.262684
	 D(6,3,5,10)      =        -3.096595	    -177.421799
	 D(7,3,5,8)       =        -3.031405	    -173.686734
	 D(7,3,5,9)       =        -0.904887	     -51.846184
	 D(7,3,5,10)      =         1.107749	      63.469333
	 D(8,11,14,17)    =        -3.110966	    -178.245245
	 D(8,11,14,18)    =         1.020351	      58.461796
	 D(8,11,14,19)    =        -0.977508	     -56.007107
	 D(9,5,8,11)      =         1.004758	      57.568371
	 D(9,5,8,12)      =        -1.121563	     -64.260839
	 D(9,5,8,13)      =         3.139919	     179.904111
	 D(10,5,8,11)     =        -1.020255	     -58.456327
	 D(10,5,8,12)     =         3.136609	     179.714463
	 D(10,5,8,13)     =         1.114906	      63.879413
	 D(11,14,17,20)   =         1.512946	      86.685402
	 D(11,14,17,21)   =        -0.648615	     -37.162903
	 D(11,14,17,22)   =        -2.670745	    -153.022417
	 D(12,8,11,14)    =        -0.993985	     -56.951119
	 D(12,8,11,15)    =         1.129350	      64.707016
	 D(12,8,11,16)    =        -3.131817	    -179.439915
	 D(13,8,11,14)    =         1.025501	      58.756863
	 D(13,8,11,15)    =        -3.134350	    -179.585002
	 D(13,8,11,16)    =        -1.112332	     -63.731933
	 D(14,17,20,23)   =        -1.056440	     -60.529537
	 D(14,17,20,24)   =         1.039083	      59.535096
	 D(14,17,20,25)   =         3.131599	     179.427414
	 D(15,11,14,17)   =         1.046529	      59.961716
	 D(15,11,14,18)   =        -1.105339	     -63.331244
	 D(15,11,14,19)   =        -3.103198	    -177.800146
	 D(16,11,14,17)   =        -0.978101	     -56.041043
	 D(16,11,14,18)   =        -3.129969	    -179.334003
	 D(16,11,14,19)   =         1.155357	      66.197095
	*D(18,14,17,20)   =        -2.617994	    -149.999987
	 D(18,14,17,21)   =         1.503631	      86.151708
	 D(18,14,17,22)   =        -0.518499	     -29.707806
	 D(19,14,17,20)   =        -0.616521	     -35.324039
	 D(19,14,17,21)   =        -2.778081	    -159.172344
	 D(19,14,17,22)   =         1.482974	      84.968142
	 D(21,17,20,23)   =         1.109469	      63.567864
	 D(21,17,20,24)   =        -3.078194	    -176.367502
	 D(21,17,20,25)   =        -0.985678	     -56.475185
	 D(22,17,20,23)   =         3.119344	     178.725254
	 D(22,17,20,24)   =        -1.068318	     -61.210112
	 D(22,17,20,25)   =         1.024198	      58.682206

	Current energy   :      -387.1204580357

	Energy change for the previous step:
		Projected    :        -0.0030408075
		Actual       :        -0.0001040212
	Energy ratio indicates iffy step: Trust radius decreased to 1.250e-01.


	Performing BFGS update.
	Previous computed or guess Hessian on step 1.
	Steps to be used in Hessian update: 1
	Taking RFO optimization step.
	Going to follow RFO solution 1.
	Using RFO vector 1.

	Determining step-restricting scale parameter for RS-RFO.
	Maximum step size allowed    0.12500

	 Iter      |step|        alpha        rfo_root  
	------------------------------------------------
	    0     0.44766       1.00000           1
	    1     0.29800       4.05197           1
	    2     0.20615      10.90933           1
	    3     0.15549      21.73467           1
	    4     0.13213      31.88024           1
	    5     0.12556      35.88458           1
	    6     0.12500      36.25630           1
	------------------------------------------------
	Norm of target step-size    0.12500
	Projected energy change by RFO approximation:        -0.0002997319

	Back-transformation to cartesian coordinates...
	Successfully converged to displaced geometry.

	Back-transformation to cartesian coordinates to adjust frozen coordinates...
	Successfully converged to displaced geometry.

	--- Internal Coordinate Step in ANG or DEG, aJ/ANG or AJ/DEG ---
	 ---------------------------------------------------------------------------
	   Coordinate                Previous        Force       Change         New 
	   ----------                --------       ------       ------       ------
	    1 R(1,2)          =      1.097184     0.000212     0.000063     1.097247
	    2 R(2,3)          =      1.507620     0.000097     0.000056     1.507676
	    3 R(2,4)          =      1.188214     0.000734     0.000048     1.188261
	    4 R(3,5)          =      1.535114     0.001188     0.000211     1.535325
	    5 R(3,6)          =      1.083880     0.000396     0.000063     1.083943
	    6 R(3,7)          =      1.089305    -0.001697    -0.000214     1.089091
	    7 R(5,8)          =      1.530914    -0.000777    -0.000052     1.530862
	    8 R(5,9)          =      1.086160    -0.000004     0.000090     1.086250
	    9 R(5,10)         =      1.088721     0.000437    -0.000036     1.088685
	   10 R(8,11)         =      1.529900    -0.001541    -0.000243     1.529657
	   11 R(8,12)         =      1.088055     0.000230     0.000030     1.088086
	   12 R(8,13)         =      1.088396     0.000886     0.000117     1.088514
	   13 R(11,14)        =      1.529774     0.003336    -0.000058     1.529717
	   14 R(11,15)        =      1.088504     0.000375     0.000659     1.089163
	   15 R(11,16)        =      1.088627    -0.001469    -0.000425     1.088203
	   16 R(14,17)        =      1.538986    -0.010062     0.001145     1.540131
[...]
	 D(18,14,17,22)   =        -0.509720	     -29.204821
	 D(19,14,17,20)   =        -0.617969	     -35.407017
	 D(19,14,17,21)   =        -2.772425	    -158.848238
	 D(19,14,17,22)   =         1.490304	      85.388149
	 D(21,17,20,23)   =         1.130091	      64.749456
	 D(21,17,20,24)   =        -3.057158	    -175.162262
	 D(21,17,20,25)   =        -0.966760	     -55.391247
	 D(22,17,20,23)   =        -3.139961	    -179.906485
	 D(22,17,20,24)   =        -1.044025	     -59.818203
	 D(22,17,20,25)   =         1.046374	      59.952812

	Current energy   :      -387.1207312284

	Energy change for the previous step:
		Projected    :         0.0000058410
		Actual       :        -0.0000001312

	Performing BFGS update.
	Previous computed or guess Hessian on step 1.
	Steps to be used in Hessian update: 7 6
	Taking RFO optimization step.
	Going to follow RFO solution 1.
	Using RFO vector 1.
	Norm of target step-size    0.01402
	Projected energy change by RFO approximation:        -0.0000003472

	Back-transformation to cartesian coordinates...
	Successfully converged to displaced geometry.

	Back-transformation to cartesian coordinates to adjust frozen coordinates...
	Successfully converged to displaced geometry.

	--- Internal Coordinate Step in ANG or DEG, aJ/ANG or AJ/DEG ---
	 ---------------------------------------------------------------------------
	   Coordinate                Previous        Force       Change         New 
	   ----------                --------       ------       ------       ------
	    1 R(1,2)          =      1.097186    -0.000004     0.000000     1.097187
	    2 R(2,3)          =      1.507589     0.000006     0.000002     1.507592
	    3 R(2,4)          =      1.188207     0.000040     0.000002     1.188209
	    4 R(3,5)          =      1.535038     0.000292     0.000028     1.535066
	    5 R(3,6)          =      1.083891    -0.000001    -0.000001     1.083890
	    6 R(3,7)          =      1.089276    -0.000059    -0.000005     1.089271
	    7 R(5,8)          =      1.530857    -0.000148    -0.000019     1.530838
	    8 R(5,9)          =      1.086117     0.000054     0.000004     1.086122
	    9 R(5,10)         =      1.088770    -0.000043    -0.000003     1.088768
	   10 R(8,11)         =      1.529491     0.000021     0.000002     1.529493
	   11 R(8,12)         =      1.088088    -0.000047    -0.000003     1.088084
	   12 R(8,13)         =      1.088436     0.000058     0.000007     1.088443
	   13 R(11,14)        =      1.529982     0.000077     0.000018     1.530000
	   14 R(11,15)        =      1.088576     0.000093     0.000012     1.088587
	   15 R(11,16)        =      1.088428    -0.000090    -0.000010     1.088418
	   16 R(14,17)        =      1.537524    -0.000253    -0.000017     1.537508
	   17 R(14,18)        =      1.087388    -0.000013    -0.000005     1.087383
	   18 R(14,19)        =      1.088892     0.000024    -0.000000     1.088892
	   19 R(17,20)        =      1.529717     0.000206     0.000033     1.529750
	   20 R(17,21)        =      1.087613    -0.000157    -0.000017     1.087595
	   21 R(17,22)        =      1.086814     0.000107     0.000009     1.086822
	   22 R(20,23)        =      1.086348     0.000028     0.000002     1.086350
	   23 R(20,24)        =      1.085999    -0.000025    -0.000000     1.085999
	   24 R(20,25)        =      1.085723     0.000002     0.000000     1.085724
	   25 B(1,2,3)        =    115.005802    -0.000000    -0.000489   115.005313
	   26 B(1,2,4)        =    120.156937    -0.000001    -0.001922   120.155014
	   27 B(2,3,5)        =    112.551792     0.000001     0.002628   112.554420
	   28 B(2,3,6)        =    108.388829    -0.000001    -0.003310   108.385519
	   29 B(2,3,7)        =    107.083586    -0.000001    -0.002863   107.080724
	   30 B(3,2,4)        =    124.836020     0.000001     0.002376   124.838395
	   31 B(3,5,8)        =    113.518084    -0.000001    -0.002699   113.515385
	   32 B(3,5,9)        =    108.470533     0.000001     0.009136   108.479669
	   33 B(3,5,10)       =    109.363741     0.000000    -0.001735   109.362007
	   34 B(5,3,6)        =    111.564543     0.000000    -0.000252   111.564291
	   35 B(5,3,7)        =    109.201092     0.000000     0.003154   109.204246
	   36 B(5,8,11)       =    112.945916     0.000000     0.001007   112.946923
	   37 B(5,8,12)       =    109.073977    -0.000001    -0.005033   109.068944
	   38 B(5,8,13)       =    109.846852     0.000000     0.001319   109.848171
	   39 B(6,3,7)        =    107.848666     0.000000     0.000442   107.849108
	   40 B(8,5,9)        =    109.405284    -0.000000     0.002169   109.407453
	   41 B(8,5,10)       =    109.686619    -0.000000    -0.005550   109.681068
	   42 B(8,11,14)      =    113.115685     0.000001     0.002224   113.117909
	   43 B(8,11,15)      =    109.280411    -0.000000     0.001141   109.281552
	   44 B(8,11,16)      =    109.221407    -0.000000    -0.002244   109.219163
	   45 B(9,5,10)       =    106.125072    -0.000000    -0.001052   106.124020
	   46 B(11,8,12)      =    109.461495    -0.000000    -0.002303   109.459192
	   47 B(11,8,13)      =    109.228738     0.000000     0.004176   109.232914
	   48 B(11,14,17)     =    113.964006     0.000000    -0.001296   113.962710
	   49 B(11,14,18)     =    109.650807    -0.000000     0.000376   109.651183
	   50 B(11,14,19)     =    109.125040     0.000001     0.005271   109.130311
	   51 B(12,8,13)      =    106.050287     0.000000     0.000788   106.051075
	   52 B(14,11,15)     =    109.116278    -0.000000    -0.000216   109.116062
	   53 B(14,11,16)     =    109.643356    -0.000000    -0.000701   109.642655
	   54 B(14,17,20)     =    113.608172    -0.000001    -0.001402   113.606770
	   55 B(14,17,21)     =    109.733923    -0.000001    -0.009678   109.724245
	   56 B(14,17,22)     =    109.091953     0.000000     0.006595   109.098548
	   57 B(15,11,16)     =    106.230973     0.000000    -0.000353   106.230621
	   58 B(17,14,18)     =    109.652752     0.000000     0.001612   109.654364
	   59 B(17,14,19)     =    108.887923    -0.000002    -0.007285   108.880638
	   60 B(17,20,23)     =    111.802466     0.000002     0.007884   111.810350
	   61 B(17,20,24)     =    110.782406    -0.000002    -0.007478   110.774928
	   62 B(17,20,25)     =    111.123824     0.000000     0.001980   111.125804
	   63 B(18,14,19)     =    105.185821     0.000000     0.001516   105.187336
	   64 B(20,17,21)     =    109.881745     0.000001    -0.002412   109.879334
	   65 B(20,17,22)     =    108.199479     0.000001     0.008704   108.208183
	   66 B(21,17,22)     =    106.032735    -0.000000    -0.001432   106.031304
	   67 B(23,20,24)     =    107.662187    -0.000000    -0.000791   107.661395
	   68 B(23,20,25)     =    107.519538    -0.000001    -0.002791   107.516747
	   69 B(24,20,25)     =    107.767892     0.000001     0.001040   107.768932
	   70 D(1,2,3,5)      =     52.450584     0.000000     0.012454    52.463037
	   71 D(1,2,3,6)      =    176.330208     0.000000     0.011522   176.341730
	   72 D(1,2,3,7)      =    -67.561207    -0.000000     0.008876   -67.552332
	   73 D(2,3,5,8)      =     67.092617    -0.000000    -0.079421    67.013196
	   74 D(2,3,5,9)      =   -171.078166    -0.000000    -0.071869  -171.150035
	   75 D(2,3,5,10)     =    -55.752234     0.000000    -0.069052   -55.821286
	   76 D(3,5,8,11)     =    179.392371    -0.000000    -0.197381   179.194990
	   77 D(3,5,8,12)     =     57.440556    -0.000000    -0.191520    57.249036
	   78 D(3,5,8,13)     =    -58.396974     0.000000    -0.190343   -58.587317
	   79 D(4,2,3,5)      =   -127.955999     0.000000     0.006550  -127.949449
	   80 D(4,2,3,6)      =     -4.076374     0.000000     0.005618    -4.070756
	   81 D(4,2,3,7)      =    112.032210    -0.000000     0.002972   112.035182
	   82 D(5,8,11,14)    =   -179.152836     0.000000     0.156034  -178.996802
	   83 D(5,8,11,15)    =    -57.380063     0.000000     0.158081   -57.221981
	   84 D(5,8,11,16)    =     58.441137     0.000000     0.157044    58.598181
	   85 D(6,3,5,8)      =    -55.008415    -0.000000    -0.076828   -55.085243
	   86 D(6,3,5,9)      =     66.820802    -0.000000    -0.069276    66.751526
	   87 D(6,3,5,10)     =   -177.853266     0.000000    -0.066459  -177.919725
	   88 D(7,3,5,8)      =   -174.127255    -0.000000    -0.079260  -174.206514
	   89 D(7,3,5,9)      =    -52.298038    -0.000000    -0.071708   -52.369745
	   90 D(7,3,5,10)     =     63.027894     0.000000    -0.068891    62.959003
	   91 D(8,11,14,17)   =   -177.415183     0.000000     0.035712  -177.379472
	   92 D(8,11,14,18)   =     59.250758     0.000000     0.034245    59.285003
	   93 D(8,11,14,19)   =    -55.471820    -0.000000     0.029315   -55.442506
	   94 D(9,5,8,11)     =     58.085146    -0.000000    -0.208850    57.876296
	   95 D(9,5,8,12)     =    -63.866669    -0.000000    -0.202990   -64.069658
	   96 D(9,5,8,13)     =   -179.704199    -0.000000    -0.201812  -179.906011
	   97 D(10,5,8,11)    =    -57.940743    -0.000000    -0.205674   -58.146417
	   98 D(10,5,8,12)    =   -179.892557    -0.000000    -0.199814  -180.092371
	   99 D(10,5,8,13)    =     64.269913    -0.000000    -0.198636    64.071276
	  100 D(11,14,17,20)  =     86.667010     0.000000    -0.000796    86.666214
	  101 D(11,14,17,21)  =    -36.774210     0.000000     0.010722   -36.763488
	  102 D(11,14,17,22)  =   -152.537823     0.000000     0.014107  -152.523716
	  103 D(12,8,11,14)   =    -57.419136     0.000000     0.148625   -57.270511
	  104 D(12,8,11,15)   =     64.353637     0.000000     0.150673    64.504310
	  105 D(12,8,11,16)   =   -179.825163     0.000000     0.149635  -179.675528
	  106 D(13,8,11,14)   =     58.290656     0.000000     0.150625    58.441280
	  107 D(13,8,11,15)   =   -179.936571     0.000000     0.152672  -179.783899
	  108 D(13,8,11,16)   =    -64.115372     0.000000     0.151635   -63.963737
	  109 D(14,17,20,23)  =    -58.611021     0.000000    -0.032475   -58.643496
	  110 D(14,17,20,24)  =     61.477261     0.000000    -0.033296    61.443965
	  111 D(14,17,20,25)  =   -178.751724     0.000000    -0.035636  -178.787360
	  112 D(15,11,14,17)  =     60.719934     0.000000     0.032909    60.752843
	  113 D(15,11,14,18)  =    -62.614124     0.000000     0.031442   -62.582683
	  114 D(15,11,14,19)  =   -177.336703    -0.000000     0.026512  -177.310191
	  115 D(16,11,14,17)  =    -55.244737     0.000000     0.033846   -55.210891
	  116 D(16,11,14,18)  =   -178.578796     0.000000     0.032379  -178.546416
	  117 D(16,11,14,19)  =     66.698626    -0.000000     0.027450    66.726075
	  118 *D(18,14,17,20) =   -149.999987     0.000000     0.000000  -149.999987
	  119 D(18,14,17,21)  =     86.558792     0.000000     0.011519    86.570311
	  120 D(18,14,17,22)  =    -29.204821     0.000000     0.014904   -29.189917
	  121 D(19,14,17,20)  =    -35.407017    -0.000000    -0.001327   -35.408344
	  122 D(19,14,17,21)  =   -158.848238    -0.000000     0.010192  -158.838046
	  123 D(19,14,17,22)  =     85.388149     0.000000     0.013577    85.401726
	  124 D(21,17,20,23)  =     64.749456    -0.000000    -0.047978    64.701478
	  125 D(21,17,20,24)  =   -175.162262    -0.000000    -0.048799  -175.211060
	  126 D(21,17,20,25)  =    -55.391247    -0.000000    -0.051139   -55.442386
	  127 D(22,17,20,23)  =   -179.906485    -0.000000    -0.046135  -179.952620
	  128 D(22,17,20,24)  =    -59.818203    -0.000000    -0.046955   -59.865158
	  129 D(22,17,20,25)  =     59.952812    -0.000000    -0.049295    59.903517
	 ---------------------------------------------------------------------------

  ==> Convergence Check <==

  Measures of convergence in internal coordinates in au.
  Criteria marked as inactive (o), active & met (*), and active & unmet ( ).
  ---------------------------------------------------------------------------------------------
   Step     Total Energy     Delta E     MAX Force     RMS Force      MAX Disp      RMS Disp   
  ---------------------------------------------------------------------------------------------
    Convergence Criteria    1.00e-06 *    3.00e-04 *             o    1.20e-03 *             o
  ---------------------------------------------------------------------------------------------
      8    -387.12073123   -1.31e-07 *    3.55e-05 *    9.79e-06 o    3.65e-03      1.23e-03 o  ~
  ---------------------------------------------------------------------------------------------


  **** Optimization is complete! (in 8 steps) ****

  ==> Optimization Summary <==

  Measures of convergence in internal coordinates in au.
  --------------------------------------------------------------------------------------------------------------- ~
   Step         Total Energy             Delta E       MAX Force       RMS Force        MAX Disp        RMS Disp  ~
  --------------------------------------------------------------------------------------------------------------- ~
      1    -387.120354014502   -387.120354014502      0.00364842      0.00083603      0.08849887      0.02332839  ~
      2    -387.120458035724     -0.000104021222      0.00233029      0.00056384      0.05192500      0.01099954  ~
      3    -387.120612789283     -0.000154753559      0.00186889      0.00047087      0.03298174      0.01100563  ~
      4    -387.120726769078     -0.000113979795      0.00016357      0.00004400      0.11281999      0.03039141  ~
      5    -387.120568070916      0.000158698161      0.00098024      0.00024714      0.09121222      0.02418565  ~
      6    -387.120729876592     -0.000161805676      0.00014090      0.00002996      0.00921714      0.00343989  ~
      7    -387.120731097293     -0.000001220701      0.00007742      0.00001412      0.00647080      0.00239552  ~
      8    -387.120731228448     -0.000000131155      0.00003549      0.00000979      0.00364512      0.00123458  ~
  --------------------------------------------------------------------------------------------------------------- ~

	Writing optimization data to binary file.
	Final energy is   -387.1207312284483
	Final (previous) structure:
	Cartesian Geometry (in Angstrom)
	    H    -3.2132646041  -0.0841001935   1.2412843851
	    C    -3.2523873999  -0.0615697886   0.1450272470
	    C    -2.5979126143   1.1381548848  -0.4914858099
	    O    -3.7888931474  -0.9381711100  -0.4512680477
	    C    -1.1580408856   1.3511517362  -0.0038971745
	    H    -2.6405707569   1.0199198679  -1.5680641905
	    H    -3.1980299605   2.0079120254  -0.2270925902
	    C    -0.1931278433   0.2490735541  -0.4487438403
	    H    -0.8071740976   2.3095562567  -0.3753854469
	    H    -1.1522371400   1.4273217598   1.0821898897
	    C     1.2402139415   0.4818689100   0.0315480582
	    H    -0.2053086514   0.1828505980  -1.5347461534
	    H    -0.5409821958  -0.7158167051  -0.0844948362
	    C     2.2120390158  -0.6066892996  -0.4282795500
	    H     1.5885809107   1.4472352166  -0.3313638221
	    H     1.2483265941   0.5443743397   1.1181493715
	    C     3.6460568394  -0.4256021566   0.0959166398
	    H     2.2227936459  -0.6521381445  -1.5146643837
	    H     1.8388365949  -1.5774892111  -0.1058615849
	    C     3.8773265473  -1.0465965337   1.4746532756
	    H     3.8974615248   0.6322844636   0.1198478846
	    H     4.3406522399  -0.8834487789  -0.6034242966
	    H     3.2085012690  -0.6296473457   2.2223009330
	    H     3.7122223362  -2.1196047490   1.4465867026
	    H     4.8943090231  -0.8766431688   1.8147382919
	Saving final (previous) structure.
			--------------------------
			 OPTKING Finished Execution 
			--------------------------

    Final optimized geometry and variables:
    Molecular point group: c1
    Full point group: C1

    Geometry (in Angstrom), charge = 0, multiplicity = 1:

    H           -3.213264358696    -0.084100187050     1.241284290308
    C           -3.252387151487    -0.061569783947     0.145027235967
    C           -2.597912415945     1.138154797868    -0.491485772338
    O           -3.788892858060    -0.938171038396    -0.451268013266
    C           -1.158040797129     1.351151633012    -0.003897174207
    H           -2.640570555262     1.019919790000    -1.568064070753
    H           -3.198029716237     2.007911872109    -0.227092572875
    C           -0.193127828520     0.249073535032    -0.448743806005
    H           -0.807174035938     2.309556080293    -0.375385418251
    H           -1.152237051963     1.427321650829     1.082189807072
    C            1.240213846801     0.481868873166     0.031548055800
    H           -0.205308635729     0.182850584058    -1.534746036159
    H           -0.540982154482    -0.715816650428    -0.084494829756
    C            2.212038846834    -0.606689253252    -0.428279517263
    H            1.588580789405     1.447235106085    -0.331363796781
    H            1.248326498819     0.544374298088     1.118149286110
    C            3.646056561001    -0.425602124144     0.095916632467
    H            2.222793476109    -0.652138094723    -1.514664267990
    H            1.838836454501    -1.577489090621    -0.105861576771
    C            3.877326251230    -1.046596453815     1.474653162970
    H            3.897461227207     0.632284415294     0.119847875418
    H            4.340651908431    -0.883448711404    -0.603424250473
    H            3.208501023986    -0.629647297611     2.222300763273
    H            3.712222052754    -2.119604587154     1.446586592150
    H            4.894308649379    -0.876643101850     1.814738153333

	Cleaning optimization helper files.


Properties will be evaluated at   0.000000,   0.000000,   0.000000 Bohr

Properties computed using the  density matrix

  Nuclear Dipole Moment: (a.u.)
     X:    14.2258      Y:     1.9010      Z:     2.5290

  Electronic Dipole Moment: (a.u.)
     X:   -13.5217      Y:    -0.9810      Z:    -2.1363

  Dipole Moment: (a.u.)
     X:     0.7041      Y:     0.9200      Z:     0.3927     Total:     1.2233

  Dipole Moment: (Debye)
     X:     1.7897      Y:     2.3383      Z:     0.9982     Total:     3.1092

  Quadrupole Moment: (Debye Ang)
    XX:   -68.7582     YY:   -59.8311     ZZ:   -58.4583
    XY:    -8.7809     XZ:    -4.9000     YZ:    -1.2984

  Traceless Quadrupole Moment: (Debye Ang)
    XX:    -6.4090     YY:     2.5181     ZZ:     3.8909
    XY:    -8.7809     XZ:    -4.9000     YZ:    -1.2984

  Mulliken Charges: (a.u.)
   Center  Symbol    Alpha    Beta     Spin     Total
       1     H     0.43260  0.43260  0.00000  0.13480
       2     C     2.83084  2.83084  0.00000  0.33832
       3     C     3.20815  3.20815  0.00000 -0.41630
       4     O     4.23775  4.23775  0.00000 -0.47549
       5     C     3.16663  3.16663  0.00000 -0.33326
       6     H     0.39969  0.39969  0.00000  0.20063
       7     H     0.40659  0.40659  0.00000  0.18682
       8     C     3.15518  3.15518  0.00000 -0.31035
       9     H     0.41277  0.41277  0.00000  0.17445
      10     H     0.41967  0.41967  0.00000  0.16067
      11     C     3.15317  3.15317  0.00000 -0.30634
      12     H     0.41802  0.41802  0.00000  0.16395
      13     H     0.41819  0.41819  0.00000  0.16361
      14     C     3.15494  3.15494  0.00000 -0.30988
      15     H     0.42258  0.42258  0.00000  0.15484
      16     H     0.42255  0.42255  0.00000  0.15490
      17     C     3.15453  3.15453  0.00000 -0.30906
      18     H     0.42011  0.42011  0.00000  0.15978
      19     H     0.42192  0.42192  0.00000  0.15615
      20     C     3.24000  3.24000  0.00000 -0.48000
      21     H     0.42229  0.42229  0.00000  0.15541
      22     H     0.41976  0.41976  0.00000  0.16048
      23     H     0.42226  0.42226  0.00000  0.15548
      24     H     0.42062  0.42062  0.00000  0.15877
      25     H     0.41919  0.41919  0.00000  0.16162

   Total alpha = 36.00000, Total beta = 36.00000, Total charge =  0.00000


*** PSI4 exiting successfully. Buy a developer a beer!
