    -----------------------------------------------------------------------
          Psi4: An Open-Source Ab Initio Electronic Structure Package
                              Psi4 1.0.54 Driver

                          Git: Rev {master} 8d4cec3 dirty

    J. M. Turney, A. C. Simmonett, R. M. Parrish, E. G. Hohenstein,
    F. A. Evangelista, J. T. Fermann, B. J. Mintz, L. A. Burns, J. J. Wilke,
    M. L. Abrams, N. J. Russ, M. L. Leininger, C. L. Janssen, E. T. Seidl,
    W. D. Allen, H. F. Schaefer, R. A. King, E. F. Valeev, C. D. Sherrill,
    and T. D. Crawford, WIREs Comput. Mol. Sci. 2, 556-565 (2012)
    (doi: 10.1002/wcms.93)

                         Additional Contributions by
    A. E. DePrince, U. Bozkaya, A. Yu. Sokolov, D. G. A. Smith, R. Di Remigio,
    R. M. Richard, J. F. Gonthier, H. R. McAlexander, M. Saitow, and
    B. P. Pritchard
    -----------------------------------------------------------------------


    Psi4 started on: Sat Sep 10 16:27:03 2016

    Process ID:   8201
    PSI4DATADIR: /export131/home/mjharvey/miniconda3/share/psi4
    Memory level set to 256.000 MB

  ==> Input File <==

--------------------------------------------------------------------------
set {
	reference rhf
	basis cc-pvtz
}


set_num_threads( 4 )
memory 2 gb

molecule MOL {
0 1

H	 2.256809	 -1.261077	 0.315481
N	 2.433987	 -0.362316	 -0.080024
C	 1.263552	 0.494993	 0.021953
H	 2.688579	 -0.505710	 -1.034989
C	 -0.016533	 -0.325589	 -0.026925
H	 1.280915	 1.180773	 -0.818522
H	 1.263064	 1.106893	 0.925038
C	 -1.280353	 0.525521	 0.047747
H	 -0.016686	 -0.912532	 -0.939714
H	 -0.014099	 -1.037598	 0.796369
C	 -2.560681	 -0.301323	 -0.007747
H	 -1.279957	 1.241025	 -0.770189
H	 -1.270445	 1.110526	 0.963468
H	 -2.617064	 -0.872870	 -0.928010
H	 -3.439525	 0.331102	 0.043462
H	 -2.609427	 -1.002736	 0.818585

	symmetry c1
}
set optking {
	frozen_dihedral = ("
		1 2 3 6
	")
}

ee,wfn = optimize('scf', return_wfn=True)
oeprop( wfn, 'DIPOLE', 'QUADRUPOLE', 'MULLIKEN_CHARGES')
f=open( 'psi4out.xyz', 'w' )
f.write( "16  " )
f.write( str(ee) + "\n" )
f.write( MOL.save_string_xyz() )
f.close()
--------------------------------------------------------------------------

  Memory set to   2.000 GiB by Python script.
gradient() will perform analytic gradient computation.

*** tstart() called on cx1-28-12-4
*** at Sat Sep 10 16:27:04 2016


         ---------------------------------------------------------
                                   SCF
            by Justin Turney, Rob Parrish, and Andy Simmonett
                              RHF Reference
                        4 Threads,   2000 MiB Core
         ---------------------------------------------------------

  ==> Geometry <==

    Molecular point group: c1
    Full point group: C1

    Geometry (in Angstrom), charge = 0, multiplicity = 1:

       Center              X                  Y                   Z               Mass       
    ------------   -----------------  -----------------  -----------------  -----------------
           H          2.268194015517    -1.247704474311     0.333735270509     1.007825032070
           N          2.445372015517    -0.348943474311    -0.061769729491    14.003074004780
           C          1.274937015517     0.508365525689     0.040207270509    12.000000000000
           H          2.699964015517    -0.492337474311    -1.016734729491     1.007825032070
           C         -0.005147984483    -0.312216474311    -0.008670729491    12.000000000000
           H          1.292300015517     1.194145525689    -0.800267729491     1.007825032070
           H          1.274449015517     1.120265525689     0.943292270509     1.007825032070
           C         -1.268967984483     0.538893525689     0.066001270509    12.000000000000
           H         -0.005300984483    -0.899159474311    -0.921459729491     1.007825032070
           H         -0.002713984483    -1.024225474311     0.814623270509     1.007825032070
           C         -2.549295984483    -0.287950474311     0.010507270509    12.000000000000
           H         -1.268571984483     1.254397525689    -0.751934729491     1.007825032070
           H         -1.259059984483     1.123898525689     0.981722270509     1.007825032070
           H         -2.605678984483    -0.859497474311    -0.909755729491     1.007825032070
           H         -3.428139984483     0.344474525689     0.061716270509     1.007825032070
           H         -2.598041984483    -0.989363474311     0.836839270509     1.007825032070

  Running in c1 symmetry.

  Rotational constants: A =      0.58522  B =      0.06676  C =      0.06317 [cm^-1]
  Rotational constants: A =  17544.35706  B =   2001.33067  C =   1893.72433 [MHz]
  Nuclear repulsion =  187.092738148463980

  Charge       = 0
  Multiplicity = 1
  Electrons    = 42
  Nalpha       = 21
  Nbeta        = 21

  ==> Algorithm <==

  SCF Algorithm Type is DF.
  DIIS enabled.
  MOM disabled.
  Fractional occupation disabled.
  Guess Type is SAD.
  Energy threshold   = 1.00e-08
  Density threshold  = 1.00e-08
  Integral threshold = 0.00e+00

  ==> Primary Basis <==

  Basis Set: CC-PVTZ
    Number of shells: 116
    Number of basis function: 304
    Number of Cartesian functions: 340
    Spherical Harmonics?: true
    Max angular momentum: 3

  ==> Pre-Iterations <==

   -------------------------------------------------------
    Irrep   Nso     Nmo     Nalpha   Nbeta   Ndocc  Nsocc
   -------------------------------------------------------
     A        304     304       0       0       0       0
   -------------------------------------------------------
    Total     304     304      21      21      21       0
   -------------------------------------------------------

  ==> Integral Setup <==

  ==> DFJK: Density-Fitted J/K Matrices <==

    J tasked:                  Yes
    K tasked:                  Yes
    wK tasked:                  No
    OpenMP threads:              4
    Integrals threads:           4
    Memory (MB):              1430
    Algorithm:                Core
    Integral Cache:           NONE
    Schwarz Cutoff:          1E-12
    Fitting Condition:       1E-12

   => Auxiliary Basis Set <=

  Basis Set: 
    Number of shells: 235
    Number of basis function: 725
    Number of Cartesian functions: 865
    Spherical Harmonics?: true
    Max angular momentum: 4

  Minimum eigenvalue in the overlap matrix is 3.9451531435E-04.
  Using Symmetric Orthogonalization.
  SCF Guess: Superposition of Atomic Densities via on-the-fly atomic UHF.

  ==> Iterations <==

                           Total Energy        Delta E     RMS |[F,P]|

   @DF-RHF iter   0:  -214.78063678323139   -2.14781e+02   1.50142e-02 
   @DF-RHF iter   1:  -212.29494419364505    2.48569e+00   1.22155e-03 
   @DF-RHF iter   2:  -212.38559845484286   -9.06543e-02   4.27134e-04 DIIS
   @DF-RHF iter   3:  -212.39519054747814   -9.59209e-03   1.55643e-04 DIIS
   @DF-RHF iter   4:  -212.39691962370119   -1.72908e-03   3.21087e-05 DIIS
   @DF-RHF iter   5:  -212.39700138268500   -8.17590e-05   1.04918e-05 DIIS
   @DF-RHF iter   6:  -212.39701014206668   -8.75938e-06   2.73845e-06 DIIS
   @DF-RHF iter   7:  -212.39701078848128   -6.46415e-07   6.95302e-07 DIIS
   @DF-RHF iter   8:  -212.39701084324332   -5.47620e-08   1.89428e-07 DIIS
   @DF-RHF iter   9:  -212.39701084732150   -4.07817e-09   6.37493e-08 DIIS
   @DF-RHF iter  10:  -212.39701084776283   -4.41332e-10   1.49577e-08 DIIS
   @DF-RHF iter  11:  -212.39701084779142   -2.85922e-11   3.20136e-09 DIIS

  ==> Post-Iterations <==

    Orbital Energies (a.u.)
    -----------------------

    Doubly Occupied:                                                      

       1A    -15.524589     2A    -11.238953     3A    -11.214972  
       4A    -11.210949     5A    -11.208239     6A     -1.179545  
       7A     -1.062447     8A     -0.960007     9A     -0.847711  
      10A     -0.798210    11A     -0.676656    12A     -0.629289  
      13A     -0.595632    14A     -0.590638    15A     -0.558366  
      16A     -0.526060    17A     -0.504698    18A     -0.483272  
      19A     -0.473448    20A     -0.467081    21A     -0.376118  

    Virtual:                                                              

      22A      0.139821    23A      0.152997    24A      0.164989  
      25A      0.172094    26A      0.199333    27A      0.213716  
      28A      0.226731    29A      0.230061    30A      0.246841  
      31A      0.263701    32A      0.275672    33A      0.306674  
      34A      0.335035    35A      0.344998    36A      0.378618  
      37A      0.403817    38A      0.418665    39A      0.451550  
      40A      0.468149    41A      0.474611    42A      0.493699  
      43A      0.509990    44A      0.539309    45A      0.550197  
      46A      0.566349    47A      0.571370    48A      0.592109  
      49A      0.625309    50A      0.626855    51A      0.641462  
      52A      0.642425    53A      0.654701    54A      0.667685  
      55A      0.671990    56A      0.681704    57A      0.683198  
      58A      0.699181    59A      0.715240    60A      0.735394  
      61A      0.743069    62A      0.763820    63A      0.793376  
      64A      0.827888    65A      0.846817    66A      0.890684  
      67A      0.915118    68A      0.925388    69A      0.940281  
      70A      0.970644    71A      0.973044    72A      1.003770  
      73A      1.033128    74A      1.081161    75A      1.088931  
      76A      1.112938    77A      1.143261    78A      1.172015  
      79A      1.179914    80A      1.200767    81A      1.221613  
      82A      1.229461    83A      1.255586    84A      1.264836  
      85A      1.276935    86A      1.297211    87A      1.308106  
      88A      1.328241    89A      1.337266    90A      1.344626  
      91A      1.368932    92A      1.393301    93A      1.397721  
      94A      1.409495    95A      1.421895    96A      1.429749  
      97A      1.472811    98A      1.482169    99A      1.501813  
     100A      1.503532   101A      1.517727   102A      1.539406  
     103A      1.555889   104A      1.578853   105A      1.589899  
     106A      1.600801   107A      1.614056   108A      1.631346  
     109A      1.653202   110A      1.689169   111A      1.696367  
     112A      1.737799   113A      1.747652   114A      1.788869  
     115A      1.807379   116A      1.812327   117A      1.832807  
     118A      1.854334   119A      1.882462   120A      1.916136  
     121A      1.959601   122A      1.980242   123A      2.043226  
     124A      2.092883   125A      2.107402   126A      2.515612  
     127A      2.577878   128A      2.611200   129A      2.646115  
     130A      2.667654   131A      2.685079   132A      2.714612  
     133A      2.752868   134A      2.763777   135A      2.794409  
     136A      2.809109   137A      2.827110   138A      2.865762  
     139A      2.872163   140A      2.906772   141A      2.920067  
     142A      2.942946   143A      2.960577   144A      2.985268  
     145A      3.023197   146A      3.026579   147A      3.046729  
     148A      3.092924   149A      3.113971   150A      3.117382  
     151A      3.145075   152A      3.162745   153A      3.175549  
     154A      3.206962   155A      3.240405   156A      3.273906  
     157A      3.286716   158A      3.313524   159A      3.330218  
     160A      3.343362   161A      3.359769   162A      3.379990  
     163A      3.392118   164A      3.413277   165A      3.415570  
     166A      3.426991   167A      3.438016   168A      3.446241  
     169A      3.454569   170A      3.466484   171A      3.497093  
     172A      3.508789   173A      3.542522   174A      3.557021  
     175A      3.562254   176A      3.573063   177A      3.588963  
     178A      3.609566   179A      3.611683   180A      3.636193  
     181A      3.665502   182A      3.701536   183A      3.718142  
     184A      3.736672   185A      3.755569   186A      3.785866  
     187A      3.793974   188A      3.809936   189A      3.845404  
     190A      3.852641   191A      3.864446   192A      3.880850  
     193A      3.892681   194A      3.896898   195A      3.916645  
     196A      3.945180   197A      3.957139   198A      3.977648  
     199A      3.995488   200A      4.031423   201A      4.064281  
     202A      4.076213   203A      4.083177   204A      4.124306  
     205A      4.139241   206A      4.149665   207A      4.156347  
     208A      4.175620   209A      4.194783   210A      4.202415  
     211A      4.213299   212A      4.234872   213A      4.251911  
     214A      4.266279   215A      4.293099   216A      4.297487  
     217A      4.321069   218A      4.337257   219A      4.348105  
     220A      4.389203   221A      4.394596   222A      4.414680  
     223A      4.421232   224A      4.426878   225A      4.450628  
     226A      4.479914   227A      4.483743   228A      4.503737  
     229A      4.505502   230A      4.539544   231A      4.563118  
     232A      4.593061   233A      4.599850   234A      4.616851  
     235A      4.623794   236A      4.645104   237A      4.655170  
     238A      4.672110   239A      4.693280   240A      4.706650  
     241A      4.737563   242A      4.751671   243A      4.781100  
     244A      4.812374   245A      4.840680   246A      4.886653  
     247A      4.917837   248A      5.016608   249A      5.035498  
     250A      5.053711   251A      5.068065   252A      5.092253  
     253A      5.119178   254A      5.172618   255A      5.203942  
     256A      5.223563   257A      5.243867   258A      5.255269  
     259A      5.310982   260A      5.321440   261A      5.331559  
     262A      5.374598   263A      5.386932   264A      5.401407  
     265A      5.419453   266A      5.477942   267A      5.494848  
     268A      5.501050   269A      5.560576   270A      5.612131  
     271A      5.643060   272A      5.692526   273A      5.722277  
     274A      5.747892   275A      5.753925   276A      5.771737  
     277A      5.817045   278A      5.841110   279A      5.861326  
     280A      5.890213   281A      5.903420   282A      5.933457  
     283A      5.952453   284A      5.964330   285A      6.031914  
     286A      6.054106   287A      6.068890   288A      6.160966  
     289A      6.248920   290A      6.282473   291A      6.323265  
     292A      6.327936   293A      6.373129   294A      6.403839  
     295A      6.448985   296A      6.507736   297A      6.585662  
     298A      6.752993   299A      7.361597   300A     12.883814  
     301A     13.356725   302A     13.568714   303A     14.207881  
     304A     14.275907  

    Final Occupation by Irrep:
              A 
    DOCC [    21 ]

  Energy converged.

  @DF-RHF Final Energy:  -212.39701084779142

   => Energetics <=

    Nuclear Repulsion Energy =            187.0927381484639795
    One-Electron Energy =                -656.7257399297693610
    Two-Electron Energy =                 257.2359909335139605
    DFT Exchange-Correlation Energy =       0.0000000000000000
    Empirical Dispersion Energy =           0.0000000000000000
    PCM Polarization Energy =               0.0000000000000000
    EFP Energy =                            0.0000000000000000
    Total Energy =                       -212.3970108477914209


  Saving occupied orbitals to File 180.

*** tstop() called on cx1-28-12-4 at Sat Sep 10 16:27:10 2016
Module time:
	user time   =      19.66 seconds =       0.33 minutes
	system time =       0.51 seconds =       0.01 minutes
	total time  =          6 seconds =       0.10 minutes
Total time:
	user time   =      19.66 seconds =       0.33 minutes
	system time =       0.51 seconds =       0.01 minutes
	total time  =          6 seconds =       0.10 minutes


Properties will be evaluated at   0.000000,   0.000000,   0.000000 Bohr

Properties computed using the SCF density matrix

  Nuclear Dipole Moment: (a.u.)
     X:    -3.4126      Y:    -0.4444      Z:    -0.4013

  Electronic Dipole Moment: (a.u.)
     X:     3.0070      Y:     0.2278      Z:     0.1198

  Dipole Moment: (a.u.)
     X:    -0.4055      Y:    -0.2166      Z:    -0.2815     Total:     0.5391

  Dipole Moment: (Debye)
     X:    -1.0308      Y:    -0.5506      Z:    -0.7154     Total:     1.3702


*** tstart() called on cx1-28-12-4
*** at Sat Sep 10 16:27:10 2016


         ------------------------------------------------------------
                                   SCF GRAD                          
                          Rob Parrish, Justin Turney,                
                       Andy Simmonett, and Alex Sokolov              
         ------------------------------------------------------------

  ==> Geometry <==

    Molecular point group: c1
    Full point group: C1

    Geometry (in Angstrom), charge = 0, multiplicity = 1:

       Center              X                  Y                   Z               Mass       
    ------------   -----------------  -----------------  -----------------  -----------------
           H          2.268194015517    -1.247704474311     0.333735270509     1.007825032070
           N          2.445372015517    -0.348943474311    -0.061769729491    14.003074004780
           C          1.274937015517     0.508365525689     0.040207270509    12.000000000000
           H          2.699964015517    -0.492337474311    -1.016734729491     1.007825032070
           C         -0.005147984483    -0.312216474311    -0.008670729491    12.000000000000
           H          1.292300015517     1.194145525689    -0.800267729491     1.007825032070
           H          1.274449015517     1.120265525689     0.943292270509     1.007825032070
           C         -1.268967984483     0.538893525689     0.066001270509    12.000000000000
           H         -0.005300984483    -0.899159474311    -0.921459729491     1.007825032070
           H         -0.002713984483    -1.024225474311     0.814623270509     1.007825032070
           C         -2.549295984483    -0.287950474311     0.010507270509    12.000000000000
           H         -1.268571984483     1.254397525689    -0.751934729491     1.007825032070
           H         -1.259059984483     1.123898525689     0.981722270509     1.007825032070
           H         -2.605678984483    -0.859497474311    -0.909755729491     1.007825032070
           H         -3.428139984483     0.344474525689     0.061716270509     1.007825032070
           H         -2.598041984483    -0.989363474311     0.836839270509     1.007825032070

  Nuclear repulsion =  187.092738148463980

  ==> Basis Set <==

  Basis Set: CC-PVTZ
    Number of shells: 116
    Number of basis function: 304
    Number of Cartesian functions: 340
    Spherical Harmonics?: true
    Max angular momentum: 3

  ==> DFJKGrad: Density-Fitted SCF Gradients <==

    Gradient:                    1
    J tasked:                  Yes
    K tasked:                  Yes
    wK tasked:                  No
    OpenMP threads:              4
    Integrals threads:           4
    Memory (MB):              1430
    Schwarz Cutoff:          0E+00
    Fitting Condition:       1E-12

   => Auxiliary Basis Set <=

  Basis Set: 
    Number of shells: 235
    Number of basis function: 725
    Number of Cartesian functions: 865
    Spherical Harmonics?: true
    Max angular momentum: 4


  -Total Gradient:
     Atom            X                  Y                   Z
    ------   -----------------  -----------------  -----------------
       1       -0.001318201203    -0.001005119312    -0.001409955654
       2       -0.007999833709    -0.005166869667    -0.002258323891
       3        0.004873832376     0.007897048683     0.005605521310
       4        0.000963957501    -0.000018148292    -0.002060606618
       5        0.007095301043    -0.006307371439    -0.001324993200
       6       -0.000098196592    -0.001874536099    -0.001806333475
       7       -0.006048511082     0.004798596733     0.001676045117
       8        0.001672892215     0.001732842677     0.000578151731
       9        0.000997251823     0.000437272568     0.001232904667
      10       -0.000379268010    -0.000333985191    -0.000195692048
      11        0.000465073515    -0.000482783713    -0.000209301042
      12       -0.000039462103    -0.000015196395     0.000003782498
      13       -0.000377904557     0.000188684469     0.000057607013
      14        0.000052574867     0.000019108033     0.000110134985
      15        0.000144727497     0.000155001619     0.000015322207
      16       -0.000004233581    -0.000024544673    -0.000014263601


*** tstop() called on cx1-28-12-4 at Sat Sep 10 16:27:16 2016
Module time:
	user time   =      21.69 seconds =       0.36 minutes
	system time =       0.45 seconds =       0.01 minutes
	total time  =          6 seconds =       0.10 minutes
Total time:
	user time   =      41.46 seconds =       0.69 minutes
	system time =       0.96 seconds =       0.02 minutes
	total time  =         12 seconds =       0.20 minutes

			-----------------------------------------
			 OPTKING 2.0: for geometry optimizations 
			  - R.A. King,  Bethel University        
			-----------------------------------------

	Internal coordinates to be generated automatically.
	Detected frag 1 with atoms:  1 2 3 4 5 6 7 8 9 10 11 12 13 14 15 16
	---Fragment 1 Bond Connectivity---
	 1 : 2
	 2 : 1 3 4
	 3 : 2 5 6 7
	 4 : 2
	 5 : 3 8 9 10
	 6 : 3
	 7 : 3
	 8 : 5 11 12 13
	 9 : 5
	 10 : 5
	 11 : 8 14 15 16
	 12 : 8
	 13 : 8
	 14 : 11
	 15 : 11
	 16 : 11

	Assuming in current code that numbering for constraints corresponds to unified fragment.
	Frozen dihedral atom list: 
	     1     2     3     6
	---Fragment 1 Geometry and Gradient---
	 H           4.2862655056       -2.3578197512        0.6306682621
	 N           4.6210834023       -0.6594076023       -0.1167278720
	 C           2.4092817960        0.9606716190        0.0759807298
	 H           5.1021925580       -0.9303829914       -1.9213501885
	 C          -0.0097282808       -0.5900036306       -0.0163853041
	 H           2.4420931109        2.2566080064       -1.5122868417
	 H           2.4083596097        2.1169950397        1.7825640545
	 C          -2.3980019621        1.0183611783        0.1247243257
	 H          -0.0100174089       -1.6991651562       -1.7413065312
	 H          -0.0051286874       -1.9355056448        1.5394148827
	 C          -4.8174712423       -0.5441475363        0.0198558637
	 H          -2.3972536305        2.3704677853       -1.4209507085
	 H          -2.3792785555        2.1238604147        1.8551862298
	 H          -4.9240196709       -1.6242148384       -1.7191891766
	 H          -6.4782457159        0.6509625133        0.1166268492
	 H          -4.9095878324       -1.8696260123        1.5813970385
	            -0.0013182012       -0.0010051193       -0.0014099557
	            -0.0079998337       -0.0051668697       -0.0022583239
	             0.0048738324        0.0078970487        0.0056055213
	             0.0009639575       -0.0000181483       -0.0020606066
	             0.0070953010       -0.0063073714       -0.0013249932
	            -0.0000981966       -0.0018745361       -0.0018063335
	            -0.0060485111        0.0047985967        0.0016760451
	             0.0016728922        0.0017328427        0.0005781517
	             0.0009972518        0.0004372726        0.0012329047
	            -0.0003792680       -0.0003339852       -0.0001956920
	             0.0004650735       -0.0004827837       -0.0002093010
	            -0.0000394621       -0.0000151964        0.0000037825
	            -0.0003779046        0.0001886845        0.0000576070
	             0.0000525749        0.0000191080        0.0001101350
	             0.0001447275        0.0001550016        0.0000153222
	            -0.0000042336       -0.0000245447       -0.0000142636

	Previous optimization step data not found.  Starting new optimization.

	---Fragment 1 Intrafragment Coordinates---
	 - Coordinate -           - BOHR/RAD -       - ANG/DEG -
	 R(1,2)           =         1.885552	       0.997791
	 R(2,3)           =         2.748429	       1.454406
	 R(2,4)           =         1.887208	       0.998668
	 R(3,5)           =         2.874845	       1.521303
	 R(3,6)           =         2.050152	       1.084894
	 R(3,7)           =         2.061434	       1.090864
	 R(5,8)           =         2.882811	       1.525518
	 R(5,9)           =         2.050754	       1.085212
	 R(5,10)          =         2.056918	       1.088474
	 R(8,11)          =         2.882059	       1.525120
	 R(8,12)          =         2.053608	       1.086722
	 R(8,13)          =         2.053528	       1.086680
	 R(11,14)         =         2.049921	       1.084771
	 R(11,15)         =         2.048371	       1.083951
	 R(11,16)         =         2.050314	       1.084980
	 B(1,2,3)         =         1.939344	     111.116214
	 B(1,2,4)         =         1.870219	     107.155631
	 B(2,3,5)         =         1.935795	     110.912867
	 B(2,3,6)         =         1.881162	     107.782644
	 B(2,3,7)         =         1.970398	     112.895467
	 B(3,2,4)         =         1.935681	     110.906346
	 B(3,5,8)         =         1.976412	     113.240064
	 B(3,5,9)         =         1.895341	     108.595038
	 B(3,5,10)        =         1.903557	     109.065785
	 B(5,3,6)         =         1.906609	     109.240652
	 B(5,3,7)         =         1.905813	     109.195063
	 B(5,8,11)        =         1.972760	     113.030795
	 B(5,8,12)        =         1.907302	     109.280362
	 B(5,8,13)        =         1.911386	     109.514373
	 B(6,3,7)         =         1.861664	     106.665487
	 B(8,5,9)         =         1.920699	     110.047937
	 B(8,5,10)        =         1.906868	     109.255488
	 B(8,11,14)       =         1.939227	     111.109541
	 B(8,11,15)       =         1.941863	     111.260542
	 B(8,11,16)       =         1.939591	     111.130369
	 B(9,5,10)        =         1.857098	     106.403866
	 B(11,8,12)       =         1.906966	     109.261110
	 B(11,8,13)       =         1.907289	     109.279601
	 B(12,8,13)       =         1.854384	     106.248395
	 B(14,11,15)      =         1.881095	     107.778809
	 B(14,11,16)      =         1.878802	     107.647405
	 B(15,11,16)      =         1.880499	     107.744632
	 D(1,2,3,5)       =        -0.531624	     -30.459789
	*D(1,2,3,6)       =        -2.617994	    -150.000002
	 D(1,2,3,7)       =         1.613716	      92.459089
	 D(2,3,5,8)       =        -3.121251	    -178.834537
	 D(2,3,5,9)       =        -0.982269	     -56.279872
	 D(2,3,5,10)      =         1.034718	      59.284990
	 D(3,5,8,11)      =         3.137220	     179.749442
	 D(3,5,8,12)      =         1.009650	      57.848704
	 D(3,5,8,13)      =        -1.015037	     -58.157327
	 D(4,2,3,5)       =         1.546687	      88.618650
	 D(4,2,3,6)       =        -0.539683	     -30.921564
	 D(4,2,3,7)       =        -2.591159	    -148.462472
	 D(5,8,11,14)     =        -1.041738	     -59.687163
	 D(5,8,11,15)     =        -3.137776	    -179.781323
	 D(5,8,11,16)     =         1.049881	      60.153758
	 D(6,3,5,8)       =        -1.050188	     -60.171365
	 D(6,3,5,9)       =         1.088794	      62.383301
	 D(6,3,5,10)      =         3.105781	     177.948162
	 D(7,3,5,8)       =         0.979710	      56.133264
	 D(7,3,5,9)       =         3.118693	     178.687930
	 D(7,3,5,10)      =        -1.147505	     -65.747209
	 D(9,5,8,11)      =         1.012384	      58.005322
	 D(9,5,8,12)      =        -1.115185	     -63.895416
	 D(9,5,8,13)      =        -3.139873	    -179.901447
	 D(10,5,8,11)     =        -1.020604	     -58.476283
	 D(10,5,8,12)     =         3.135012	     179.622979
	 D(10,5,8,13)     =         1.110325	      63.616948
	 D(12,8,11,14)    =         1.086020	      62.224386
	 D(12,8,11,15)    =        -1.010018	     -57.869774
	 D(12,8,11,16)    =        -3.105546	    -177.934693
	 D(13,8,11,14)    =         3.108224	     178.088132
	 D(13,8,11,15)    =         1.012186	      57.993972
	 D(13,8,11,16)    =        -1.083342	     -62.070947

	Current energy   :      -212.3970108478

	Generating empirical Hessian (Schlegel '84) for each fragment.
	Taking RFO optimization step.
	Going to follow RFO solution 1.
	Using RFO vector 1.
	Norm of target step-size    0.16984
	Projected energy change by RFO approximation:        -0.0033443196

	Back-transformation to cartesian coordinates...
	Could not converge backtransformation.
	Using first guess instead.

	Back-transformation to cartesian coordinates to adjust frozen coordinates...
	Successfully converged to displaced geometry.

	--- Internal Coordinate Step in ANG or DEG, aJ/ANG or AJ/DEG ---
	 ---------------------------------------------------------------------------
	   Coordinate                Previous        Force       Change         New 
	   ----------                --------       ------       ------       ------
	    1 R(1,2)          =      0.997791    -0.004783     0.000205     0.997996
	    2 R(2,3)          =      1.454406     0.022018     0.007899     1.462305
	    3 R(2,4)          =      0.998668    -0.018280    -0.001092     0.997576
	    4 R(3,5)          =      1.521303     0.046225     0.010586     1.531889
	    5 R(3,6)          =      1.084894    -0.001754    -0.000208     1.084686
	    6 R(3,7)          =      1.090864    -0.033630    -0.005482     1.085382
	    7 R(5,8)          =      1.525518     0.005612     0.001915     1.527433
	    8 R(5,9)          =      1.085212     0.010493     0.002531     1.087743
	    9 R(5,10)         =      1.088474    -0.000573    -0.000075     1.088399
	   10 R(8,11)         =      1.525120     0.003034     0.001363     1.526483
	   11 R(8,12)         =      1.086722     0.000106     0.000047     1.086769
	   12 R(8,13)         =      1.086680    -0.001208     0.000364     1.087044
	   13 R(11,14)        =      1.084771     0.000875     0.000743     1.085514
	   14 R(11,15)        =      1.083951     0.000216     0.000624     1.084576
	   15 R(11,16)        =      1.084980    -0.000043     0.000016     1.084996
	   16 B(1,2,3)        =    111.116214     0.000046     0.078075   111.194290
	   17 B(1,2,4)        =    107.155631    -0.000083    -0.633775   106.521856
	   18 B(2,3,5)        =    110.912867     0.001325     4.747319   115.660186
	   19 B(2,3,6)        =    107.782644    -0.000182     0.487910   108.270555
	   20 B(2,3,7)        =    112.895467    -0.000838    -4.885322   108.010144
	   21 B(3,2,4)        =    110.906346    -0.000064    -0.262184   110.644163
	   22 B(3,5,8)        =    113.240064     0.000243     0.858251   114.098315
	   23 B(3,5,9)        =    108.595038    -0.000013     0.290853   108.885892
	   24 B(3,5,10)       =    109.065785    -0.000113    -0.511035   108.554750
	   25 B(5,3,6)        =    109.240652    -0.000490    -0.544124   108.696528
	   26 B(5,3,7)        =    109.195063    -0.000125     0.018883   109.213947
	   27 B(5,8,11)       =    113.030795     0.000092     0.341928   113.372723
	   28 B(5,8,12)       =    109.280362    -0.000023    -0.023172   109.257189
	   29 B(5,8,13)       =    109.514373    -0.000052    -0.304925   109.209448
	   30 B(6,3,7)        =    106.665487     0.000260    -0.044056   106.621431
	   31 B(8,5,9)        =    110.047937    -0.000129    -0.507601   109.540336
	   32 B(8,5,10)       =    109.255488    -0.000050    -0.206471   109.049017
	   33 B(8,11,14)      =    111.109541    -0.000001     0.002509   111.112050
	   34 B(8,11,15)      =    111.260542     0.000023     0.120735   111.381278
	   35 B(8,11,16)      =    111.130369    -0.000006    -0.042440   111.087929
	   36 B(9,5,10)       =    106.403866     0.000051     0.025203   106.429069
	   37 B(11,8,12)      =    109.261110    -0.000025     0.005574   109.266685
	   38 B(11,8,13)      =    109.279601    -0.000012    -0.008823   109.270778
	   39 B(12,8,13)      =    106.248395     0.000016    -0.033717   106.214678
	   40 B(14,11,15)     =    107.778809    -0.000011    -0.038407   107.740402
	   41 B(14,11,16)     =    107.647405     0.000002    -0.010247   107.637159
	   42 B(15,11,16)     =    107.744632    -0.000008    -0.037292   107.707340
	   43 D(1,2,3,5)      =    -30.459789     0.000015     2.676001   -27.783787
	   44 *D(1,2,3,6)     =   -150.000002    -0.000000     0.000000  -150.000002
	   45 D(1,2,3,7)      =     92.459089     0.000065     2.447856    94.906945
	   46 D(2,3,5,8)      =   -178.834537    -0.000038    -2.793851  -181.628389
	   47 D(2,3,5,9)      =    -56.279872    -0.000040    -2.646575   -58.926447
	   48 D(2,3,5,10)     =     59.284990    -0.000042    -2.735025    56.549965
	   49 D(3,5,8,11)     =    179.749442     0.000007     0.711562   180.461004
	   50 D(3,5,8,12)     =     57.848704     0.000003     0.488592    58.337295
	   51 D(3,5,8,13)     =    -58.157327     0.000009     0.712493   -57.444834
	   52 D(4,2,3,5)      =     88.618650    -0.000012     1.763842    90.382492
	   53 D(4,2,3,6)      =    -30.921564    -0.000027    -0.912159   -31.833722
	   54 D(4,2,3,7)      =   -148.462472     0.000039     1.535697  -146.926775
	   55 D(5,8,11,14)    =    -59.687163    -0.000002    -0.176938   -59.864101
	   56 D(5,8,11,15)    =   -179.781323    -0.000002    -0.211192  -179.992516
	   57 D(5,8,11,16)    =     60.153758    -0.000002    -0.216476    59.937282
	   58 D(6,3,5,8)      =    -60.171365     0.000025     0.532221   -59.639144
	   59 D(6,3,5,9)      =     62.383301     0.000022     0.679497    63.062798
	   60 D(6,3,5,10)     =    177.948162     0.000020     0.591048   178.539210
	   61 D(7,3,5,8)      =     56.133264     0.000017     0.187165    56.320429
	   62 D(7,3,5,9)      =    178.687930     0.000014     0.334442   179.022372
	   63 D(7,3,5,10)     =    -65.747209     0.000013     0.245992   -65.501217
	   64 D(9,5,8,11)     =     58.005322    -0.000007     0.111422    58.116744
	   65 D(9,5,8,12)     =    -63.895416    -0.000010    -0.111548   -64.006965
	   66 D(9,5,8,13)     =   -179.901447    -0.000005     0.112353  -179.789094
	   67 D(10,5,8,11)    =    -58.476283     0.000003     0.486307   -57.989976
	   68 D(10,5,8,12)    =    179.622979    -0.000000     0.263336   179.886315
	   69 D(10,5,8,13)    =     63.616948     0.000005     0.487238    64.104186
	   70 D(12,8,11,14)   =     62.224386     0.000001     0.029936    62.254322
	   71 D(12,8,11,15)   =    -57.869774     0.000001    -0.004318   -57.874092
	   72 D(12,8,11,16)   =   -177.934693     0.000001    -0.009602  -177.944295
	   73 D(13,8,11,14)   =    178.088132     0.000001    -0.012241   178.075891
	   74 D(13,8,11,15)   =     57.993972     0.000001    -0.046495    57.947476
	   75 D(13,8,11,16)   =    -62.070947     0.000001    -0.051779   -62.122726
	 ---------------------------------------------------------------------------
	Successfully symmetrized geometry.

  ==> Convergence Check <==

  Measures of convergence in internal coordinates in au.
  Criteria marked as inactive (o), active & met (*), and active & unmet ( ).
  --------------------------------------------------------------------------------------------- ~
   Step     Total Energy     Delta E     MAX Force     RMS Force      MAX Disp      RMS Disp    ~
  --------------------------------------------------------------------------------------------- ~
    Convergence Criteria    1.00e-06 *    3.00e-04 *             o    1.20e-03 *             o  ~
  --------------------------------------------------------------------------------------------- ~
      1    -212.39701085   -2.12e+02      1.74e-02      2.87e-03 o    8.53e-02      1.98e-02 o  ~
  ---------------------------------------------------------------------------------------------

	Writing optimization data to binary file.
	Structure for next step:
	Cartesian Geometry (in Angstrom)
	    H     2.3377820244  -1.2893463909   0.3096843298
	    N     2.4970472776  -0.3806042800  -0.0708663682
	    C     1.2882953625   0.4396626338  -0.0044131695
	    H     2.7791090444  -0.5152035890  -1.0182215560
	    C    -0.0369242274  -0.3281713221  -0.0345287755
	    H     1.3047894193   1.1374528360  -0.8346904127
	    H     1.3358861094   1.0346015309   0.9021395895
	    C    -1.2748204097   0.5597520441   0.0761848739
	    H    -0.0866302281  -0.9087970252  -0.9529992478
	    H    -0.0401160983  -1.0457354812   0.7838260349
	    C    -2.5852408554  -0.2228894142   0.0557035432
	    H    -1.2739791321   1.2790769803  -0.7384548063
	    H    -1.2178360597   1.1400665077   0.9936012509
	    H    -2.6886622705  -0.7882312732  -0.8651839944
	    H    -3.4416537201   0.4377425394   0.1358699453
	    H    -2.6327499881  -0.9263338853   0.8804000911
			--------------------------
			 OPTKING Finished Execution 
			--------------------------

    Structure for next step:
    Molecular point group: c1
    Full point group: C1

    Geometry (in Angstrom), charge = 0, multiplicity = 1:

    H            2.337650172185    -1.283906873525     0.313572453445
    N            2.496915425333    -0.375164762639    -0.066978244549
    C            1.288163510261     0.445102151172    -0.000525045906
    H            2.778977192184    -0.509764071597    -1.014333432426
    C           -0.037056079645    -0.322731804725    -0.030640651887
    H            1.304657567076     1.142892353389    -0.830802289046
    H            1.335754257091     1.040041048323     0.906027713141
    C           -1.274952261992     0.565191561518     0.080072997473
    H           -0.086762080364    -0.903357507831    -0.949111124231
    H           -0.040247950532    -1.040295963767     0.787714158490
    C           -2.585372707657    -0.217449896768     0.059591666783
    H           -1.274110984399     1.284516497744    -0.734566682666
    H           -1.217967911983     1.145506025094     0.997489374522
    H           -2.688794122719    -0.782791755762    -0.861295870809
    H           -3.441785572401     0.443182056760     0.139758068901
    H           -2.632881840363    -0.920894367868     0.884288214766

gradient() will perform analytic gradient computation.

*** tstart() called on cx1-28-12-4
*** at Sat Sep 10 16:27:17 2016


         ---------------------------------------------------------
                                   SCF
            by Justin Turney, Rob Parrish, and Andy Simmonett
                              RHF Reference
                        4 Threads,   2000 MiB Core
         ---------------------------------------------------------

  ==> Geometry <==

    Molecular point group: c1
    Full point group: C1

    Geometry (in Angstrom), charge = 0, multiplicity = 1:

       Center              X                  Y                   Z               Mass       
    ------------   -----------------  -----------------  -----------------  -----------------
           H          2.337650172185    -1.283906873525     0.313572453445     1.007825032070
           N          2.496915425333    -0.375164762639    -0.066978244549    14.003074004780
           C          1.288163510261     0.445102151172    -0.000525045906    12.000000000000
           H          2.778977192184    -0.509764071597    -1.014333432426     1.007825032070
           C         -0.037056079645    -0.322731804725    -0.030640651887    12.000000000000
           H          1.304657567076     1.142892353389    -0.830802289046     1.007825032070
           H          1.335754257091     1.040041048323     0.906027713141     1.007825032070
           C         -1.274952261992     0.565191561518     0.080072997473    12.000000000000
           H         -0.086762080364    -0.903357507831    -0.949111124231     1.007825032070
           H         -0.040247950532    -1.040295963767     0.787714158490     1.007825032070
           C         -2.585372707657    -0.217449896768     0.059591666783    12.000000000000
           H         -1.274110984399     1.284516497744    -0.734566682666     1.007825032070
           H         -1.217967911983     1.145506025094     0.997489374522     1.007825032070
           H         -2.688794122719    -0.782791755762    -0.861295870809     1.007825032070
           H         -3.441785572401     0.443182056760     0.139758068901     1.007825032070
           H         -2.632881840363    -0.920894367868     0.884288214766     1.007825032070

  Running in c1 symmetry.

  Rotational constants: A =      0.60789  B =      0.06461  C =      0.06145 [cm^-1]
  Rotational constants: A =  18224.13387  B =   1936.84934  C =   1842.31136 [MHz]
  Nuclear repulsion =  185.879822994890787

  Charge       = 0
  Multiplicity = 1
  Electrons    = 42
  Nalpha       = 21
  Nbeta        = 21

  ==> Algorithm <==

  SCF Algorithm Type is DF.
  DIIS enabled.
  MOM disabled.
  Fractional occupation disabled.
  Guess Type is READ.
  Energy threshold   = 1.00e-08
  Density threshold  = 1.00e-08
  Integral threshold = 0.00e+00

  ==> Primary Basis <==

  Basis Set: CC-PVTZ
    Number of shells: 116
    Number of basis function: 304
    Number of Cartesian functions: 340
    Spherical Harmonics?: true
    Max angular momentum: 3

  ==> Pre-Iterations <==

   -------------------------------------------------------
    Irrep   Nso     Nmo     Nalpha   Nbeta   Ndocc  Nsocc
   -------------------------------------------------------
     A        304     304       0       0       0       0
   -------------------------------------------------------
    Total     304     304      21      21      21       0
   -------------------------------------------------------

  ==> Integral Setup <==

  ==> DFJK: Density-Fitted J/K Matrices <==

    J tasked:                  Yes
    K tasked:                  Yes
    wK tasked:                  No
    OpenMP threads:              4
    Integrals threads:           4
    Memory (MB):              1430
    Algorithm:                Core
    Integral Cache:           NONE
    Schwarz Cutoff:          1E-12
    Fitting Condition:       1E-12

   => Auxiliary Basis Set <=

  Basis Set: 
    Number of shells: 235
    Number of basis function: 725
    Number of Cartesian functions: 865
    Spherical Harmonics?: true
    Max angular momentum: 4

  Minimum eigenvalue in the overlap matrix is 4.1119319544E-04.
  Using Symmetric Orthogonalization.
  SCF Guess: Reading in previously saved MOs, projecting if necessary.

  Using orbitals from previous SCF, no projection.
  Recomputing DOCC and SOCC from number of alpha and beta electrons from previous calculation.
              A 
    DOCC [    21 ]

  ==> Iterations <==

                           Total Energy        Delta E     RMS |[F,P]|

   @DF-RHF iter   0:  -212.38403498179514   -2.12384e+02   3.60799e-04 
   @DF-RHF iter   1:  -212.39780469956901   -1.37697e-02   5.79906e-05 
   @DF-RHF iter   2:  -212.39807534592978   -2.70646e-04   2.22969e-05 DIIS
   @DF-RHF iter   3:  -212.39811637008256   -4.10242e-05   1.11284e-05 DIIS
   @DF-RHF iter   4:  -212.39812441000856   -8.03993e-06   1.77599e-06 DIIS
   @DF-RHF iter   5:  -212.39812482873526   -4.18727e-07   4.72847e-07 DIIS
   @DF-RHF iter   6:  -212.39812485356589   -2.48306e-08   1.56626e-07 DIIS
   @DF-RHF iter   7:  -212.39812485592620   -2.36031e-09   3.73111e-08 DIIS
   @DF-RHF iter   8:  -212.39812485610196   -1.75760e-10   1.03153e-08 DIIS
   @DF-RHF iter   9:  -212.39812485611560   -1.36424e-11   3.07712e-09 DIIS

  ==> Post-Iterations <==

    Orbital Energies (a.u.)
    -----------------------

    Doubly Occupied:                                                      

       1A    -15.526518     2A    -11.239125     3A    -11.216742  
       4A    -11.213436     5A    -11.209454     6A     -1.176002  
       7A     -1.062694     8A     -0.960569     9A     -0.848887  
      10A     -0.797071    11A     -0.674220    12A     -0.629344  
      13A     -0.597675    14A     -0.586028    15A     -0.559116  
      16A     -0.522882    17A     -0.507531    18A     -0.483184  
      19A     -0.470804    20A     -0.466002    21A     -0.380197  

    Virtual:                                                              

      22A      0.140044    23A      0.152472    24A      0.165873  
      25A      0.173380    26A      0.197452    27A      0.213419  
      28A      0.227287    29A      0.230887    30A      0.244814  
      31A      0.262988    32A      0.273763    33A      0.307898  
      34A      0.334615    35A      0.346489    36A      0.380176  
      37A      0.403133    38A      0.412183    39A      0.452695  
      40A      0.465773    41A      0.467545    42A      0.495272  
      43A      0.510370    44A      0.545338    45A      0.549351  
      46A      0.569805    47A      0.574151    48A      0.595578  
      49A      0.624754    50A      0.626306    51A      0.639753  
      52A      0.643138    53A      0.653856    54A      0.666736  
      55A      0.670671    56A      0.680426    57A      0.682910  
      58A      0.700122    59A      0.709186    60A      0.730376  
      61A      0.743776    62A      0.759208    63A      0.792149  
      64A      0.825725    65A      0.834801    66A      0.888703  
      67A      0.912753    68A      0.928123    69A      0.938722  
      70A      0.967629    71A      0.977016    72A      1.003352  
      73A      1.026888    74A      1.075783    75A      1.082513  
      76A      1.102206    77A      1.135135    78A      1.172539  
      79A      1.179091    80A      1.202511    81A      1.223865  
      82A      1.229698    83A      1.252940    84A      1.266500  
      85A      1.273482    86A      1.298781    87A      1.308721  
      88A      1.323087    89A      1.338874    90A      1.345918  
      91A      1.365681    92A      1.393665    93A      1.398253  
      94A      1.409327    95A      1.410813    96A      1.422709  
      97A      1.473055    98A      1.475624    99A      1.498041  
     100A      1.502279   101A      1.522408   102A      1.539438  
     103A      1.557486   104A      1.572889   105A      1.587588  
     106A      1.602911   107A      1.613003   108A      1.623967  
     109A      1.647293   110A      1.686809   111A      1.692604  
     112A      1.733856   113A      1.751215   114A      1.788514  
     115A      1.799809   116A      1.811531   117A      1.830947  
     118A      1.853919   119A      1.876020   120A      1.905606  
     121A      1.969900   122A      1.976230   123A      2.025769  
     124A      2.097066   125A      2.130488   126A      2.516644  
     127A      2.581832   128A      2.601795   129A      2.637977  
     130A      2.661348   131A      2.679417   132A      2.712200  
     133A      2.741480   134A      2.766887   135A      2.790772  
     136A      2.806692   137A      2.819145   138A      2.856673  
     139A      2.867826   140A      2.910745   141A      2.912875  
     142A      2.939197   143A      2.961412   144A      2.971470  
     145A      3.012189   146A      3.024012   147A      3.041214  
     148A      3.073651   149A      3.110128   150A      3.115887  
     151A      3.144387   152A      3.165178   153A      3.177581  
     154A      3.207454   155A      3.228197   156A      3.266908  
     157A      3.282847   158A      3.308616   159A      3.331547  
     160A      3.340302   161A      3.362325   162A      3.374404  
     163A      3.388396   164A      3.402793   165A      3.413788  
     166A      3.420496   167A      3.435270   168A      3.447137  
     169A      3.454003   170A      3.469999   171A      3.500249  
     172A      3.505296   173A      3.534361   174A      3.552775  
     175A      3.555886   176A      3.572459   177A      3.583448  
     178A      3.601835   179A      3.610199   180A      3.643907  
     181A      3.664134   182A      3.690520   183A      3.713725  
     184A      3.736782   185A      3.745124   186A      3.781906  
     187A      3.785798   188A      3.804944   189A      3.844556  
     190A      3.847208   191A      3.868441   192A      3.880737  
     193A      3.891585   194A      3.892783   195A      3.902589  
     196A      3.935311   197A      3.959514   198A      3.982203  
     199A      3.991051   200A      4.021174   201A      4.059127  
     202A      4.073125   203A      4.078449   204A      4.124695  
     205A      4.140518   206A      4.144006   207A      4.154910  
     208A      4.175647   209A      4.189185   210A      4.201325  
     211A      4.211919   212A      4.228156   213A      4.252827  
     214A      4.259112   215A      4.286658   216A      4.294421  
     217A      4.315804   218A      4.338176   219A      4.344476  
     220A      4.381894   221A      4.396538   222A      4.407881  
     223A      4.418615   224A      4.426657   225A      4.448431  
     226A      4.463423   227A      4.481680   228A      4.495553  
     229A      4.502411   230A      4.539549   231A      4.558851  
     232A      4.589500   233A      4.592301   234A      4.604196  
     235A      4.625447   236A      4.644618   237A      4.652404  
     238A      4.665771   239A      4.699220   240A      4.699659  
     241A      4.743652   242A      4.746878   243A      4.777946  
     244A      4.795493   245A      4.841432   246A      4.874137  
     247A      4.917126   248A      5.009974   249A      5.024963  
     250A      5.032651   251A      5.064780   252A      5.091166  
     253A      5.120401   254A      5.164004   255A      5.194369  
     256A      5.224339   257A      5.244035   258A      5.249731  
     259A      5.306576   260A      5.327327   261A      5.346099  
     262A      5.363373   263A      5.381560   264A      5.386396  
     265A      5.414330   266A      5.477002   267A      5.485215  
     268A      5.503300   269A      5.552167   270A      5.610794  
     271A      5.629790   272A      5.679766   273A      5.703632  
     274A      5.738208   275A      5.751480   276A      5.767059  
     277A      5.805651   278A      5.836937   279A      5.844459  
     280A      5.883848   281A      5.895834   282A      5.923979  
     283A      5.943332   284A      5.972494   285A      6.035562  
     286A      6.054143   287A      6.068142   288A      6.143751  
     289A      6.248750   290A      6.276849   291A      6.322850  
     292A      6.324991   293A      6.365588   294A      6.398351  
     295A      6.447650   296A      6.501410   297A      6.571676  
     298A      6.747420   299A      7.363861   300A     12.892418  
     301A     13.265987   302A     13.498100   303A     14.104734  
     304A     14.239592  

    Final Occupation by Irrep:
              A 
    DOCC [    21 ]

  Energy converged.

  @DF-RHF Final Energy:  -212.39812485611560

   => Energetics <=

    Nuclear Repulsion Energy =            185.8798229948907874
    One-Electron Energy =                -654.3009355929217463
    Two-Electron Energy =                 256.0229877419154150
    DFT Exchange-Correlation Energy =       0.0000000000000000
    Empirical Dispersion Energy =           0.0000000000000000
    PCM Polarization Energy =               0.0000000000000000
    EFP Energy =                            0.0000000000000000
    Total Energy =                       -212.3981248561155439


  Saving occupied orbitals to File 180.

*** tstop() called on cx1-28-12-4 at Sat Sep 10 16:27:21 2016
Module time:
	user time   =      14.94 seconds =       0.25 minutes
	system time =       0.31 seconds =       0.01 minutes
	total time  =          4 seconds =       0.07 minutes
Total time:
	user time   =      58.33 seconds =       0.97 minutes
	system time =       1.34 seconds =       0.02 minutes
	total time  =         17 seconds =       0.28 minutes


Properties will be evaluated at   0.000000,   0.000000,   0.000000 Bohr

Properties computed using the SCF density matrix

  Nuclear Dipole Moment: (a.u.)
     X:    -3.4061      Y:    -0.3597      Z:    -0.3385

  Electronic Dipole Moment: (a.u.)
     X:     3.0051      Y:     0.1265      Z:     0.0488

  Dipole Moment: (a.u.)
     X:    -0.4010      Y:    -0.2332      Z:    -0.2897     Total:     0.5469

  Dipole Moment: (Debye)
     X:    -1.0191      Y:    -0.5928      Z:    -0.7362     Total:     1.3900


*** tstart() called on cx1-28-12-4
*** at Sat Sep 10 16:27:21 2016


         ------------------------------------------------------------
                                   SCF GRAD                          
                          Rob Parrish, Justin Turney,                
                       Andy Simmonett, and Alex Sokolov              
         ------------------------------------------------------------

  ==> Geometry <==

    Molecular point group: c1
    Full point group: C1

    Geometry (in Angstrom), charge = 0, multiplicity = 1:

       Center              X                  Y                   Z               Mass       
    ------------   -----------------  -----------------  -----------------  -----------------
           H          2.337650172185    -1.283906873525     0.313572453445     1.007825032070
           N          2.496915425333    -0.375164762639    -0.066978244549    14.003074004780
           C          1.288163510261     0.445102151172    -0.000525045906    12.000000000000
           H          2.778977192184    -0.509764071597    -1.014333432426     1.007825032070
           C         -0.037056079645    -0.322731804725    -0.030640651887    12.000000000000
           H          1.304657567076     1.142892353389    -0.830802289046     1.007825032070
           H          1.335754257091     1.040041048323     0.906027713141     1.007825032070
           C         -1.274952261992     0.565191561518     0.080072997473    12.000000000000
           H         -0.086762080364    -0.903357507831    -0.949111124231     1.007825032070
           H         -0.040247950532    -1.040295963767     0.787714158490     1.007825032070
           C         -2.585372707657    -0.217449896768     0.059591666783    12.000000000000
           H         -1.274110984399     1.284516497744    -0.734566682666     1.007825032070
           H         -1.217967911983     1.145506025094     0.997489374522     1.007825032070
           H         -2.688794122719    -0.782791755762    -0.861295870809     1.007825032070
           H         -3.441785572401     0.443182056760     0.139758068901     1.007825032070
           H         -2.632881840363    -0.920894367868     0.884288214766     1.007825032070

  Nuclear repulsion =  185.879822994890787

  ==> Basis Set <==

  Basis Set: CC-PVTZ
    Number of shells: 116
    Number of basis function: 304
    Number of Cartesian functions: 340
    Spherical Harmonics?: true
    Max angular momentum: 3

  ==> DFJKGrad: Density-Fitted SCF Gradients <==

    Gradient:                    1
    J tasked:                  Yes
    K tasked:                  Yes
    wK tasked:                  No
    OpenMP threads:              4
    Integrals threads:           4
    Memory (MB):              1430
    Schwarz Cutoff:          0E+00
    Fitting Condition:       1E-12

   => Auxiliary Basis Set <=

  Basis Set: 
    Number of shells: 235
    Number of basis function: 725
    Number of Cartesian functions: 865
    Spherical Harmonics?: true
    Max angular momentum: 4


  -Total Gradient:
     Atom            X                  Y                   Z
    ------   -----------------  -----------------  -----------------
       1       -0.000611501008    -0.000429426547    -0.002507209868
       2        0.004456374596    -0.000376754143     0.004506359613
       3        0.001472005181    -0.000095046330    -0.001345730288
       4        0.000224166280     0.000738752583    -0.000069952594
       5       -0.002966077878     0.002006321777     0.000155051289
       6       -0.001574302729    -0.001055601405    -0.001029520009
       7        0.001502238347    -0.000267143096     0.000018915693
       8       -0.001490701525    -0.001524782562    -0.000254393865
       9        0.000163432958     0.000211991933    -0.000029617827
      10        0.000232679215     0.000369897366     0.000135389551
      11       -0.000820249486     0.000573748589     0.000314784591
      12        0.000075000452    -0.000042150819    -0.000026811762
      13        0.000056270038     0.000131349096     0.000355980691
      14        0.000003563105    -0.000218525313    -0.000331139143
      15       -0.000731709545    -0.000000544443     0.000060607762
      16        0.000008812000    -0.000022086685     0.000047286168


*** tstop() called on cx1-28-12-4 at Sat Sep 10 16:27:27 2016
Module time:
	user time   =      19.82 seconds =       0.33 minutes
	system time =       0.44 seconds =       0.01 minutes
	total time  =          6 seconds =       0.10 minutes
Total time:
	user time   =      78.21 seconds =       1.30 minutes
	system time =       1.78 seconds =       0.03 minutes
	total time  =         23 seconds =       0.38 minutes

			-----------------------------------------
			 OPTKING 2.0: for geometry optimizations 
			  - R.A. King,  Bethel University        
			-----------------------------------------

	Previous internal coordinate definitions found.
	---Fragment 1 Geometry and Gradient---
	 H           4.4175186199       -2.4262323711        0.5925660598
	 N           4.7184863309       -0.7089586561       -0.1265705391
	 C           2.4342762488        0.8411211669       -0.0009921930
	 H           5.2515058228       -0.9633144877       -1.9168123947
	 C          -0.0700258421       -0.6098747253       -0.0579024406
	 H           2.4654454990        2.1597535473       -1.5699887969
	 H           2.5242097267        1.9653927483        1.7121442466
	 C          -2.4093106077        1.0680572639        0.1513160359
	 H          -0.1639565706       -1.7070982899       -1.7935600945
	 H          -0.0760576039       -1.9658744687        1.4885640305
	 C          -4.8856463689       -0.4109207525        0.1126119300
	 H          -2.4077208234        2.4273843939       -1.3881298566
	 H          -2.3016257923        2.1646926710        1.8849817383
	 H          -5.0810845197       -1.4792620375       -1.6276133152
	 H          -6.5040321400        0.8374927143        0.2641044751
	 H          -4.9754256185       -1.7402381526        1.6710625484
	            -0.0006115010       -0.0004294265       -0.0025072099
	             0.0044563746       -0.0003767541        0.0045063596
	             0.0014720052       -0.0000950463       -0.0013457303
	             0.0002241663        0.0007387526       -0.0000699526
	            -0.0029660779        0.0020063218        0.0001550513
	            -0.0015743027       -0.0010556014       -0.0010295200
	             0.0015022383       -0.0002671431        0.0000189157
	            -0.0014907015       -0.0015247826       -0.0002543939
	             0.0001634330        0.0002119919       -0.0000296178
	             0.0002326792        0.0003698974        0.0001353896
	            -0.0008202495        0.0005737486        0.0003147846
	             0.0000750005       -0.0000421508       -0.0000268118
	             0.0000562700        0.0001313491        0.0003559807
	             0.0000035631       -0.0002185253       -0.0003311391
	            -0.0007317095       -0.0000005444        0.0000606078
	             0.0000088120       -0.0000220867        0.0000472862

	---Fragment 1 Intrafragment Coordinates---
	 - Coordinate -           - BOHR/RAD -       - ANG/DEG -
	 R(1,2)           =         1.885940	       0.997996
	 R(2,3)           =         2.763355	       1.462305
	 R(2,4)           =         1.885145	       0.997576
	 R(3,5)           =         2.894850	       1.531889
	 R(3,6)           =         2.049759	       1.084686
	 R(3,7)           =         2.051076	       1.085382
	 R(5,8)           =         2.886431	       1.527433
	 R(5,9)           =         2.055536	       1.087743
	 R(5,10)          =         2.056777	       1.088399
	 R(8,11)          =         2.884634	       1.526483
	 R(8,12)          =         2.053696	       1.086769
	 R(8,13)          =         2.054216	       1.087044
	 R(11,14)         =         2.051325	       1.085514
	 R(11,15)         =         2.049551	       1.084576
	 R(11,16)         =         2.050345	       1.084996
	 B(1,2,3)         =         1.940706	     111.194290
	 B(1,2,4)         =         1.859157	     106.521856
	 B(2,3,5)         =         2.018651	     115.660186
	 B(2,3,6)         =         1.889678	     108.270555
	 B(2,3,7)         =         1.885133	     108.010144
	 B(3,2,4)         =         1.931105	     110.644163
	 B(3,5,8)         =         1.991391	     114.098315
	 B(3,5,9)         =         1.900417	     108.885892
	 B(3,5,10)        =         1.894638	     108.554750
	 B(5,3,6)         =         1.897112	     108.696528
	 B(5,3,7)         =         1.906143	     109.213947
	 B(5,8,11)        =         1.978727	     113.372723
	 B(5,8,12)        =         1.906898	     109.257189
	 B(5,8,13)        =         1.906064	     109.209448
	 B(6,3,7)         =         1.860895	     106.621431
	 B(8,5,9)         =         1.911840	     109.540336
	 B(8,5,10)        =         1.903264	     109.049017
	 B(8,11,14)       =         1.939271	     111.112050
	 B(8,11,15)       =         1.943970	     111.381278
	 B(8,11,16)       =         1.938850	     111.087929
	 B(9,5,10)        =         1.857538	     106.429069
	 B(11,8,12)       =         1.907063	     109.266685
	 B(11,8,13)       =         1.907135	     109.270778
	 B(12,8,13)       =         1.853796	     106.214678
	 B(14,11,15)      =         1.880425	     107.740402
	 B(14,11,16)      =         1.878623	     107.637159
	 B(15,11,16)      =         1.879848	     107.707340
	 D(1,2,3,5)       =        -0.484919	     -27.783787
	*D(1,2,3,6)       =        -2.617994	    -150.000002
	 D(1,2,3,7)       =         1.656439	      94.906945
	 D(2,3,5,8)       =         3.113172	     178.371611
	 D(2,3,5,9)       =        -1.028461	     -58.926447
	 D(2,3,5,10)      =         0.986983	      56.549965
	 D(3,5,8,11)      =        -3.133547	    -179.538996
	 D(3,5,8,12)      =         1.018178	      58.337295
	 D(3,5,8,13)      =        -1.002601	     -57.444834
	 D(4,2,3,5)       =         1.577472	      90.382492
	 D(4,2,3,6)       =        -0.555603	     -31.833722
	 D(4,2,3,7)       =        -2.564356	    -146.926775
	 D(5,8,11,14)     =        -1.044826	     -59.864101
	 D(5,8,11,15)     =        -3.141462	    -179.992516
	 D(5,8,11,16)     =         1.046103	      59.937282
	 D(6,3,5,8)       =        -1.040899	     -59.639144
	 D(6,3,5,9)       =         1.100653	      63.062798
	 D(6,3,5,10)      =         3.116097	     178.539210
	 D(7,3,5,8)       =         0.982977	      56.320429
	 D(7,3,5,9)       =         3.124530	     179.022372
	 D(7,3,5,10)      =        -1.143212	     -65.501217
	 D(9,5,8,11)      =         1.014329	      58.116744
	 D(9,5,8,12)      =        -1.117132	     -64.006965
	 D(9,5,8,13)      =        -3.137912	    -179.789094
	 D(10,5,8,11)     =        -1.012116	     -57.989976
	 D(10,5,8,12)     =         3.139608	     179.886315
	 D(10,5,8,13)     =         1.118829	      64.104186
	 D(12,8,11,14)    =         1.086543	      62.254322
	 D(12,8,11,15)    =        -1.010093	     -57.874092
	 D(12,8,11,16)    =        -3.105714	    -177.944295
	 D(13,8,11,14)    =         3.108011	     178.075891
	 D(13,8,11,15)    =         1.011374	      57.947476
	 D(13,8,11,16)    =        -1.084246	     -62.122726

	Current energy   :      -212.3981248561

	Energy change for the previous step:
		Projected    :        -0.0033443196
		Actual       :        -0.0011140083

	Performing BFGS update.
	Previous computed or guess Hessian on step 1.
	Steps to be used in Hessian update: 1
	Taking RFO optimization step.
	Going to follow RFO solution 1.
	Using RFO vector 1.
	Norm of target step-size    0.05644
	Projected energy change by RFO approximation:        -0.0005970936

	Back-transformation to cartesian coordinates...
	Could not converge backtransformation.
	Using first guess instead.

	Back-transformation to cartesian coordinates to adjust frozen coordinates...
	Successfully converged to displaced geometry.

	--- Internal Coordinate Step in ANG or DEG, aJ/ANG or AJ/DEG ---
	 ---------------------------------------------------------------------------
	   Coordinate                Previous        Force       Change         New 
	   ----------                --------       ------       ------       ------
	    1 R(1,2)          =      0.997996     0.003851     0.000204     0.998200
	    2 R(2,3)          =      1.462305    -0.027300    -0.004269     1.458036
	    3 R(2,4)          =      0.997576    -0.000248    -0.000186     0.997389
	    4 R(3,5)          =      1.531889    -0.032776    -0.005159     1.526730
	    5 R(3,6)          =      1.084686    -0.000701    -0.000121     1.084565
	    6 R(3,7)          =      1.085382     0.000534    -0.000199     1.085184
	    7 R(5,8)          =      1.527433    -0.014173    -0.002424     1.525009
	    8 R(5,9)          =      1.087743     0.000788     0.000022     1.087765
	    9 R(5,10)         =      1.088399     0.001176     0.000159     1.088558
	   10 R(8,11)         =      1.526483    -0.009474    -0.001684     1.524799
	   11 R(8,12)         =      1.086769     0.000064     0.000011     1.086780
	   12 R(8,13)         =      1.087044    -0.003077    -0.000554     1.086490
	   13 R(11,14)        =      1.085514    -0.003249    -0.000569     1.084946
	   14 R(11,15)        =      1.084576    -0.004794    -0.000779     1.083797
	   15 R(11,16)        =      1.084996    -0.000411    -0.000057     1.084938
	   16 B(1,2,3)        =    111.194290    -0.000007    -0.156252   111.038037
	   17 B(1,2,4)        =    106.521856    -0.000007    -0.304862   106.216994
	   18 B(2,3,5)        =    115.660186    -0.000351    -0.914946   114.745240
	   19 B(2,3,6)        =    108.270555     0.000046    -0.145239   108.125316
	   20 B(2,3,7)        =    108.010144     0.000210     0.853448   108.863592
	   21 B(3,2,4)        =    110.644163     0.000032    -0.061320   110.582843
	   22 B(3,5,8)        =    114.098315    -0.000287    -0.773321   113.324994
	   23 B(3,5,9)        =    108.885892     0.000095     0.203859   109.089751
	   24 B(3,5,10)       =    108.554750     0.000102     0.317546   108.872296
	   25 B(5,3,6)        =    108.696528     0.000130    -0.036778   108.659750
	   26 B(5,3,7)        =    109.213947     0.000031     0.035079   109.249026
	   27 B(5,8,11)       =    113.372723    -0.000117    -0.322921   113.049802
	   28 B(5,8,12)       =    109.257189     0.000039     0.099013   109.356202
	   29 B(5,8,13)       =    109.209448     0.000038     0.087483   109.296931
	   30 B(6,3,7)        =    106.621431    -0.000047     0.291018   106.912449
	   31 B(8,5,9)        =    109.540336     0.000077     0.076228   109.616565
	   32 B(8,5,10)       =    109.049017     0.000082     0.204874   109.253891
	   33 B(8,11,14)      =    111.112050     0.000012     0.048340   111.160390
	   34 B(8,11,15)      =    111.381278    -0.000052    -0.209755   111.171523
	   35 B(8,11,16)      =    111.087929     0.000011     0.057031   111.144960
	   36 B(9,5,10)       =    106.429069    -0.000055     0.021527   106.450596
	   37 B(11,8,12)      =    109.266685     0.000032     0.055630   109.322315
	   38 B(11,8,13)      =    109.270778     0.000034     0.068330   109.339108
	   39 B(12,8,13)      =    106.214678    -0.000020     0.034776   106.249454
	   40 B(14,11,15)     =    107.740402     0.000015     0.021287   107.761689
	   41 B(14,11,16)     =    107.637159    -0.000003     0.041751   107.678909
	   42 B(15,11,16)     =    107.707340     0.000018     0.048100   107.755440
	   43 D(1,2,3,5)      =    -27.783787    -0.000009    -0.779068   -28.562855
	   44 *D(1,2,3,6)     =   -150.000002    -0.000000     0.000000  -150.000002
	   45 D(1,2,3,7)      =     94.906945    -0.000018    -0.712200    94.194745
	   46 D(2,3,5,8)      =    178.371611     0.000012     0.757596   179.129208
	   47 D(2,3,5,9)      =    -58.926447     0.000006     0.474445   -58.452002
	   48 D(2,3,5,10)     =     56.549965     0.000015     0.783061    57.333026
	   49 D(3,5,8,11)     =   -179.538996    -0.000001     0.163281  -179.375716
	   50 D(3,5,8,12)     =     58.337295     0.000001     0.240313    58.577608
	   51 D(3,5,8,13)     =    -57.444834    -0.000003     0.094565   -57.350269
	   52 D(4,2,3,5)      =     90.382492    -0.000007    -1.295649    89.086843
	   53 D(4,2,3,6)      =    -31.833722     0.000002    -0.516581   -32.350304
	   54 D(4,2,3,7)      =   -146.926775    -0.000016    -1.228782  -148.155557
	   55 D(5,8,11,14)    =    -59.864101    -0.000001    -0.110062   -59.974162
	   56 D(5,8,11,15)    =   -179.992516     0.000000    -0.028560  -180.021075
	   57 D(5,8,11,16)    =     59.937282     0.000001     0.012990    59.950272
	   58 D(6,3,5,8)      =    -59.639144    -0.000007    -0.086881   -59.726025
	   59 D(6,3,5,9)      =     63.062798    -0.000014    -0.370032    62.692766
	   60 D(6,3,5,10)     =    178.539210    -0.000004    -0.061417   178.477793
	   61 D(7,3,5,8)      =     56.320429     0.000000     0.258934    56.579363
	   62 D(7,3,5,9)      =    179.022372    -0.000006    -0.024218   178.998154
	   63 D(7,3,5,10)     =    -65.501217     0.000003     0.284398   -65.216819
	   64 D(9,5,8,11)     =     58.116744     0.000003     0.381764    58.498508
	   65 D(9,5,8,12)     =    -64.006965     0.000006     0.458796   -63.548169
	   66 D(9,5,8,13)     =   -179.789094     0.000001     0.313048  -179.476046
	   67 D(10,5,8,11)    =    -57.989976    -0.000002     0.196848   -57.793128
	   68 D(10,5,8,12)    =    179.886315     0.000000     0.273880   180.160196
	   69 D(10,5,8,13)    =     64.104186    -0.000004     0.128133    64.232318
	   70 D(12,8,11,14)   =     62.254322    -0.000003    -0.162817    62.091506
	   71 D(12,8,11,15)   =    -57.874092    -0.000001    -0.081315   -57.955407
	   72 D(12,8,11,16)   =   -177.944295    -0.000000    -0.039765  -177.984060
	   73 D(13,8,11,14)   =    178.075891     0.000000    -0.051851   178.024040
	   74 D(13,8,11,15)   =     57.947476     0.000002     0.029651    57.977127
	   75 D(13,8,11,16)   =    -62.122726     0.000003     0.071200   -62.051526
	 ---------------------------------------------------------------------------
	Successfully symmetrized geometry.

  ==> Convergence Check <==

  Measures of convergence in internal coordinates in au.
  Criteria marked as inactive (o), active & met (*), and active & unmet ( ).
  ---------------------------------------------------------------------------------------------
   Step     Total Energy     Delta E     MAX Force     RMS Force      MAX Disp      RMS Disp   
  ---------------------------------------------------------------------------------------------
    Convergence Criteria    1.00e-06 *    3.00e-04 *             o    1.20e-03 *             o
  ---------------------------------------------------------------------------------------------
      2    -212.39812486   -1.11e-03      4.61e-03      1.12e-03 o    2.26e-02      6.51e-03 o  ~
  ---------------------------------------------------------------------------------------------

	Writing optimization data to binary file.
	Structure for next step:
	Cartesian Geometry (in Angstrom)
	    H     2.3182526305  -1.2804941857   0.3115312308
	    N     2.4809251477  -0.3733825070  -0.0719920718
	    C     1.2811456112   0.4512997314   0.0073585965
	    H     2.7458550541  -0.5163971001  -1.0228573093
	    C    -0.0322696628  -0.3262717661  -0.0276699830
	    H     1.2945823322   1.1473936094  -0.8242384483
	    H     1.3220509870   1.0437307581   0.9156403985
	    C    -1.2648776690   0.5653990336   0.0784155019
	    H    -0.0784743970  -0.9053005749  -0.9473564451
	    H    -0.0378029036  -1.0450939080   0.7897786680
	    C    -2.5724714924  -0.2186893263   0.0580360025
	    H    -1.2624923716   1.2819560895  -0.7386710361
	    H    -1.2088967870   1.1479450974   0.9938209389
	    H    -2.6749610011  -0.7854949510  -0.8613844958
	    H    -3.4270931296   0.4433253756   0.1353264485
	    H    -2.6212857365  -0.9198506866   0.8845233096
			--------------------------
			 OPTKING Finished Execution 
			--------------------------

    Structure for next step:
    Molecular point group: c1
    Full point group: C1

    Geometry (in Angstrom), charge = 0, multiplicity = 1:

    H            2.317975877751    -1.281055560553     0.311273505249
    N            2.480648394921    -0.373943881865    -0.072249797368
    C            1.280868858483     0.450738356577     0.007100871004
    H            2.745578301306    -0.516958474959    -1.023115034817
    C           -0.032546415520    -0.326833140935    -0.027927708508
    H            1.294305579429     1.146832234577    -0.824496173867
    H            1.321774234205     1.043169383267     0.915382672976
    C           -1.265154421713     0.564837658732     0.078157776343
    H           -0.078751149736    -0.905861949784    -0.947614170600
    H           -0.038079656367    -1.045655282834     0.789520942490
    C           -2.572748245143    -0.219250701152     0.057778276971
    H           -1.262769124400     1.281394714629    -0.738928761632
    H           -1.209173539755     1.147383722541     0.993563213371
    H           -2.675237753813    -0.786056325809    -0.861642221342
    H           -3.427369882372     0.442764000776     0.135068722961
    H           -2.621562489271    -0.920412061412     0.884265584084

gradient() will perform analytic gradient computation.

*** tstart() called on cx1-28-12-4
*** at Sat Sep 10 16:27:27 2016


         ---------------------------------------------------------
                                   SCF
            by Justin Turney, Rob Parrish, and Andy Simmonett
                              RHF Reference
                        4 Threads,   2000 MiB Core
         ---------------------------------------------------------

  ==> Geometry <==

    Molecular point group: c1
    Full point group: C1

    Geometry (in Angstrom), charge = 0, multiplicity = 1:

       Center              X                  Y                   Z               Mass       
    ------------   -----------------  -----------------  -----------------  -----------------
           H          2.317975877751    -1.281055560553     0.311273505249     1.007825032070
           N          2.480648394921    -0.373943881865    -0.072249797368    14.003074004780
           C          1.280868858483     0.450738356577     0.007100871004    12.000000000000
           H          2.745578301306    -0.516958474959    -1.023115034817     1.007825032070
           C         -0.032546415520    -0.326833140935    -0.027927708508    12.000000000000
           H          1.294305579429     1.146832234577    -0.824496173867     1.007825032070
           H          1.321774234205     1.043169383267     0.915382672976     1.007825032070
           C         -1.265154421713     0.564837658732     0.078157776343    12.000000000000
           H         -0.078751149736    -0.905861949784    -0.947614170600     1.007825032070
           H         -0.038079656367    -1.045655282834     0.789520942490     1.007825032070
           C         -2.572748245143    -0.219250701152     0.057778276971    12.000000000000
           H         -1.262769124400     1.281394714629    -0.738928761632     1.007825032070
           H         -1.209173539755     1.147383722541     0.993563213371     1.007825032070
           H         -2.675237753813    -0.786056325809    -0.861642221342     1.007825032070
           H         -3.427369882372     0.442764000776     0.135068722961     1.007825032070
           H         -2.621562489271    -0.920412061412     0.884265584084     1.007825032070

  Running in c1 symmetry.

  Rotational constants: A =      0.60442  B =      0.06538  C =      0.06212 [cm^-1]
  Rotational constants: A =  18119.97947  B =   1959.93357  C =   1862.31832 [MHz]
  Nuclear repulsion =  186.433188546104986

  Charge       = 0
  Multiplicity = 1
  Electrons    = 42
  Nalpha       = 21
  Nbeta        = 21

  ==> Algorithm <==

  SCF Algorithm Type is DF.
  DIIS enabled.
  MOM disabled.
  Fractional occupation disabled.
  Guess Type is READ.
  Energy threshold   = 1.00e-08
  Density threshold  = 1.00e-08
  Integral threshold = 0.00e+00

  ==> Primary Basis <==

  Basis Set: CC-PVTZ
    Number of shells: 116
    Number of basis function: 304
    Number of Cartesian functions: 340
    Spherical Harmonics?: true
    Max angular momentum: 3

  ==> Pre-Iterations <==

   -------------------------------------------------------
    Irrep   Nso     Nmo     Nalpha   Nbeta   Ndocc  Nsocc
   -------------------------------------------------------
     A        304     304       0       0       0       0
   -------------------------------------------------------
    Total     304     304      21      21      21       0
   -------------------------------------------------------

  ==> Integral Setup <==

  ==> DFJK: Density-Fitted J/K Matrices <==

    J tasked:                  Yes
    K tasked:                  Yes
    wK tasked:                  No
    OpenMP threads:              4
    Integrals threads:           4
    Memory (MB):              1430
    Algorithm:                Core
    Integral Cache:           NONE
    Schwarz Cutoff:          1E-12
    Fitting Condition:       1E-12

   => Auxiliary Basis Set <=

  Basis Set: 
    Number of shells: 235
    Number of basis function: 725
    Number of Cartesian functions: 865
    Spherical Harmonics?: true
    Max angular momentum: 4

  Minimum eigenvalue in the overlap matrix is 4.0167342728E-04.
  Using Symmetric Orthogonalization.
  SCF Guess: Reading in previously saved MOs, projecting if necessary.

  Using orbitals from previous SCF, no projection.
  Recomputing DOCC and SOCC from number of alpha and beta electrons from previous calculation.
              A 
    DOCC [    21 ]

  ==> Iterations <==

                           Total Energy        Delta E     RMS |[F,P]|

   @DF-RHF iter   0:  -212.40337232076530   -2.12403e+02   8.95005e-05 
   @DF-RHF iter   1:  -212.39828926494630    5.08306e-03   1.33647e-05 
   @DF-RHF iter   2:  -212.39830257135526   -1.33064e-05   5.19675e-06 DIIS
   @DF-RHF iter   3:  -212.39830487493902   -2.30358e-06   2.57604e-06 DIIS
   @DF-RHF iter   4:  -212.39830543628852   -5.61350e-07   5.25209e-07 DIIS
   @DF-RHF iter   5:  -212.39830547270907   -3.64205e-08   1.50117e-07 DIIS
   @DF-RHF iter   6:  -212.39830547531727   -2.60820e-09   4.97513e-08 DIIS
   @DF-RHF iter   7:  -212.39830547556204   -2.44768e-10   1.32909e-08 DIIS
   @DF-RHF iter   8:  -212.39830547558523   -2.31921e-11   3.19532e-09 DIIS

  ==> Post-Iterations <==

    Orbital Energies (a.u.)
    -----------------------

    Doubly Occupied:                                                      

       1A    -15.525847     2A    -11.238281     3A    -11.215926  
       4A    -11.212506     5A    -11.208782     6A     -1.177853  
       7A     -1.063617     8A     -0.960781     9A     -0.848289  
      10A     -0.797608    11A     -0.675242    12A     -0.629391  
      13A     -0.598259    14A     -0.587390    15A     -0.558741  
      16A     -0.523785    17A     -0.506749    18A     -0.482902  
      19A     -0.472298    20A     -0.466428    21A     -0.379696  

    Virtual:                                                              

      22A      0.139961    23A      0.152607    24A      0.165674  
      25A      0.172968    26A      0.197958    27A      0.213623  
      28A      0.227176    29A      0.230755    30A      0.245415  
      31A      0.263406    32A      0.274356    33A      0.308129  
      34A      0.334781    35A      0.346272    36A      0.379454  
[...]
	total time  =         52 seconds =       0.87 minutes

			-----------------------------------------
			 OPTKING 2.0: for geometry optimizations 
			  - R.A. King,  Bethel University        
			-----------------------------------------

	Previous internal coordinate definitions found.
	---Fragment 1 Geometry and Gradient---
	 H           4.3852091841       -2.4194313839        0.5854160375
	 N           4.6887852031       -0.7047585381       -0.1418784176
	 C           2.4208212770        0.8520730818        0.0148365488
	 H           5.1818388305       -0.9793564657       -1.9407618369
	 C          -0.0593780605       -0.6193966859       -0.0498329786
	 H           2.4413333453        2.1657537427       -1.5582634122
	 H           2.4976844089        1.9719761964        1.7310155665
	 C          -2.3906402298        1.0653068298        0.1497119782
	 H          -0.1460970042       -1.7145294709       -1.7871872763
	 H          -0.0709735034       -1.9781614073        1.4944513287
	 C          -4.8646852027       -0.4125760462        0.1091661774
	 H          -2.3834741223        2.4191918308       -1.3943625907
	 H          -2.2856980870        2.1667342881        1.8791728438
	 H          -5.0572344483       -1.4844214018       -1.6278976998
	 H          -6.4796872271        0.8390355480        0.2527960417
	 H          -4.9599081776       -1.7370210950        1.6712080730
	            -0.0009055916       -0.0010608740       -0.0028357554
	             0.0007774826        0.0008702426        0.0031695179
	             0.0015448990        0.0020760963        0.0012718069
	            -0.0000013010        0.0000024182        0.0000028474
	             0.0000432433        0.0000105056       -0.0000078509
	            -0.0014165752       -0.0018964301       -0.0016126296
	            -0.0000090478        0.0000083113        0.0000065325
	             0.0000223577       -0.0000113515       -0.0000029515
	             0.0000018155        0.0000039962        0.0000031601
	            -0.0000092002       -0.0000094647       -0.0000082856
	            -0.0000326002        0.0000075539        0.0000177051
	             0.0000041779       -0.0000040312        0.0000005699
	            -0.0000094644        0.0000053609       -0.0000068604
	             0.0000063228        0.0000083340        0.0000013864
	            -0.0000157622       -0.0000088123        0.0000034443
	            -0.0000007563       -0.0000018554       -0.0000026372

	---Fragment 1 Intrafragment Coordinates---
	 - Coordinate -           - BOHR/RAD -       - ANG/DEG -
	 R(1,2)           =         1.887119	       0.998620
	 R(2,3)           =         2.755348	       1.458068
	 R(2,4)           =         1.885335	       0.997676
	 R(3,5)           =         2.884579	       1.526453
	 R(3,6)           =         2.049590	       1.084597
	 R(3,7)           =         2.050698	       1.085183
	 R(5,8)           =         2.883197	       1.525722
	 R(5,9)           =         2.055538	       1.087744
	 R(5,10)          =         2.056986	       1.088510
	 R(8,11)          =         2.882131	       1.525158
	 R(8,12)          =         2.053588	       1.086712
	 R(8,13)          =         2.053093	       1.086450
	 R(11,14)         =         2.050200	       1.084919
	 R(11,15)         =         2.048266	       1.083896
	 R(11,16)         =         2.050170	       1.084903
	 B(1,2,3)         =         1.938054	     111.042311
	 B(1,2,4)         =         1.851943	     106.108502
	 B(2,3,5)         =         2.002283	     114.722392
	 B(2,3,6)         =         1.886261	     108.074775
	 B(2,3,7)         =         1.902136	     108.984372
	 B(3,2,4)         =         1.930316	     110.598959
	 B(3,5,8)         =         1.977513	     113.303176
	 B(3,5,9)         =         1.903921	     109.086666
	 B(3,5,10)        =         1.901785	     108.964274
	 B(5,3,6)         =         1.894791	     108.563510
	 B(5,3,7)         =         1.906642	     109.242533
	 B(5,8,11)        =         1.975216	     113.171513
	 B(5,8,12)        =         1.907490	     109.291124
	 B(5,8,13)        =         1.907567	     109.295545
	 B(6,3,7)         =         1.867026	     106.972700
	 B(8,5,9)         =         1.913137	     109.614663
	 B(8,5,10)        =         1.906528	     109.236029
	 B(8,11,14)       =         1.939726	     111.138116
	 B(8,11,15)       =         1.941756	     111.254401
	 B(8,11,16)       =         1.939506	     111.125528
	 B(9,5,10)        =         1.857064	     106.401923
	 B(11,8,12)       =         1.907607	     109.297830
	 B(11,8,13)       =         1.907965	     109.318340
	 B(12,8,13)       =         1.854077	     106.230773
	 B(14,11,15)      =         1.880549	     107.747534
	 B(14,11,16)      =         1.879096	     107.664258
	 B(15,11,16)      =         1.880426	     107.740475
	 D(1,2,3,5)       =        -0.501591	     -28.739045
	*D(1,2,3,6)       =        -2.617994	    -150.000002
	 D(1,2,3,7)       =         1.642125	      94.086833
	 D(2,3,5,8)       =         3.129476	     179.305771
	 D(2,3,5,9)       =        -1.017441	     -58.295047
	 D(2,3,5,10)      =         1.003230	      57.480866
	 D(3,5,8,11)      =        -3.132262	    -179.465420
	 D(3,5,8,12)      =         1.020730	      58.483496
	 D(3,5,8,13)      =        -1.001554	     -57.384810
	 D(4,2,3,5)       =         1.549659	      88.788915
	 D(4,2,3,6)       =        -0.566744	     -32.472043
	 D(4,2,3,7)       =        -2.589810	    -148.385207
	 D(5,8,11,14)     =        -1.045388	     -59.896321
	 D(5,8,11,15)     =        -3.140999	    -179.966005
	 D(5,8,11,16)     =         1.046879	      59.981722
	 D(6,3,5,8)       =        -1.041983	     -59.701230
	 D(6,3,5,9)       =         1.094286	      62.697951
	 D(6,3,5,10)      =         3.114957	     178.473864
	 D(7,3,5,8)       =         0.988187	      56.618947
	 D(7,3,5,9)       =         3.124456	     179.018129
	 D(7,3,5,10)      =        -1.138059	     -65.205958
	 D(9,5,8,11)      =         1.019783	      58.429258
	 D(9,5,8,12)      =        -1.110410	     -63.621826
	 D(9,5,8,13)      =        -3.132694	    -179.490132
	 D(10,5,8,11)     =        -1.008671	     -57.792592
	 D(10,5,8,12)     =        -3.138864	    -179.843676
	 D(10,5,8,13)     =         1.122038	      64.288018
	 D(12,8,11,14)    =         1.084740	      62.151012
	 D(12,8,11,15)    =        -1.010872	     -57.918671
	 D(12,8,11,16)    =        -3.106179	    -177.970945
	 D(13,8,11,14)    =         3.107311	     178.035812
	 D(13,8,11,15)    =         1.011700	      57.966129
	 D(13,8,11,16)    =        -1.083608	     -62.086145

	Current energy   :      -212.3983087597

	Energy change for the previous step:
		Projected    :         0.0000045185
		Actual       :        -0.0000003007

	Performing BFGS update.
	Previous computed or guess Hessian on step 1.
	Steps to be used in Hessian update: 4 3
	Taking RFO optimization step.
	Going to follow RFO solution 1.
	Using RFO vector 1.
	Norm of target step-size    0.00550
	Projected energy change by RFO approximation:        -0.0000000161

	Back-transformation to cartesian coordinates...
	Successfully converged to displaced geometry.

	Back-transformation to cartesian coordinates to adjust frozen coordinates...
	Successfully converged to displaced geometry.

	--- Internal Coordinate Step in ANG or DEG, aJ/ANG or AJ/DEG ---
	 ---------------------------------------------------------------------------
	   Coordinate                Previous        Force       Change         New 
	   ----------                --------       ------       ------       ------
	    1 R(1,2)          =      0.998620    -0.000138    -0.000004     0.998617
	    2 R(2,3)          =      1.458068     0.000159     0.000011     1.458078
	    3 R(2,4)          =      0.997676     0.000028     0.000010     0.997686
	    4 R(3,5)          =      1.526453     0.000072     0.000010     1.526464
	    5 R(3,6)          =      1.084597    -0.000066    -0.000007     1.084589
	    6 R(3,7)          =      1.085183    -0.000080    -0.000013     1.085170
	    7 R(5,8)          =      1.525722    -0.000154    -0.000022     1.525700
	    8 R(5,9)          =      1.087744     0.000040     0.000006     1.087750
	    9 R(5,10)         =      1.088510    -0.000001     0.000002     1.088512
	   10 R(8,11)         =      1.525158    -0.000278    -0.000053     1.525105
	   11 R(8,12)         =      1.086712     0.000025     0.000006     1.086717
	   12 R(8,13)         =      1.086450     0.000028     0.000005     1.086455
	   13 R(11,14)        =      1.084919     0.000051     0.000009     1.084928
	   14 R(11,15)        =      1.083896    -0.000060    -0.000011     1.083885
	   15 R(11,16)        =      1.084903     0.000006     0.000003     1.084906
	   16 B(1,2,3)        =    111.042311    -0.000001    -0.004686   111.037625
	   17 B(1,2,4)        =    106.108502     0.000000    -0.000798   106.107704
	   18 B(2,3,5)        =    114.722392     0.000002     0.003965   114.726358
	   19 B(2,3,6)        =    108.074775    -0.000001    -0.001678   108.073097
	   20 B(2,3,7)        =    108.984372    -0.000001    -0.005723   108.978649
	   21 B(3,2,4)        =    110.598959     0.000000    -0.002045   110.596914
	   22 B(3,5,8)        =    113.303176    -0.000001    -0.005213   113.297963
	   23 B(3,5,9)        =    109.086666     0.000000    -0.000105   109.086560
	   24 B(3,5,10)       =    108.964274    -0.000000     0.001074   108.965348
	   25 B(5,3,6)        =    108.563510    -0.000000     0.000471   108.563981
	   26 B(5,3,7)        =    109.242533    -0.000000     0.003342   109.245876
	   27 B(5,8,11)       =    113.171513    -0.000002    -0.006223   113.165290
	   28 B(5,8,12)       =    109.291124     0.000001     0.001406   109.292530
	   29 B(5,8,13)       =    109.295545    -0.000000    -0.001997   109.293547
	   30 B(6,3,7)        =    106.972700     0.000000    -0.000691   106.972008
	   31 B(8,5,9)        =    109.614663    -0.000000    -0.001354   109.613310
	   32 B(8,5,10)       =    109.236029     0.000001     0.003624   109.239652
	   33 B(8,11,14)      =    111.138116     0.000001     0.005669   111.143785
	   34 B(8,11,15)      =    111.254401    -0.000002    -0.010047   111.244354
	   35 B(8,11,16)      =    111.125528    -0.000000     0.001170   111.126699
	   36 B(9,5,10)       =    106.401923     0.000000     0.002464   106.404387
	   37 B(11,8,12)      =    109.297830     0.000000    -0.000446   109.297384
	   38 B(11,8,13)      =    109.318340     0.000001     0.004943   109.323283
	   39 B(12,8,13)      =    106.230773    -0.000000     0.002892   106.233665
	   40 B(14,11,15)     =    107.747534     0.000000     0.001075   107.748609
	   41 B(14,11,16)     =    107.664258    -0.000000     0.001038   107.665296
	   42 B(15,11,16)     =    107.740475     0.000001     0.001306   107.741781
	   43 D(1,2,3,5)      =    -28.739045     0.000000     0.001991   -28.737053
	   44 *D(1,2,3,6)     =   -150.000002    -0.000000     0.000000  -150.000002
	   45 D(1,2,3,7)      =     94.086833     0.000000     0.004758    94.091592
	   46 D(2,3,5,8)      =    179.305771     0.000000     0.056345   179.362117
	   47 D(2,3,5,9)      =    -58.295047     0.000000     0.050967   -58.244080
	   48 D(2,3,5,10)     =     57.480866     0.000000     0.054437    57.535304
	   49 D(3,5,8,11)     =   -179.465420    -0.000000    -0.081839  -179.547259
	   50 D(3,5,8,12)     =     58.483496     0.000000    -0.078048    58.405448
	   51 D(3,5,8,13)     =    -57.384810    -0.000000    -0.081183   -57.465992
	   52 D(4,2,3,5)      =     88.788915    -0.000000    -0.003211    88.785704
	   53 D(4,2,3,6)      =    -32.472043    -0.000000    -0.005202   -32.477245
	   54 D(4,2,3,7)      =   -148.385207     0.000000    -0.000444  -148.385651
	   55 D(5,8,11,14)    =    -59.896321    -0.000000     0.039155   -59.857166
	   56 D(5,8,11,15)    =   -179.966005    -0.000000     0.040729  -179.925275
	   57 D(5,8,11,16)    =     59.981722     0.000000     0.045034    60.026755
	   58 D(6,3,5,8)      =    -59.701230     0.000000     0.057183   -59.644047
	   59 D(6,3,5,9)      =     62.697951     0.000000     0.051805    62.749756
	   60 D(6,3,5,10)     =    178.473864     0.000000     0.055275   178.529140
	   61 D(7,3,5,8)      =     56.618947     0.000000     0.058450    56.677397
	   62 D(7,3,5,9)      =    179.018129     0.000000     0.053072   179.071200
	   63 D(7,3,5,10)     =    -65.205958     0.000000     0.056542   -65.149416
	   64 D(9,5,8,11)     =     58.429258    -0.000000    -0.077110    58.352148
	   65 D(9,5,8,12)     =    -63.621826     0.000000    -0.073319   -63.695145
	   66 D(9,5,8,13)     =   -179.490132    -0.000000    -0.076454  -179.566585
	   67 D(10,5,8,11)    =    -57.792592    -0.000000    -0.081371   -57.873964
	   68 D(10,5,8,12)    =   -179.843676    -0.000000    -0.077580  -179.921256
	   69 D(10,5,8,13)    =     64.288018    -0.000000    -0.080714    64.207303
	   70 D(12,8,11,14)   =     62.151012    -0.000000     0.036400    62.187412
	   71 D(12,8,11,15)   =    -57.918671    -0.000000     0.037974   -57.880697
	   72 D(12,8,11,16)   =   -177.970945     0.000000     0.042278  -177.928667
	   73 D(13,8,11,14)   =    178.035812     0.000000     0.042381   178.078193
	   74 D(13,8,11,15)   =     57.966129     0.000000     0.043955    58.010083
	   75 D(13,8,11,16)   =    -62.086145     0.000000     0.048259   -62.037886
	 ---------------------------------------------------------------------------
	Successfully symmetrized geometry.

  ==> Convergence Check <==

  Measures of convergence in internal coordinates in au.
  Criteria marked as inactive (o), active & met (*), and active & unmet ( ).
  ---------------------------------------------------------------------------------------------
   Step     Total Energy     Delta E     MAX Force     RMS Force      MAX Disp      RMS Disp   
  ---------------------------------------------------------------------------------------------
    Convergence Criteria    1.00e-06 *    3.00e-04 *             o    1.20e-03 *             o
  ---------------------------------------------------------------------------------------------
      5    -212.39830876   -3.01e-07 *    3.38e-05 *    9.42e-06 o    1.43e-03      6.35e-04 o  ~
  ---------------------------------------------------------------------------------------------


  **** Optimization is complete! (in 5 steps) ****

  ==> Optimization Summary <==

  Measures of convergence in internal coordinates in au.
  --------------------------------------------------------------------------------------------------------------- ~
   Step         Total Energy             Delta E       MAX Force       RMS Force        MAX Disp        RMS Disp  ~
  --------------------------------------------------------------------------------------------------------------- ~
      1    -212.397010847791   -212.397010847791      0.01740805      0.00286604      0.08526496      0.01980820  ~
      2    -212.398124856116     -0.001114008324      0.00461045      0.00111991      0.02261334      0.00650719  ~
      3    -212.398305475585     -0.000180619470      0.00045679      0.00012381      0.00567274      0.00222500  ~
      4    -212.398308459006     -0.000002983421      0.00012179      0.00003823      0.00318857      0.00145567  ~
      5    -212.398308759692     -0.000000300685      0.00003378      0.00000942      0.00142836      0.00063467  ~
  --------------------------------------------------------------------------------------------------------------- ~

	Writing optimization data to binary file.
	Final energy is   -212.3983087596916
	Final (previous) structure:
	Cartesian Geometry (in Angstrom)
	    H     2.3205527551  -1.2803079461   0.3097888246
	    N     2.4811982655  -0.3729421559  -0.0750788250
	    C     1.2810434459   0.4508976549   0.0078511635
	    H     2.7421110077  -0.5182531207  -1.0270069314
	    C    -0.0314215163  -0.3277706092  -0.0263704765
	    H     1.2918979649   1.1460675200  -0.8245974827
	    H     1.3217176634   1.0435248590   0.9160139855
	    C    -1.2650723235   0.5637360945   0.0792241667
	    H    -0.0773112049  -0.9072899194  -0.9457387741
	    H    -0.0375575604  -1.0467979317   0.7908295825
	    C    -2.5742805362  -0.2183258404   0.0577682530
	    H    -1.2612801828   1.2801811801  -0.7378649035
	    H    -1.2095393334   1.1465864023   0.9944154399
	    H    -2.6761732085  -0.7855219738  -0.8614463607
	    H    -3.4289027994   0.4439984892   0.1337739037
	    H    -2.6246703643  -0.9191919743   0.8843652231
	Saving final (previous) structure.
			--------------------------
			 OPTKING Finished Execution 
			--------------------------

    Final optimized geometry and variables:
    Molecular point group: c1
    Full point group: C1

    Geometry (in Angstrom), charge = 0, multiplicity = 1:

    H            2.320552755119    -1.280307946115     0.309788824608
    N            2.481198265456    -0.372942155937    -0.075078824967
    C            1.281043445865     0.450897654938     0.007851163470
    H            2.742111007683    -0.518253120747    -1.027006931370
    C           -0.031421516326    -0.327770609230    -0.026370476525
    H            1.291897964915     1.146067520042    -0.824597482713
    H            1.321717663439     1.043524859030     0.916013985500
    C           -1.265072323540     0.563736094465     0.079224166721
    H           -0.077311204858    -0.907289919438    -0.945738774100
    H           -0.037557560427    -1.046797931651     0.790829582488
    C           -2.574280536221    -0.218325840444     0.057768253016
    H           -1.261280182778     1.280181180058    -0.737864903495
    H           -1.209539333357     1.146586402336     0.994415439916
    H           -2.676173208527    -0.785521973789    -0.861446360657
    H           -3.428902799362     0.443998489174     0.133773903696
    H           -2.624670364268    -0.919191974288     0.884365223058

	Cleaning optimization helper files.


Properties will be evaluated at   0.000000,   0.000000,   0.000000 Bohr

Properties computed using the  density matrix

  Nuclear Dipole Moment: (a.u.)
     X:    -3.4188      Y:    -0.3711      Z:    -0.3443

  Electronic Dipole Moment: (a.u.)
     X:     3.0097      Y:     0.1377      Z:     0.0601

  Dipole Moment: (a.u.)
     X:    -0.4091      Y:    -0.2334      Z:    -0.2842     Total:     0.5501

  Dipole Moment: (Debye)
     X:    -1.0398      Y:    -0.5932      Z:    -0.7223     Total:     1.3981

  Quadrupole Moment: (Debye Ang)
    XX:   -40.3531     YY:   -33.1582     ZZ:   -32.6257
    XY:    -2.2137     XZ:    -2.6153     YZ:    -0.2225

  Traceless Quadrupole Moment: (Debye Ang)
    XX:    -4.9741     YY:     2.2208     ZZ:     2.7533
    XY:    -2.2137     XZ:    -2.6153     YZ:    -0.2225

  Mulliken Charges: (a.u.)
   Center  Symbol    Alpha    Beta     Spin     Total
       1     H     0.43066  0.43066  0.00000  0.13868
       2     N     3.69076  3.69076  0.00000 -0.38152
       3     C     3.02240  3.02240  0.00000 -0.04479
       4     H     0.43110  0.43110  0.00000  0.13780
       5     C     3.08729  3.08729  0.00000 -0.17458
       6     H     0.45831  0.45831  0.00000  0.08338
       7     H     0.45647  0.45647  0.00000  0.08707
       8     C     3.09026  3.09026  0.00000 -0.18052
       9     H     0.45878  0.45878  0.00000  0.08244
      10     H     0.45879  0.45879  0.00000  0.08243
      11     C     3.14877  3.14877  0.00000 -0.29754
      12     H     0.45447  0.45447  0.00000  0.09105
      13     H     0.45388  0.45388  0.00000  0.09225
      14     H     0.45509  0.45509  0.00000  0.08982
      15     H     0.44818  0.44818  0.00000  0.10365
      16     H     0.45481  0.45481  0.00000  0.09039

   Total alpha = 21.00000, Total beta = 21.00000, Total charge = -0.00000


*** Psi4 exiting successfully. Buy a developer a beer!
