    -----------------------------------------------------------------------
          Psi4: An Open-Source Ab Initio Electronic Structure Package
                              Psi4 1.0.54 Driver

                          Git: Rev {master} 8d4cec3 dirty

    J. M. Turney, A. C. Simmonett, R. M. Parrish, E. G. Hohenstein,
    F. A. Evangelista, J. T. Fermann, B. J. Mintz, L. A. Burns, J. J. Wilke,
    M. L. Abrams, N. J. Russ, M. L. Leininger, C. L. Janssen, E. T. Seidl,
    W. D. Allen, H. F. Schaefer, R. A. King, E. F. Valeev, C. D. Sherrill,
    and T. D. Crawford, WIREs Comput. Mol. Sci. 2, 556-565 (2012)
    (doi: 10.1002/wcms.93)

                         Additional Contributions by
    A. E. DePrince, U. Bozkaya, A. Yu. Sokolov, D. G. A. Smith, R. Di Remigio,
    R. M. Richard, J. F. Gonthier, H. R. McAlexander, M. Saitow, and
    B. P. Pritchard
    -----------------------------------------------------------------------


    Psi4 started on: Sat Sep 10 15:23:01 2016

    Process ID:    548
    PSI4DATADIR: /export131/home/mjharvey/miniconda3/share/psi4
    Memory level set to 256.000 MB

  ==> Input File <==

--------------------------------------------------------------------------
set {
	reference rhf
	basis cc-pvtz
}


set_num_threads( 4 )
memory 2 gb

molecule MOL {
0 1

H	 -1.800566	 2.129874	 1.009273
C	 -0.784662	 1.758979	 1.045952
C	 -0.600949	 0.658697	 -0.000002
H	 -0.593000	 1.381642	 2.041426
H	 -0.111101	 2.584799	 0.860416
C	 0.763408	 0.112229	 -0.000006
H	 -1.283689	 -0.161192	 0.180498
H	 -0.804506	 1.035187	 -0.993860
N	 1.806008	 -0.317179	 0.000007

	symmetry c1
}
set optking {
	frozen_dihedral = ("
		7 3 6 9
	")
}

ee,wfn = optimize('scf', return_wfn=True)
oeprop( wfn, 'DIPOLE', 'QUADRUPOLE', 'MULLIKEN_CHARGES')
f=open( 'psi4out.xyz', 'w' )
f.write( "9  " )
f.write( str(ee) + "\n" )
f.write( MOL.save_string_xyz() )
f.close()
--------------------------------------------------------------------------

  Memory set to   2.000 GiB by Python script.
gradient() will perform analytic gradient computation.

*** tstart() called on cx1-27-3-3
*** at Sat Sep 10 15:23:01 2016


         ---------------------------------------------------------
                                   SCF
            by Justin Turney, Rob Parrish, and Andy Simmonett
                              RHF Reference
                        4 Threads,   2000 MiB Core
         ---------------------------------------------------------

  ==> Geometry <==

    Molecular point group: c1
    Full point group: C1

    Geometry (in Angstrom), charge = 0, multiplicity = 1:

       Center              X                  Y                   Z               Mass       
    ------------   -----------------  -----------------  -----------------  -----------------
           H         -2.040280738599     1.531383525615     0.724520223479     1.007825032070
           C         -1.024376738599     1.160488525615     0.761199223479    12.000000000000
           C         -0.840663738599     0.060206525615    -0.284754776521    12.000000000000
           H         -0.832714738599     0.783151525615     1.756673223479     1.007825032070
           H         -0.350815738599     1.986308525615     0.575663223479     1.007825032070
           C          0.523693261401    -0.486261474385    -0.284758776521    12.000000000000
           H         -1.523403738599    -0.759682474385    -0.104254776521     1.007825032070
           H         -1.044220738599     0.436696525615    -1.278612776521     1.007825032070
           N          1.566293261401    -0.915669474385    -0.284745776521    14.003074004780

  Running in c1 symmetry.

  Rotational constants: A =      0.95457  B =      0.15788  C =      0.14253 [cm^-1]
  Rotational constants: A =  28617.28547  B =   4733.10903  C =   4273.01086 [MHz]
  Nuclear repulsion =  103.716926719134818

  Charge       = 0
  Multiplicity = 1
  Electrons    = 30
  Nalpha       = 15
  Nbeta        = 15

  ==> Algorithm <==

  SCF Algorithm Type is DF.
  DIIS enabled.
  MOM disabled.
  Fractional occupation disabled.
  Guess Type is SAD.
  Energy threshold   = 1.00e-08
  Density threshold  = 1.00e-08
  Integral threshold = 0.00e+00

  ==> Primary Basis <==

  Basis Set: CC-PVTZ
    Number of shells: 70
    Number of basis function: 190
    Number of Cartesian functions: 215
    Spherical Harmonics?: true
    Max angular momentum: 3

  ==> Pre-Iterations <==

   -------------------------------------------------------
    Irrep   Nso     Nmo     Nalpha   Nbeta   Ndocc  Nsocc
   -------------------------------------------------------
     A        190     190       0       0       0       0
   -------------------------------------------------------
    Total     190     190      15      15      15       0
   -------------------------------------------------------

  ==> Integral Setup <==

  ==> DFJK: Density-Fitted J/K Matrices <==

    J tasked:                  Yes
    K tasked:                  Yes
    wK tasked:                  No
    OpenMP threads:              4
    Integrals threads:           4
    Memory (MB):              1430
    Algorithm:                Core
    Integral Cache:           NONE
    Schwarz Cutoff:          1E-12
    Fitting Condition:       1E-12

   => Auxiliary Basis Set <=

  Basis Set: 
    Number of shells: 150
    Number of basis function: 466
    Number of Cartesian functions: 559
    Spherical Harmonics?: true
    Max angular momentum: 4

  Minimum eigenvalue in the overlap matrix is 5.5465434062E-04.
  Using Symmetric Orthogonalization.
  SCF Guess: Superposition of Atomic Densities via on-the-fly atomic UHF.

  ==> Iterations <==

                           Total Energy        Delta E     RMS |[F,P]|

   @DF-RHF iter   0:  -172.63796391605601   -1.72638e+02   2.01090e-02 
   @DF-RHF iter   1:  -170.88712361558518    1.75084e+00   2.24673e-03 
   @DF-RHF iter   2:  -170.97210437947578   -8.49808e-02   1.76091e-03 DIIS
   @DF-RHF iter   3:  -171.01753598765825   -4.54316e-02   3.41350e-04 DIIS
   @DF-RHF iter   4:  -171.02242192766980   -4.88594e-03   1.12440e-04 DIIS
   @DF-RHF iter   5:  -171.02315765055081   -7.35723e-04   5.07964e-05 DIIS
   @DF-RHF iter   6:  -171.02337334063682   -2.15690e-04   2.45321e-05 DIIS
   @DF-RHF iter   7:  -171.02343782954901   -6.44889e-05   8.65313e-06 DIIS
   @DF-RHF iter   8:  -171.02344524660063   -7.41705e-06   2.15427e-06 DIIS
   @DF-RHF iter   9:  -171.02344547111485   -2.24514e-07   4.90148e-07 DIIS
   @DF-RHF iter  10:  -171.02344547902968   -7.91482e-09   1.11190e-07 DIIS
   @DF-RHF iter  11:  -171.02344547943827   -4.08590e-10   2.79518e-08 DIIS
   @DF-RHF iter  12:  -171.02344547946856   -3.02975e-11   7.83558e-09 DIIS

  ==> Post-Iterations <==

    Orbital Energies (a.u.)
    -----------------------

    Doubly Occupied:                                                      

       1A    -15.556523     2A    -11.282567     3A    -11.261117  
       4A    -11.244542     5A     -1.229100     6A     -1.084377  
       7A     -0.913367     8A     -0.700441     9A     -0.661287  
      10A     -0.589772    11A     -0.563053    12A     -0.545460  
      13A     -0.540135    14A     -0.463955    15A     -0.463847  

    Virtual:                                                              

      16A      0.119396    17A      0.164730    18A      0.174433  
      19A      0.193481    20A      0.197625    21A      0.229650  
      22A      0.256609    23A      0.265304    24A      0.303921  
      25A      0.337838    26A      0.368165    27A      0.376506  
      28A      0.459025    29A      0.469250    30A      0.514056  
      31A      0.527715    32A      0.543163    33A      0.570665  
      34A      0.575173    35A      0.606125    36A      0.623260  
      37A      0.643217    38A      0.648884    39A      0.650085  
      40A      0.719785    41A      0.751455    42A      0.754857  
      43A      0.774439    44A      0.790074    45A      0.810808  
      46A      0.881021    47A      0.901997    48A      0.946903  
      49A      0.978398    50A      1.025941    51A      1.062839  
      52A      1.089681    53A      1.155255    54A      1.187456  
      55A      1.219680    56A      1.231837    57A      1.253981  
      58A      1.278877    59A      1.313184    60A      1.316775  
      61A      1.332928    62A      1.354156    63A      1.401765  
      64A      1.417585    65A      1.446278    66A      1.478836  
      67A      1.502705    68A      1.519224    69A      1.553775  
      70A      1.570516    71A      1.592630    72A      1.643042  
      73A      1.667271    74A      1.694081    75A      1.757934  
      76A      1.771046    77A      1.827608    78A      1.998975  
      79A      2.010754    80A      2.126035    81A      2.329580  
      82A      2.402354    83A      2.413295    84A      2.546813  
      85A      2.558577    86A      2.607272    87A      2.617040  
      88A      2.628554    89A      2.707055    90A      2.757562  
      91A      2.826520    92A      2.828411    93A      2.926328  
      94A      2.939833    95A      2.960640    96A      2.962612  
      97A      3.004807    98A      3.056904    99A      3.058488  
     100A      3.101907   101A      3.114907   102A      3.154115  
     103A      3.167171   104A      3.224090   105A      3.255178  
     106A      3.280557   107A      3.305645   108A      3.315582  
     109A      3.323228   110A      3.335943   111A      3.365390  
     112A      3.418694   113A      3.431655   114A      3.439308  
     115A      3.487229   116A      3.526474   117A      3.543471  
     118A      3.575518   119A      3.619591   120A      3.642763  
     121A      3.686570   122A      3.722157   123A      3.746099  
     124A      3.766815   125A      3.810568   126A      3.836781  
     127A      3.852802   128A      3.979158   129A      4.007834  
     130A      4.011095   131A      4.069192   132A      4.089432  
     133A      4.117184   134A      4.118541   135A      4.182694  
     136A      4.193177   137A      4.221578   138A      4.229113  
     139A      4.266384   140A      4.310683   141A      4.313620  
     142A      4.357454   143A      4.359862   144A      4.372369  
     145A      4.384000   146A      4.415340   147A      4.467804  
     148A      4.492417   149A      4.577782   150A      4.599742  
     151A      4.633733   152A      4.640244   153A      4.696979  
     154A      4.820988   155A      4.840229   156A      4.946188  
     157A      4.991880   158A      5.008899   159A      5.025050  
     160A      5.062649   161A      5.186036   162A      5.192786  
     163A      5.196530   164A      5.200424   165A      5.240891  
     166A      5.322015   167A      5.325293   168A      5.431662  
     169A      5.502301   170A      5.590862   171A      5.606821  
     172A      5.652700   173A      5.697462   174A      5.704189  
     175A      5.719229   176A      5.720330   177A      5.785183  
     178A      5.826168   179A      5.872572   180A      6.220441  
     181A      6.266950   182A      6.268405   183A      6.287453  
     184A      6.674866   185A      6.678220   186A      6.734588  
     187A      8.369267   188A     13.627164   189A     14.162506  
     190A     16.923397  

    Final Occupation by Irrep:
              A 
    DOCC [    15 ]

  Energy converged.

  @DF-RHF Final Energy:  -171.02344547946856

   => Energetics <=

    Nuclear Repulsion Energy =            103.7169267191348183
    One-Electron Energy =                -435.2816575494273934
    Two-Electron Energy =                 160.5412853508239550
    DFT Exchange-Correlation Energy =       0.0000000000000000
    Empirical Dispersion Energy =           0.0000000000000000
    PCM Polarization Energy =               0.0000000000000000
    EFP Energy =                            0.0000000000000000
    Total Energy =                       -171.0234454794685917


  Saving occupied orbitals to File 180.

*** tstop() called on cx1-27-3-3 at Sat Sep 10 15:23:03 2016
Module time:
	user time   =       7.40 seconds =       0.12 minutes
	system time =       0.26 seconds =       0.00 minutes
	total time  =          2 seconds =       0.03 minutes
Total time:
	user time   =       7.40 seconds =       0.12 minutes
	system time =       0.26 seconds =       0.00 minutes
	total time  =          2 seconds =       0.03 minutes


Properties will be evaluated at   0.000000,   0.000000,   0.000000 Bohr

Properties computed using the SCF density matrix

  Nuclear Dipole Moment: (a.u.)
     X:    -5.4338      Y:     3.7318      Z:     1.5701

  Electronic Dipole Moment: (a.u.)
     X:     3.9071      Y:    -3.0452      Z:    -1.5019

  Dipole Moment: (a.u.)
     X:    -1.5267      Y:     0.6866      Z:     0.0683     Total:     1.6754

  Dipole Moment: (Debye)
     X:    -3.8805      Y:     1.7451      Z:     0.1735     Total:     4.2584


*** tstart() called on cx1-27-3-3
*** at Sat Sep 10 15:23:03 2016


         ------------------------------------------------------------
                                   SCF GRAD                          
                          Rob Parrish, Justin Turney,                
                       Andy Simmonett, and Alex Sokolov              
         ------------------------------------------------------------

  ==> Geometry <==

    Molecular point group: c1
    Full point group: C1

    Geometry (in Angstrom), charge = 0, multiplicity = 1:

       Center              X                  Y                   Z               Mass       
    ------------   -----------------  -----------------  -----------------  -----------------
           H         -2.040280738599     1.531383525615     0.724520223479     1.007825032070
           C         -1.024376738599     1.160488525615     0.761199223479    12.000000000000
           C         -0.840663738599     0.060206525615    -0.284754776521    12.000000000000
           H         -0.832714738599     0.783151525615     1.756673223479     1.007825032070
           H         -0.350815738599     1.986308525615     0.575663223479     1.007825032070
           C          0.523693261401    -0.486261474385    -0.284758776521    12.000000000000
           H         -1.523403738599    -0.759682474385    -0.104254776521     1.007825032070
           H         -1.044220738599     0.436696525615    -1.278612776521     1.007825032070
           N          1.566293261401    -0.915669474385    -0.284745776521    14.003074004780

  Nuclear repulsion =  103.716926719134818

  ==> Basis Set <==

  Basis Set: CC-PVTZ
    Number of shells: 70
    Number of basis function: 190
    Number of Cartesian functions: 215
    Spherical Harmonics?: true
    Max angular momentum: 3

  ==> DFJKGrad: Density-Fitted SCF Gradients <==

    Gradient:                    1
    J tasked:                  Yes
    K tasked:                  Yes
    wK tasked:                  No
    OpenMP threads:              4
    Integrals threads:           4
    Memory (MB):              1430
    Schwarz Cutoff:          0E+00
    Fitting Condition:       1E-12

   => Auxiliary Basis Set <=

  Basis Set: 
    Number of shells: 150
    Number of basis function: 466
    Number of Cartesian functions: 559
    Spherical Harmonics?: true
    Max angular momentum: 4


  -Total Gradient:
     Atom            X                  Y                   Z
    ------   -----------------  -----------------  -----------------
       1       -0.000011205246    -0.000010770456    -0.000013862710
       2        0.000131709561     0.000040804349     0.000105114823
       3       -0.000295582874    -0.000817148365    -0.000408112698
       4        0.000002111450     0.000003729651    -0.000032552966
       5       -0.000005852675    -0.000041835069    -0.000004158545
       6        0.000767347601     0.001449543098     0.000705934378
       7       -0.000168605851     0.000100992236    -0.000020817126
       8       -0.000047062674    -0.000013744554     0.000012460995
       9       -0.000372859294    -0.000711570890    -0.000344006151


*** tstop() called on cx1-27-3-3 at Sat Sep 10 15:23:05 2016
Module time:
	user time   =       7.53 seconds =       0.13 minutes
	system time =       0.23 seconds =       0.00 minutes
	total time  =          2 seconds =       0.03 minutes
Total time:
	user time   =      14.98 seconds =       0.25 minutes
	system time =       0.49 seconds =       0.01 minutes
	total time  =          4 seconds =       0.07 minutes

			-----------------------------------------
			 OPTKING 2.0: for geometry optimizations 
			  - R.A. King,  Bethel University        
			-----------------------------------------

	Internal coordinates to be generated automatically.
	Detected frag 1 with atoms:  1 2 3 4 5 6 7 8 9
	---Fragment 1 Bond Connectivity---
	 1 : 2
	 2 : 1 3 4 5
	 3 : 2 6 7 8
	 4 : 2
	 5 : 2
	 6 : 3 9
	 7 : 3
	 8 : 3
	 9 : 6

	Assuming in current code that numbering for constraints corresponds to unified fragment.
	Frozen dihedral atom list: 
	     7     3     6     9
	---Fragment 1 Geometry and Gradient---
	 H          -3.8555718302        2.8938954678        1.3691448001
	 C          -1.9357914929        2.1930054938        1.4384580649
	 C          -1.5886242358        0.1137738448       -0.5381085427
	 H          -1.5736028028        1.4799419040        3.3196312973
	 H          -0.6629456691        3.7535791288        1.0878458371
	 C           0.9896368417       -0.9189010156       -0.5381161016
	 H          -2.8788158558       -1.4355918245       -0.1970129757
	 H          -1.9732912182        0.8252368366       -2.4162279776
	 N           2.9598653078       -1.7303645348       -0.5380915351
	            -0.0000112052       -0.0000107705       -0.0000138627
	             0.0001317096        0.0000408043        0.0001051148
	            -0.0002955829       -0.0008171484       -0.0004081127
	             0.0000021115        0.0000037297       -0.0000325530
	            -0.0000058527       -0.0000418351       -0.0000041585
	             0.0007673476        0.0014495431        0.0007059344
	            -0.0001686059        0.0001009922       -0.0000208171
	            -0.0000470627       -0.0000137446        0.0000124610
	            -0.0003728593       -0.0007115709       -0.0003440062

	Previous optimization step data not found.  Starting new optimization.

	---Fragment 1 Intrafragment Coordinates---
	 - Coordinate -           - BOHR/RAD -       - ANG/DEG -
	 R(1,2)           =         2.044898	       1.082113
	 R(2,3)           =         2.889731	       1.529180
	 R(2,4)           =         2.044126	       1.081705
	 R(2,5)           =         2.044127	       1.081705
	 R(3,6)           =         2.777381	       1.469727
	 R(3,7)           =         2.044865	       1.082096
	 R(3,8)           =         2.044867	       1.082097
	 R(6,9)           =         2.130792	       1.127566
	 B(1,2,3)         =         1.913697	     109.646767
	 B(1,2,4)         =         1.893468	     108.487702
	 B(1,2,5)         =         1.893467	     108.487693
	 B(2,3,6)         =         1.959574	     112.275323
	 B(2,3,7)         =         1.934008	     110.810511
	 B(2,3,8)         =         1.934009	     110.810580
	 B(3,2,4)         =         1.936052	     110.927591
	 B(3,2,5)         =         1.936051	     110.927538
	 L(3,6,9)         =         3.131866	     179.442725
	 l(3,6,9)         =         3.141593	     180.000000
	 B(4,2,5)         =         1.890024	     108.290426
	 B(6,3,7)         =         1.879673	     107.697308
	 B(6,3,8)         =         1.879673	     107.697350
	 B(7,3,8)         =         1.873533	     107.345558
	 D(1,2,3,6)       =         3.141593	     180.000000
	 D(1,2,3,7)       =        -1.038957	     -59.527867
	 D(1,2,3,8)       =         1.038955	      59.527755
	 D(4,2,3,6)       =        -1.050651	     -60.197855
	 D(4,2,3,7)       =         1.051985	      60.274283
	 D(4,2,3,8)       =         3.129897	     179.329906
	 D(5,2,3,6)       =         1.050651	      60.197889
	 D(5,2,3,7)       =        -3.129898	    -179.329973
	 D(5,2,3,8)       =        -1.051986	     -60.274351
	The INTCO_EXCEPTion handler:
	TORS::compute_val: unable to compute torsion value
	Dynamic level is 0.
	exc.g_really_quit() is 0.

  **** Optimization has failed! (in 1 steps) ****
			--------------------------
			 OPTKING Finished Execution 
			--------------------------
	Cleaning optimization helper files.
An error has occurred python-side. Traceback (most recent call last):

  File "<string>", line 43, in <module>

TypeError: 'float' object is not iterable


