    -----------------------------------------------------------------------
          Psi4: An Open-Source Ab Initio Electronic Structure Package
                              Psi4 (no tag) Driver

                          Git: Rev {detached?}  

    J. M. Turney, A. C. Simmonett, R. M. Parrish, E. G. Hohenstein,
    F. A. Evangelista, J. T. Fermann, B. J. Mintz, L. A. Burns, J. J. Wilke,
    M. L. Abrams, N. J. Russ, M. L. Leininger, C. L. Janssen, E. T. Seidl,
    W. D. Allen, H. F. Schaefer, R. A. King, E. F. Valeev, C. D. Sherrill,
    and T. D. Crawford, WIREs Comput. Mol. Sci. 2, 556-565 (2012)
    (doi: 10.1002/wcms.93)

                         Additional Contributions by
    A. E. DePrince, M. Saitow, U. Bozkaya, A. Yu. Sokolov
    -----------------------------------------------------------------------


    Psi4 started on: Thu Sep  1 22:13:14 2016

    Process ID:   1447
    PSI4DATADIR: /export131/home/mjharvey/miniconda3/share
    Memory level set to 256.000 MB

  ==> Input File <==

--------------------------------------------------------------------------
set {
	reference rhf
	basis 6-31G*
}


set_num_threads( 1 )
memory 2 gb

molecule MOL {
0 1

O	 -0.988096	 -1.408613	 0.050699
C	 -0.676749	 -0.249230	 -0.009274
C	 -1.746085	 0.827156	 -0.009539
N	 0.623947	 0.147590	 -0.102813
H	 -1.701500	 1.431508	 -0.908902
H	 -2.703425	 0.330732	 0.036390
H	 -1.647323	 1.487769	 0.845106
C	 1.099821	 1.184540	 0.791701
C	 1.475476	 -0.128947	 -1.238891
H	 2.113719	 0.956735	 1.101755
H	 0.463174	 1.230598	 1.658016
H	 1.101024	 2.156989	 0.304093
H	 2.499626	 -0.226082	 -0.898713
H	 1.203685	 -1.053390	 -1.723110
H	 1.441510	 0.670932	 -1.976354

	symmetry c1
}
set optking {
	frozen_dihedral = ("
		2 4 8 10
	")
}

ee = energy('scf')
oeprop('DIPOLE', 'QUADRUPOLE', 'MULLIKEN_CHARGES')
f=open( 'psi4out.xyz', 'w' )
f.write( "15  " )
f.write( str(ee) + "\n" )
f.write( MOL.save_string_xyz() )
f.close()
--------------------------------------------------------------------------

  Memory set to   2.000 GiB by Python script.

*** tstart() called on cx1-3-15-1.cx1.hpc.ic.ac.uk
*** at Thu Sep  1 22:13:14 2016


         ---------------------------------------------------------
                                   SCF
            by Justin Turney, Rob Parrish, and Andy Simmonett
                              RHF Reference
                        1 Threads,   2000 MiB Core
         ---------------------------------------------------------

  ==> Geometry <==

    Molecular point group: c1
    Full point group: C1

    Geometry (in Angstrom), charge = 0, multiplicity = 1:

       Center              X                  Y                   Z               Mass       
    ------------   -----------------  -----------------  -----------------  -----------------
           O         -0.960007628375    -1.479577334668     0.140223398370    15.994914619560
           C         -0.648660628375    -0.320194334668     0.080250398370    12.000000000000
           C         -1.717996628375     0.756191665332     0.079985398370    12.000000000000
           N          0.652035371625     0.076625665332    -0.013288601630    14.003074004780
           H         -1.673411628375     1.360543665332    -0.819377601630     1.007825032070
           H         -2.675336628375     0.259767665332     0.125914398370     1.007825032070
           H         -1.619234628375     1.416804665332     0.934630398370     1.007825032070
           C          1.127909371625     1.113575665332     0.881225398370    12.000000000000
           C          1.503564371625    -0.199911334668    -1.149366601630    12.000000000000
           H          2.141807371625     0.885770665332     1.191279398370     1.007825032070
           H          0.491262371625     1.159633665332     1.747540398370     1.007825032070
           H          1.129112371625     2.086024665332     0.393617398370     1.007825032070
           H          2.527714371625    -0.297046334668    -0.809188601630     1.007825032070
           H          1.231773371625    -1.124354334668    -1.633585601630     1.007825032070
           H          1.469598371625     0.599967665332    -1.886829601630     1.007825032070

  Running in c1 symmetry.

  Rotational constants: A =      0.16484  B =      0.10143  C =      0.07814 [cm^-1]
  Rotational constants: A =   4941.72652  B =   3040.68757  C =   2342.42947 [MHz]
  Nuclear repulsion =  251.503214198079007

  Charge       = 0
  Multiplicity = 1
  Electrons    = 48
  Nalpha       = 24
  Nbeta        = 24

  ==> Algorithm <==

  SCF Algorithm Type is DF.
  DIIS enabled.
  MOM disabled.
  Fractional occupation disabled.
  Guess Type is CORE.
  Energy threshold   = 1.00e-06
  Density threshold  = 1.00e-06
  Integral threshold = 0.00e+00

  ==> Primary Basis <==

  Basis Set: 6-31G*
    Number of shells: 54
    Number of basis function: 108
    Number of Cartesian functions: 108
    Spherical Harmonics?: false
    Max angular momentum: 2

  ==> Pre-Iterations <==

   -------------------------------------------------------
    Irrep   Nso     Nmo     Nalpha   Nbeta   Ndocc  Nsocc
   -------------------------------------------------------
     A        108     108       0       0       0       0
   -------------------------------------------------------
    Total     108     108      24      24      24       0
   -------------------------------------------------------

 OEINTS: Overlap, kinetic, potential, dipole, and quadrupole integrals
         stored in file 35.

  ==> Integral Setup <==

  ==> DFJK: Density-Fitted J/K Matrices <==

    J tasked:                  Yes
    K tasked:                  Yes
    wK tasked:                  No
    OpenMP threads:              1
    Integrals threads:           1
    Memory (MB):              1430
    Algorithm:                Core
    Integral Cache:           NONE
    Schwarz Cutoff:          1E-12
    Fitting Condition:       1E-12

   => Auxiliary Basis Set <=

  Basis Set: 
    Number of shells: 225
    Number of basis function: 711
    Number of Cartesian functions: 711
    Spherical Harmonics?: false
    Max angular momentum: 3

  Minimum eigenvalue in the overlap matrix is 4.0493089250E-03.
  Using Symmetric Orthogonalization.
  SCF Guess: Core (One-Electron) Hamiltonian.

  ==> Iterations <==

                           Total Energy        Delta E     RMS |[F,P]|

   @DF-RHF iter   1:  -203.95964776115343   -2.03960e+02   8.92441e-02 
   @DF-RHF iter   2:  -227.75859312856525   -2.37989e+01   4.64664e-02 DIIS
   @DF-RHF iter   3:  -222.50334601714937    5.25525e+00   7.40244e-02 DIIS
   @DF-RHF iter   4:  -266.05363189691002   -4.35503e+01   5.16198e-02 DIIS
   @DF-RHF iter   5:  -275.14491252735354   -9.09128e+00   3.99029e-02 DIIS
   @DF-RHF iter   6:  -280.48588235105046   -5.34097e+00   2.76051e-02 DIIS
   @DF-RHF iter   7:  -284.67390197445559   -4.18802e+00   1.38621e-02 DIIS
   @DF-RHF iter   8:  -285.62333454339262   -9.49433e-01   6.96624e-03 DIIS
   @DF-RHF iter   9:  -285.94624301591034   -3.22908e-01   2.41850e-03 DIIS
   @DF-RHF iter  10:  -285.99660350282909   -5.03605e-02   7.62806e-04 DIIS
   @DF-RHF iter  11:  -286.00084426104456   -4.24076e-03   3.50950e-04 DIIS
   @DF-RHF iter  12:  -286.00263912421087   -1.79486e-03   1.47347e-04 DIIS
   @DF-RHF iter  13:  -286.00295894485066   -3.19821e-04   5.48219e-05 DIIS
   @DF-RHF iter  14:  -286.00302162469734   -6.26798e-05   1.82208e-05 DIIS
   @DF-RHF iter  15:  -286.00302712183634   -5.49714e-06   4.81986e-06 DIIS
   @DF-RHF iter  16:  -286.00302747519265   -3.53356e-07   1.53848e-06 DIIS
   @DF-RHF iter  17:  -286.00302750903040   -3.38378e-08   4.77196e-07 DIIS

  ==> Post-Iterations <==

    Orbital Energies (a.u.)
    -----------------------

    Doubly Occupied:                                                      

       1A    -20.534641     2A    -15.560621     3A    -11.345162  
       4A    -11.261333     5A    -11.258786     6A    -11.226386  
       7A     -1.391096     8A     -1.240171     9A     -1.009862  
      10A     -0.972588    11A     -0.920031    12A     -0.739747  
      13A     -0.675620    14A     -0.658383    15A     -0.649089  
      16A     -0.596053    17A     -0.586069    18A     -0.571875  
      19A     -0.560433    20A     -0.551843    21A     -0.534935  
      22A     -0.487467    23A     -0.418818    24A     -0.355542  

    Virtual:                                                              

      25A      0.177061    26A      0.214814    27A      0.262395  
      28A      0.287960    29A      0.288929    30A      0.301965  
      31A      0.312412    32A      0.324623    33A      0.340437  
      34A      0.355097    35A      0.373961    36A      0.404118  
      37A      0.434428    38A      0.518897    39A      0.592106  
      40A      0.696791    41A      0.714836    42A      0.738148  
      43A      0.752716    44A      0.786962    45A      0.793190  
      46A      0.843742    47A      0.887034    48A      0.929313  
      49A      0.953609    50A      0.990747    51A      1.011121  
      52A      1.047313    53A      1.083908    54A      1.101255  
      55A      1.123342    56A      1.137510    57A      1.158912  
      58A      1.164050    59A      1.179880    60A      1.208148  
      61A      1.223636    62A      1.231306    63A      1.263942  
      64A      1.280874    65A      1.331698    66A      1.343093  
      67A      1.371810    68A      1.399986    69A      1.508333  
      70A      1.604615    71A      1.710713    72A      1.740703  
      73A      1.764243    74A      1.849111    75A      1.951583  
      76A      2.018768    77A      2.053658    78A      2.129552  
      79A      2.155826    80A      2.198226    81A      2.250544  
      82A      2.275918    83A      2.306376    84A      2.358173  
      85A      2.359779    86A      2.419890    87A      2.461149  
      88A      2.514376    89A      2.554846    90A      2.598747  
      91A      2.608704    92A      2.675025    93A      2.701843  
      94A      2.770939    95A      2.803135    96A      2.856307  
      97A      2.998710    98A      3.091268    99A      3.166505  
     100A      3.280349   101A      3.375778   102A      3.509908  
     103A      4.391171   104A      4.482868   105A      4.617201  
     106A      4.671146   107A      4.773028   108A      4.922935  

    Final Occupation by Irrep:
              A 
    DOCC [    24 ]

  Energy converged.

  @DF-RHF Final Energy:  -286.00302750903040

   => Energetics <=

    Nuclear Repulsion Energy =            251.5032141980790072
    One-Electron Energy =                -886.7992469760721406
    Two-Electron Energy =                 349.2930052689628155
    DFT Exchange-Correlation Energy =       0.0000000000000000
    Empirical Dispersion Energy =           0.0000000000000000
    PCM Polarization Energy =               0.0000000000000000
    EFP Energy =                            0.0000000000000000
    Total Energy =                       -286.0030275090302894

    Alert: EFP and PCM quantities not currently incorporated into SCF psivars.

Properties will be evaluated at   0.000000,   0.000000,   0.000000 Bohr
  ==> Properties <==


Properties computed using the SCF density matrix

  Nuclear Dipole Moment: (a.u.)
     X:     2.8277      Y:     5.9429      Z:    -0.7080

  Electronic Dipole Moment: (a.u.)
     X:    -2.2929      Y:    -4.6029      Z:     0.5607

  Dipole Moment: (a.u.)
     X:     0.5349      Y:     1.3400      Z:    -0.1473     Total:     1.4503

  Dipole Moment: (Debye)
     X:     1.3595      Y:     3.4059      Z:    -0.3745     Total:     3.6863


  Saving occupied orbitals to File 180.

*** tstop() called on cx1-3-15-1.cx1.hpc.ic.ac.uk at Thu Sep  1 22:13:21 2016
Module time:
	user time   =       6.72 seconds =       0.11 minutes
	system time =       0.05 seconds =       0.00 minutes
	total time  =          7 seconds =       0.12 minutes
Total time:
	user time   =       6.72 seconds =       0.11 minutes
	system time =       0.05 seconds =       0.00 minutes
	total time  =          7 seconds =       0.12 minutes


Properties will be evaluated at   0.000000,   0.000000,   0.000000 Bohr

Properties computed using the  density matrix

  Nuclear Dipole Moment: (a.u.)
     X:     2.8277      Y:     5.9429      Z:    -0.7080

  Electronic Dipole Moment: (a.u.)
     X:    -2.2929      Y:    -4.6029      Z:     0.5607

  Dipole Moment: (a.u.)
     X:     0.5349      Y:     1.3400      Z:    -0.1473     Total:     1.4503

  Dipole Moment: (Debye)
     X:     1.3595      Y:     3.4059      Z:    -0.3745     Total:     3.6863

  Quadrupole Moment: (Debye Ang)
    XX:   -35.8866     YY:   -42.3599     ZZ:   -35.3758
    XY:    -2.9814     XZ:    -0.4216     YZ:     1.8704

  Traceless Quadrupole Moment: (Debye Ang)
    XX:     1.9875     YY:    -4.4858     ZZ:     2.4983
    XY:    -2.9814     XZ:    -0.4216     YZ:     1.8704

  Mulliken Charges: (a.u.)
   Center  Symbol    Alpha    Beta     Spin     Total
       1     O     4.26776  4.26776  0.00000 -0.53552
       2     C     2.65169  2.65169  0.00000  0.69663
       3     C     3.28710  3.28710  0.00000 -0.57421
       4     N     3.81993  3.81993  0.00000 -0.63985
       5     H     0.40727  0.40727  0.00000  0.18545
       6     H     0.39556  0.39556  0.00000  0.20889
       7     H     0.40944  0.40944  0.00000  0.18113
       8     C     3.14196  3.14196  0.00000 -0.28393
       9     C     3.13730  3.13730  0.00000 -0.27459
      10     H     0.40903  0.40903  0.00000  0.18194
      11     H     0.41084  0.41084  0.00000  0.17833
      12     H     0.42411  0.42411  0.00000  0.15177
      13     H     0.41478  0.41478  0.00000  0.17044
      14     H     0.39885  0.39885  0.00000  0.20230
      15     H     0.42438  0.42438  0.00000  0.15123

   Total alpha = 24.00000, Total beta = 24.00000, Total charge =  0.00000


*** PSI4 exiting successfully. Buy a developer a beer!
