    -----------------------------------------------------------------------
          Psi4: An Open-Source Ab Initio Electronic Structure Package
                              Psi4 (no tag) Driver

                          Git: Rev {detached?}  

    J. M. Turney, A. C. Simmonett, R. M. Parrish, E. G. Hohenstein,
    F. A. Evangelista, J. T. Fermann, B. J. Mintz, L. A. Burns, J. J. Wilke,
    M. L. Abrams, N. J. Russ, M. L. Leininger, C. L. Janssen, E. T. Seidl,
    W. D. Allen, H. F. Schaefer, R. A. King, E. F. Valeev, C. D. Sherrill,
    and T. D. Crawford, WIREs Comput. Mol. Sci. 2, 556-565 (2012)
    (doi: 10.1002/wcms.93)

                         Additional Contributions by
    A. E. DePrince, M. Saitow, U. Bozkaya, A. Yu. Sokolov
    -----------------------------------------------------------------------


    Psi4 started on: Fri Sep  9 21:19:24 2016

    Process ID:  23081
    PSI4DATADIR: /export131/home/mjharvey/miniconda3/share
    Memory level set to 256.000 MB

  ==> Input File <==

--------------------------------------------------------------------------
set {
	reference rhf
	basis cc-pvtz
}


set_num_threads( 4 )
memory 2 gb

molecule MOL {
0 1

H	 -1.067551	 -1.366296	 0.127042
O	 -1.432053	 -0.565244	 -0.200812
C	 -0.727158	 0.534527	 0.310686
C	 0.680222	 0.664433	 -0.252229
H	 -1.306802	 1.408001	 0.044211
H	 -0.690821	 0.490158	 1.397609
C	 1.605391	 -0.489360	 0.123098
H	 0.615089	 0.745647	 -1.332226
H	 1.101414	 1.597893	 0.110950
H	 1.247627	 -1.432485	 -0.275204
H	 2.601435	 -0.332816	 -0.273062
H	 1.691776	 -0.589902	 1.200774

	symmetry c1
}
set optking {
	frozen_dihedral = ("
		1 2 3 4
	")
}

ee = optimize('scf')
oeprop('DIPOLE', 'QUADRUPOLE', 'MULLIKEN_CHARGES')
f=open( 'psi4out.xyz', 'w' )
f.write( "12  " )
f.write( str(ee) + "\n" )
f.write( MOL.save_string_xyz() )
f.close()
--------------------------------------------------------------------------

  Memory set to   2.000 GiB by Python script.
gradient() will perform analytic gradient computation.

*** tstart() called on cx1-27-1-3
*** at Fri Sep  9 21:19:25 2016


         ---------------------------------------------------------
                                   SCF
            by Justin Turney, Rob Parrish, and Andy Simmonett
                              RHF Reference
                        4 Threads,   2000 MiB Core
         ---------------------------------------------------------

  ==> Geometry <==

    Molecular point group: c1
    Full point group: C1

    Geometry (in Angstrom), charge = 0, multiplicity = 1:

       Center              X                  Y                   Z               Mass       
    ------------   -----------------  -----------------  -----------------  -----------------
           H         -1.067898423225    -1.366270042590     0.127464778515     1.007825032070
           O         -1.432400423225    -0.565218042590    -0.200389221485    15.994914619560
           C         -0.727505423225     0.534552957410     0.311108778515    12.000000000000
           C          0.679874576775     0.664458957410    -0.251806221485    12.000000000000
           H         -1.307149423225     1.408026957410     0.044633778515     1.007825032070
           H         -0.691168423225     0.490183957410     1.398031778515     1.007825032070
           C          1.605043576775    -0.489334042590     0.123520778515    12.000000000000
           H          0.614741576775     0.745672957410    -1.331803221485     1.007825032070
           H          1.101066576775     1.597918957410     0.111372778515     1.007825032070
           H          1.247279576775    -1.432459042590    -0.274781221485     1.007825032070
           H          2.601087576775    -0.332790042590    -0.272639221485     1.007825032070
           H          1.691428576775    -0.589876042590     1.201196778515     1.007825032070

  Running in c1 symmetry.

  Rotational constants: A =      0.48795  B =      0.16850  C =      0.14239 [cm^-1]
  Rotational constants: A =  14628.45618  B =   5051.41520  C =   4268.78446 [MHz]
  Nuclear repulsion =  133.222111951316094

  Charge       = 0
  Multiplicity = 1
  Electrons    = 34
  Nalpha       = 17
  Nbeta        = 17

  ==> Algorithm <==

  SCF Algorithm Type is DF.
  DIIS enabled.
  MOM disabled.
  Fractional occupation disabled.
  Guess Type is CORE.
  Energy threshold   = 1.00e-08
  Density threshold  = 1.00e-08
  Integral threshold = 0.00e+00

  ==> Primary Basis <==

  Basis Set: CC-PVTZ
    Number of shells: 88
    Number of basis function: 232
    Number of Cartesian functions: 260
    Spherical Harmonics?: true
    Max angular momentum: 3

  ==> Pre-Iterations <==

   -------------------------------------------------------
    Irrep   Nso     Nmo     Nalpha   Nbeta   Ndocc  Nsocc
   -------------------------------------------------------
     A        232     232       0       0       0       0
   -------------------------------------------------------
    Total     232     232      17      17      17       0
   -------------------------------------------------------

 OEINTS: Overlap, kinetic, potential, dipole, and quadrupole integrals
         stored in file 35.

  ==> Integral Setup <==

  ==> DFJK: Density-Fitted J/K Matrices <==

    J tasked:                  Yes
    K tasked:                  Yes
    wK tasked:                  No
    OpenMP threads:              4
    Integrals threads:           4
    Memory (MB):              1430
    Algorithm:                Core
    Integral Cache:           NONE
    Schwarz Cutoff:          1E-12
    Fitting Condition:       1E-12

   => Auxiliary Basis Set <=

  Basis Set: 
    Number of shells: 180
    Number of basis function: 556
    Number of Cartesian functions: 664
    Spherical Harmonics?: true
    Max angular momentum: 4

  Minimum eigenvalue in the overlap matrix is 7.7138737652E-04.
  Using Symmetric Orthogonalization.
  SCF Guess: Core (One-Electron) Hamiltonian.

  ==> Iterations <==

                           Total Energy        Delta E     RMS |[F,P]|

   @DF-RHF iter   1:  -139.21192028014940   -1.39212e+02   5.07174e-02 
   @DF-RHF iter   2:  -114.61536810148021    2.45966e+01   3.09804e-02 DIIS
   @DF-RHF iter   3:  -153.76849322026987   -3.91531e+01   2.87638e-02 DIIS
   @DF-RHF iter   4:  -181.10543947643123   -2.73369e+01   1.72169e-02 DIIS
   @DF-RHF iter   5:  -191.47603997181182   -1.03706e+01   7.85035e-03 DIIS
   @DF-RHF iter   6:  -193.07367014960317   -1.59763e+00   1.96190e-03 DIIS
   @DF-RHF iter   7:  -193.17472218820672   -1.01052e-01   6.44297e-04 DIIS
   @DF-RHF iter   8:  -193.18940483070384   -1.46826e-02   1.71472e-04 DIIS
   @DF-RHF iter   9:  -193.19043422464125   -1.02939e-03   6.46803e-05 DIIS
   @DF-RHF iter  10:  -193.19058166865130   -1.47444e-04   2.00400e-05 DIIS
   @DF-RHF iter  11:  -193.19060374192151   -2.20733e-05   4.98707e-06 DIIS
   @DF-RHF iter  12:  -193.19060529498256   -1.55306e-06   9.09550e-07 DIIS
   @DF-RHF iter  13:  -193.19060534809233   -5.31098e-08   2.10836e-07 DIIS
   @DF-RHF iter  14:  -193.19060535080609   -2.71376e-09   5.07788e-08 DIIS
   @DF-RHF iter  15:  -193.19060535097043   -1.64334e-10   1.42434e-08 DIIS
   @DF-RHF iter  16:  -193.19060535098407   -1.36424e-11   3.80643e-09 DIIS

  ==> Post-Iterations <==

    Orbital Energies (a.u.)
    -----------------------

    Doubly Occupied:                                                      

       1A    -20.546157     2A    -11.265977     3A    -11.217278  
       4A    -11.215325     5A     -1.364229     6A     -1.052195  
       7A     -0.928685     8A     -0.810577     9A     -0.698502  
      10A     -0.637958    11A     -0.603122    12A     -0.589972  
      13A     -0.541760    14A     -0.510916    15A     -0.493147  
      16A     -0.469946    17A     -0.433038  

    Virtual:                                                              

      18A      0.136931    19A      0.163694    20A      0.178242  
      21A      0.190558    22A      0.217609    23A      0.221657  
      24A      0.234451    25A      0.254038    26A      0.313197  
      27A      0.330413    28A      0.360965    29A      0.393752  
      30A      0.400870    31A      0.433364    32A      0.443876  
      33A      0.511946    34A      0.533605    35A      0.570879  
      36A      0.572824    37A      0.595198    38A      0.603077  
      39A      0.616470    40A      0.627353    41A      0.649476  
      42A      0.664610    43A      0.667244    44A      0.683621  
      45A      0.690301    46A      0.729662    47A      0.753835  
      48A      0.790072    49A      0.810065    50A      0.847699  
      51A      0.878845    52A      0.901105    53A      0.929855  
      54A      0.967508    55A      0.990975    56A      1.015515  
      57A      1.034858    58A      1.112959    59A      1.116016  
      60A      1.173939    61A      1.191114    62A      1.201481  
      63A      1.226359    64A      1.257802    65A      1.268275  
      66A      1.282504    67A      1.285041    68A      1.331164  
      69A      1.351113    70A      1.368044    71A      1.391331  
      72A      1.397763    73A      1.417095    74A      1.437332  
      75A      1.459962    76A      1.491459    77A      1.510839  
      78A      1.529563    79A      1.556123    80A      1.579232  
      81A      1.593152    82A      1.626982    83A      1.635955  
      84A      1.660614    85A      1.683539    86A      1.738940  
      87A      1.775768    88A      1.823347    89A      1.850461  
      90A      1.864883    91A      1.904641    92A      2.170722  
      93A      2.241941    94A      2.264220    95A      2.371655  
      96A      2.440333    97A      2.525098    98A      2.566178  
      99A      2.638445   100A      2.662452   101A      2.678983  
     102A      2.696309   103A      2.756296   104A      2.821244  
     105A      2.823765   106A      2.838904   107A      2.855571  
     108A      2.911874   109A      2.950476   110A      3.003911  
     111A      3.022779   112A      3.060659   113A      3.092841  
     114A      3.126297   115A      3.153929   116A      3.180965  
     117A      3.189967   118A      3.218583   119A      3.228311  
     120A      3.265020   121A      3.313047   122A      3.328952  
     123A      3.372762   124A      3.378571   125A      3.387783  
     126A      3.395832   127A      3.408903   128A      3.429152  
     129A      3.448576   130A      3.469671   131A      3.503120  
     132A      3.521572   133A      3.540833   134A      3.585903  
     135A      3.591863   136A      3.624299   137A      3.654341  
     138A      3.705070   139A      3.710383   140A      3.740898  
     141A      3.757916   142A      3.775949   143A      3.820250  
     144A      3.846913   145A      3.862133   146A      3.896053  
     147A      3.902970   148A      3.927841   149A      3.963018  
     150A      4.021077   151A      4.048342   152A      4.068142  
     153A      4.088481   154A      4.113365   155A      4.128123  
     156A      4.141285   157A      4.171255   158A      4.200654  
     159A      4.220699   160A      4.233638   161A      4.245960  
     162A      4.275636   163A      4.308622   164A      4.310058  
     165A      4.360563   166A      4.368241   167A      4.389274  
     168A      4.394175   169A      4.411540   170A      4.450913  
     171A      4.477003   172A      4.480740   173A      4.519063  
     174A      4.570771   175A      4.599992   176A      4.611985  
     177A      4.634502   178A      4.654719   179A      4.683014  
     180A      4.720117   181A      4.745024   182A      4.769864  
     183A      4.782656   184A      4.891107   185A      4.918327  
     186A      4.954942   187A      5.066147   188A      5.122929  
     189A      5.175052   190A      5.194032   191A      5.203066  
     192A      5.216006   193A      5.257636   194A      5.274562  
     195A      5.304164   196A      5.346974   197A      5.397550  
     198A      5.432375   199A      5.472691   200A      5.511579  
     201A      5.578736   202A      5.624502   203A      5.711739  
     204A      5.723750   205A      5.736705   206A      5.746902  
     207A      5.781154   208A      5.819179   209A      5.864240  
     210A      5.874925   211A      5.935794   212A      6.010831  
     213A      6.074523   214A      6.206032   215A      6.311122  
     216A      6.329610   217A      6.333190   218A      6.367019  
     219A      6.504061   220A      6.745137   221A      7.087839  
     222A      7.190482   223A      7.251684   224A      7.313505  
     225A      7.418074   226A      7.542431   227A      7.697541  
     228A      8.031921   229A     12.776531   230A     13.033356  
     231A     13.717897   232A     14.204750  

    Final Occupation by Irrep:
              A 
    DOCC [    17 ]

  Energy converged.

  @DF-RHF Final Energy:  -193.19060535098407

   => Energetics <=

    Nuclear Repulsion Energy =            133.2221119513160943
    One-Electron Energy =                -526.0678674656905969
    Two-Electron Energy =                 199.6551501633903456
    DFT Exchange-Correlation Energy =       0.0000000000000000
    Empirical Dispersion Energy =           0.0000000000000000
    PCM Polarization Energy =               0.0000000000000000
    EFP Energy =                            0.0000000000000000
    Total Energy =                       -193.1906053509841570

    Alert: EFP and PCM quantities not currently incorporated into SCF psivars.

Properties will be evaluated at   0.000000,   0.000000,   0.000000 Bohr
  ==> Properties <==


Properties computed using the SCF density matrix

  Nuclear Dipole Moment: (a.u.)
     X:     3.9205      Y:     0.4852      Z:     0.9398

  Electronic Dipole Moment: (a.u.)
     X:    -3.3604      Y:    -0.4970      Z:    -0.5750

  Dipole Moment: (a.u.)
     X:     0.5602      Y:    -0.0118      Z:     0.3647     Total:     0.6685

  Dipole Moment: (Debye)
     X:     1.4238      Y:    -0.0300      Z:     0.9270     Total:     1.6993


  Saving occupied orbitals to File 180.

*** tstop() called on cx1-27-1-3 at Fri Sep  9 21:19:30 2016
Module time:
	user time   =      15.63 seconds =       0.26 minutes
	system time =       0.22 seconds =       0.00 minutes
	total time  =          5 seconds =       0.08 minutes
Total time:
	user time   =      15.63 seconds =       0.26 minutes
	system time =       0.22 seconds =       0.00 minutes
	total time  =          5 seconds =       0.08 minutes

*** tstart() called on cx1-27-1-3
*** at Fri Sep  9 21:19:30 2016


         ------------------------------------------------------------
                                   SCF GRAD                          
                          Rob Parrish, Justin Turney,                
                       Andy Simmonett, and Alex Sokolov              
         ------------------------------------------------------------

  ==> Geometry <==

    Molecular point group: c1
    Full point group: C1

    Geometry (in Angstrom), charge = 0, multiplicity = 1:

       Center              X                  Y                   Z               Mass       
    ------------   -----------------  -----------------  -----------------  -----------------
           H         -1.067898423225    -1.366270042590     0.127464778515     1.007825032070
           O         -1.432400423225    -0.565218042590    -0.200389221485    15.994914619560
           C         -0.727505423225     0.534552957410     0.311108778515    12.000000000000
           C          0.679874576775     0.664458957410    -0.251806221485    12.000000000000
           H         -1.307149423225     1.408026957410     0.044633778515     1.007825032070
           H         -0.691168423225     0.490183957410     1.398031778515     1.007825032070
           C          1.605043576775    -0.489334042590     0.123520778515    12.000000000000
           H          0.614741576775     0.745672957410    -1.331803221485     1.007825032070
           H          1.101066576775     1.597918957410     0.111372778515     1.007825032070
           H          1.247279576775    -1.432459042590    -0.274781221485     1.007825032070
           H          2.601087576775    -0.332790042590    -0.272639221485     1.007825032070
           H          1.691428576775    -0.589876042590     1.201196778515     1.007825032070

  Nuclear repulsion =  133.222111951316094

  ==> Basis Set <==

  Basis Set: CC-PVTZ
    Number of shells: 88
    Number of basis function: 232
    Number of Cartesian functions: 260
    Spherical Harmonics?: true
    Max angular momentum: 3

  ==> DFJKGrad: Density-Fitted SCF Gradients <==

    Gradient:                    1
    J tasked:                  Yes
    K tasked:                  Yes
    wK tasked:                  No
    OpenMP threads:              4
    Integrals threads:           4
    Memory (MB):              1430
    Schwarz Cutoff:          0E+00
    Fitting Condition:       1E-12

   => Auxiliary Basis Set <=

  Basis Set: 
    Number of shells: 180
    Number of basis function: 556
    Number of Cartesian functions: 664
    Spherical Harmonics?: true
    Max angular momentum: 4


  -Total Gradient:
     Atom            X                  Y                   Z
    ------   -----------------  -----------------  -----------------
       1        0.000136471289    -0.000108827178    -0.000111365367
       2       -0.000046302407    -0.000118810147     0.000049131945
       3       -0.000046663588     0.000176856268     0.000051608022
       4        0.000008144684    -0.000157256675     0.000010500268
       5        0.000048980082     0.000099582568     0.000015093626
       6       -0.000025830331     0.000039986925    -0.000024147169
       7       -0.000009983260    -0.000119653893    -0.000113151109
       8       -0.000002463660    -0.000003341069    -0.000003054458
       9       -0.000018161086     0.000061881386     0.000010351900
      10       -0.000120100781     0.000075321532     0.000031426765
      11        0.000039976425     0.000038834284     0.000019646803
      12        0.000035932635     0.000015426000     0.000063958775


*** tstop() called on cx1-27-1-3 at Fri Sep  9 21:19:39 2016
Module time:
	user time   =      31.92 seconds =       0.53 minutes
	system time =       0.35 seconds =       0.01 minutes
	total time  =          9 seconds =       0.15 minutes
Total time:
	user time   =      47.58 seconds =       0.79 minutes
	system time =       0.58 seconds =       0.01 minutes
	total time  =         14 seconds =       0.23 minutes
CURRENT ENERGY: -193.1906053510

			-----------------------------------------
			 OPTKING 2.0: for geometry optimizations 
			  - R.A. King,  Bethel University        
			-----------------------------------------

	Internal coordinates to be generated automatically.
	Detected frag with atoms:  1 2 3 4 5 6 7 8 9 10 11 12
	---Fragment 1 Bond Connectivity---
	 1 : 2
	 2 : 1 3
	 3 : 2 4 5 6
	 4 : 3 7 8 9
	 5 : 3
	 6 : 3
	 7 : 4 10 11 12
	 8 : 4
	 9 : 4
	 10 : 7
	 11 : 7
	 12 : 7

	Assuming in current code that numbering for constraints corresponds to unified fragment.
	Frozen dihedral atom list: 
	     1     2     3     4
	---Fragment 1 Geometry and Gradient---
	 H          -2.0180355576       -2.5818762041        0.2408735230
	 O          -2.7068445125       -1.0681073059       -0.3786807486
	 C          -1.3747860101        1.0101586930        0.5879103889
	 C           1.2847767548        1.2556454560       -0.4758447972
	 H          -2.4701544247        2.6607853372        0.0843456177
	 H          -1.3061190316        0.9263134342        2.6418971865
	 C           3.0330927915       -0.9247073280        0.2334204431
	 H           1.1616932226        1.4091176742       -2.5167433515
	 H           2.0807142842        3.0196292121        0.2104640501
	 H           2.3570168112       -2.7069552871       -0.5192612551
	 H           4.9153431678       -0.6288820402       -0.5152134617
	 H           3.1963367834       -1.1147041728        2.2699329431
	             0.0001364713       -0.0001088272       -0.0001113654
	            -0.0000463024       -0.0001188101        0.0000491319
	            -0.0000466636        0.0001768563        0.0000516080
	             0.0000081447       -0.0001572567        0.0000105003
	             0.0000489801        0.0000995826        0.0000150936
	            -0.0000258303        0.0000399869       -0.0000241472
	            -0.0000099833       -0.0001196539       -0.0001131511
	            -0.0000024637       -0.0000033411       -0.0000030545
	            -0.0000181611        0.0000618814        0.0000103519
	            -0.0001201008        0.0000753215        0.0000314268
	             0.0000399764        0.0000388343        0.0000196468
	             0.0000359326        0.0000154260        0.0000639588

	Previous optimization step data not found.  Starting new optimization.

	---Fragment 1 Intrafragment Coordinates---
	 - Coordinate -           - BOHR/RAD -       - ANG/DEG -
	 R(1,2)           =         1.774768	       0.939167
	 R(2,3)           =         2.651013	       1.402856
	 R(3,4)           =         2.874911	       1.521337
	 R(3,5)           =         2.044010	       1.081644
	 R(3,6)           =         2.056844	       1.088435
	 R(4,7)           =         2.883332	       1.525794
	 R(4,8)           =         2.050359	       1.085003
	 R(4,9)           =         2.053333	       1.086577
	 R(7,10)          =         2.049394	       1.084493
	 R(7,11)          =         2.047152	       1.083306
	 R(7,12)          =         2.051860	       1.085798
	 B(1,2,3)         =         1.924490	     110.265156
	 B(2,3,4)         =         1.978893	     113.382232
	 B(2,3,5)         =         1.848323	     105.901135
	 B(2,3,6)         =         1.927218	     110.421477
	 B(3,4,7)         =         1.988151	     113.912659
	 B(3,4,8)         =         1.895644	     108.612374
	 B(3,4,9)         =         1.884180	     107.955537
	 B(4,3,5)         =         1.913079	     109.611328
	 B(4,3,6)         =         1.919943	     110.004636
	 B(4,7,10)        =         1.946842	     111.545833
	 B(4,7,11)        =         1.937220	     110.994545
	 B(4,7,12)        =         1.941649	     111.248293
	 B(5,3,6)         =         1.872166	     107.267199
	 B(7,4,8)         =         1.915433	     109.746220
	 B(7,4,9)         =         1.909613	     109.412738
	 B(8,4,9)         =         1.866764	     106.957685
	 B(10,7,11)       =         1.869914	     107.138184
	 B(10,7,12)       =         1.886244	     108.073817
	 B(11,7,12)       =         1.878835	     107.649326
	*D(1,2,3,4)       =         1.221731	      70.000022
	 D(1,2,3,5)       =        -2.963142	    -169.775503
	 D(1,2,3,6)       =        -0.941859	     -53.964533
	 D(2,3,4,7)       =        -1.128270	     -64.645105
	 D(2,3,4,8)       =         1.012134	      57.991008
	 D(2,3,4,9)       =         3.030366	     173.627170
	 D(3,4,7,10)      =         1.091115	      62.516294
	 D(3,4,7,11)      =        -3.108195	    -178.086443
	 D(3,4,7,12)      =        -1.016503	     -58.241330
	 D(5,3,4,7)       =         3.093776	     177.260279
	 D(5,3,4,8)       =        -1.049006	     -60.103608
	 D(5,3,4,9)       =         0.969226	      55.532554
	 D(6,3,4,7)       =         1.039279	      59.546321
	 D(6,3,4,8)       =        -3.103502	    -177.817567
	 D(6,3,4,9)       =        -1.085270	     -62.181405
	 D(8,4,7,10)      =        -1.038410	     -59.496534
	 D(8,4,7,11)      =         1.045465	      59.900730
	 D(8,4,7,12)      =         3.137157	     179.745843
	 D(9,4,7,10)      =        -3.081654	    -176.565774
	 D(9,4,7,11)      =        -0.997779	     -57.168511
	 D(9,4,7,12)      =         1.093913	      62.676603

	Current energy   :      -193.1906053510

	Generating empirical Hessian (Schlegel '84) for each fragment.
	Taking RFO optimization step.
	Going to follow RFO solution 1.
	Using RFO vector 1.
	Norm of target step-size    0.02982
	Projected energy change by RFO approximation:         0.0000011041

	Back-transformation to cartesian coordinates...
	Successfully converged to displaced geometry.

	Back-transformation to cartesian coordinates to adjust frozen coordinates...
	Successfully converged to displaced geometry.

	--- Internal Coordinate Step in ANG or DEG, aJ/ANG or AJ/DEG ---
	 ---------------------------------------------------------------------------
	   Coordinate                Previous        Force       Change         New 
	   ----------                --------       ------       ------       ------
	    1 R(1,2)          =      0.939167    -0.000881    -0.000094     0.939073
	    2 R(2,3)          =      1.402856    -0.001284    -0.000183     1.402673
	    3 R(3,4)          =      1.521337     0.000630     0.000134     1.521471
	    4 R(3,5)          =      1.081644    -0.000416    -0.000075     1.081569
	    5 R(3,6)          =      1.088435     0.000219     0.000040     1.088475
	    6 R(4,7)          =      1.525794     0.000329     0.000071     1.525865
	    7 R(4,8)          =      1.085003    -0.000024    -0.000004     1.084999
	    8 R(4,9)          =      1.086577    -0.000408    -0.000075     1.086502
	    9 R(7,10)         =      1.084493     0.000308     0.000056     1.084549
	   10 R(7,11)         =      1.083306    -0.000290    -0.000052     1.083254
	   11 R(7,12)         =      1.085798    -0.000535    -0.000097     1.085700
	   12 B(1,2,3)        =    110.265156    -0.000003    -0.013763   110.251393
	   13 B(2,3,4)        =    113.382232     0.000026     0.089132   113.471363
	   14 B(2,3,5)        =    105.901135    -0.000014    -0.062982   105.838153
	   15 B(2,3,6)        =    110.421477    -0.000008    -0.025729   110.395748
	   16 B(3,4,7)        =    113.912659     0.000010     0.037912   113.950572
	   17 B(3,4,8)        =    108.612374    -0.000002     0.019639   108.632012
	   18 B(3,4,9)        =    107.955537    -0.000002    -0.019650   107.935887
	   19 B(4,3,5)        =    109.611328    -0.000000     0.018568   109.629896
	   20 B(4,3,6)        =    110.004636    -0.000008    -0.028779   109.975857
	   21 B(4,7,10)       =    111.545833     0.000012     0.056388   111.602222
	   22 B(4,7,11)       =    110.994545    -0.000001    -0.012486   110.982059
	   23 B(4,7,12)       =    111.248293    -0.000002     0.000066   111.248359
	   24 B(5,3,6)        =    107.267199     0.000003     0.005506   107.272705
	   25 B(7,4,8)        =    109.746220    -0.000002     0.012526   109.758746
	   26 B(7,4,9)        =    109.412738    -0.000006    -0.047388   109.365349
	   27 B(8,4,9)        =    106.957685     0.000002    -0.005761   106.951923
	   28 B(10,7,11)      =    107.138184    -0.000008    -0.050829   107.087356
	   29 B(10,7,12)      =    108.073817    -0.000004    -0.004435   108.069381
	   30 B(11,7,12)      =    107.649326     0.000002     0.008169   107.657495
	   31 *D(1,2,3,4)     =     70.000022     0.000000     0.000000    70.000022
	   32 D(1,2,3,5)      =   -169.775503     0.000001     0.032756  -169.742746
	   33 D(1,2,3,6)      =    -53.964533    -0.000000    -0.008193   -53.972726
	   34 D(2,3,4,7)      =    -64.645105    -0.000001    -0.150599   -64.795704
	   35 D(2,3,4,8)      =     57.991008    -0.000000    -0.093874    57.897134
	   36 D(2,3,4,9)      =    173.627170    -0.000000    -0.100821   173.526348
	   37 D(3,4,7,10)     =     62.516294     0.000001     0.609591    63.125885
	   38 D(3,4,7,11)     =   -178.086443     0.000000     0.574399  -177.512044
	   39 D(3,4,7,12)     =    -58.241330     0.000000     0.576411   -57.664919
	   40 D(5,3,4,7)      =    177.260279    -0.000000    -0.140428   177.119851
	   41 D(5,3,4,8)      =    -60.103608     0.000000    -0.083703   -60.187311
	   42 D(5,3,4,9)      =     55.532554     0.000000    -0.090651    55.441903
	   43 D(6,3,4,7)      =     59.546321    -0.000000    -0.141156    59.405164
	   44 D(6,3,4,8)      =   -177.817567     0.000000    -0.084431  -177.901998
	   45 D(6,3,4,9)      =    -62.181405     0.000000    -0.091379   -62.272784
	   46 D(8,4,7,10)     =    -59.496534     0.000000     0.548103   -58.948430
	   47 D(8,4,7,11)     =     59.900730    -0.000000     0.512911    60.413641
	   48 D(8,4,7,12)     =    179.745843    -0.000000     0.514923   180.260766
	   49 D(9,4,7,10)     =   -176.565774     0.000001     0.575452  -175.990322
	   50 D(9,4,7,11)     =    -57.168511     0.000000     0.540260   -56.628251
	   51 D(9,4,7,12)     =     62.676603     0.000000     0.542271    63.218874
	 ---------------------------------------------------------------------------

  ==> Convergence Check <==

  Measures of convergence in internal coordinates in au.
  Criteria marked as inactive (o), active & met (*), and active & unmet ( ).
  --------------------------------------------------------------------------------------------- ~
   Step     Total Energy     Delta E     MAX Force     RMS Force      MAX Disp      RMS Disp    ~
  --------------------------------------------------------------------------------------------- ~
    Convergence Criteria    1.00e-06 *    3.00e-04 *             o    1.20e-03 *             o  ~
  --------------------------------------------------------------------------------------------- ~
      1    -193.19060535   -1.93e+02      3.40e-04      7.84e-05 o    1.06e-02      4.18e-03 o  ~
  ---------------------------------------------------------------------------------------------

	Writing optimization data to binary file.
	Structure for next step:
	Cartesian Geometry (in Angstrom)
	    H    -1.0718871082  -1.3651831773   0.1295194732
	    O    -1.4355189517  -0.5637034144  -0.1979862138
	    C    -0.7273063159   0.5346567365   0.3114557808
	    C     0.6796135246   0.6632975898  -0.2532594302
	    H    -1.3067433661   1.4084372787   0.0458394527
	    H    -0.6891145114   0.4903392281   1.3983576620
	    C     1.6059887245  -0.4892235858   0.1232862724
	    H     0.6136748007   0.7430411822  -1.3333127773
	    H     1.1011411383   1.5971872849   0.1081987616
	    H     1.2547282176  -1.4322926812  -0.2810432836
	    H     2.6038744538  -0.3279047218  -0.2661230007
	    H     1.6859496444  -0.5937841799   1.2009777204
			--------------------------
			 OPTKING Finished Execution 
			--------------------------

    Structure for next step:
    Molecular point group: c1
    Full point group: C1

    Geometry (in Angstrom), charge = 0, multiplicity = 1:

    H           -1.071270467180    -1.365387691573     0.129165189267
    O           -1.434902282948    -0.563907989895    -0.198340472724
    C           -0.726689701243     0.534452077115     0.311101482985
    C            0.680230031912     0.663092920641    -0.253613684931
    H           -1.306126707111     1.408232552587     0.045485175179
    H           -0.688497899573     0.490134572125     1.398003281207
    C            1.606605160986    -0.489428167008     0.122931988924
    H            0.614291313013     0.742836506960    -1.333666949463
    H            1.101757613410     1.596982544406     0.107844479343
    H            1.255344680982    -1.432497190385    -0.281397536208
    H            2.604490814165    -0.328109315238    -0.266477254394
    H            1.686566074827    -0.593988753064     1.200623354640

gradient() will perform analytic gradient computation.

*** tstart() called on cx1-27-1-3
*** at Fri Sep  9 21:19:40 2016


         ---------------------------------------------------------
                                   SCF
            by Justin Turney, Rob Parrish, and Andy Simmonett
                              RHF Reference
                        4 Threads,   2000 MiB Core
         ---------------------------------------------------------

  ==> Geometry <==

    Molecular point group: c1
    Full point group: C1

    Geometry (in Angstrom), charge = 0, multiplicity = 1:

       Center              X                  Y                   Z               Mass       
    ------------   -----------------  -----------------  -----------------  -----------------
           H         -1.071270467180    -1.365387691573     0.129165189267     1.007825032070
           O         -1.434902282948    -0.563907989895    -0.198340472724    15.994914619560
           C         -0.726689701243     0.534452077115     0.311101482985    12.000000000000
           C          0.680230031912     0.663092920641    -0.253613684931    12.000000000000
           H         -1.306126707111     1.408232552587     0.045485175179     1.007825032070
           H         -0.688497899573     0.490134572125     1.398003281207     1.007825032070
           C          1.606605160986    -0.489428167008     0.122931988924    12.000000000000
           H          0.614291313013     0.742836506960    -1.333666949463     1.007825032070
           H          1.101757613410     1.596982544406     0.107844479343     1.007825032070
           H          1.255344680982    -1.432497190385    -0.281397536208     1.007825032070
           H          2.604490814165    -0.328109315238    -0.266477254394     1.007825032070
           H          1.686566074827    -0.593988753064     1.200623354640     1.007825032070

  Running in c1 symmetry.

  Rotational constants: A =      0.48865  B =      0.16818  C =      0.14223 [cm^-1]
  Rotational constants: A =  14649.39549  B =   5041.84693  C =   4263.98767 [MHz]
  Nuclear repulsion =  133.196599460951802

  Charge       = 0
  Multiplicity = 1
  Electrons    = 34
  Nalpha       = 17
  Nbeta        = 17

  ==> Algorithm <==

  SCF Algorithm Type is DF.
  DIIS enabled.
  MOM disabled.
  Fractional occupation disabled.
  Guess Type is READ.
  Energy threshold   = 1.00e-08
  Density threshold  = 1.00e-08
  Integral threshold = 0.00e+00

  ==> Primary Basis <==

  Basis Set: CC-PVTZ
    Number of shells: 88
    Number of basis function: 232
    Number of Cartesian functions: 260
    Spherical Harmonics?: true
    Max angular momentum: 3

  ==> Pre-Iterations <==

   -------------------------------------------------------
    Irrep   Nso     Nmo     Nalpha   Nbeta   Ndocc  Nsocc
   -------------------------------------------------------
     A        232     232       0       0       0       0
   -------------------------------------------------------
    Total     232     232      17      17      17       0
   -------------------------------------------------------

 OEINTS: Overlap, kinetic, potential, dipole, and quadrupole integrals
         stored in file 35.

  ==> Integral Setup <==

  ==> DFJK: Density-Fitted J/K Matrices <==

    J tasked:                  Yes
    K tasked:                  Yes
    wK tasked:                  No
    OpenMP threads:              4
    Integrals threads:           4
    Memory (MB):              1430
    Algorithm:                Core
    Integral Cache:           NONE
    Schwarz Cutoff:          1E-12
    Fitting Condition:       1E-12

   => Auxiliary Basis Set <=

  Basis Set: 
    Number of shells: 180
    Number of basis function: 556
    Number of Cartesian functions: 664
    Spherical Harmonics?: true
    Max angular momentum: 4

  Minimum eigenvalue in the overlap matrix is 7.7205812913E-04.
  Using Symmetric Orthogonalization.
  SCF Guess: Reading in previously saved MOs, projecting if necessary.

  Using orbitals from previous SCF, no projection.
  Recomputing DOCC and SOCC from number of alpha and beta electrons from previous calculation.
              A 
    DOCC [    17 ]

  ==> Iterations <==

                           Total Energy        Delta E     RMS |[F,P]|

   @DF-RHF iter   0:  -193.19065686684564   -1.93191e+02   2.83064e-05 
   @DF-RHF iter   1:  -193.19060369606279    5.31708e-05   5.94070e-06 
   @DF-RHF iter   2:  -193.19060548984550   -1.79378e-06   2.06616e-06 DIIS
   @DF-RHF iter   3:  -193.19060577054870   -2.80703e-07   5.73597e-07 DIIS
   @DF-RHF iter   4:  -193.19060578111601   -1.05673e-08   1.53576e-07 DIIS
   @DF-RHF iter   5:  -193.19060578228687   -1.17086e-09   4.18649e-08 DIIS
   @DF-RHF iter   6:  -193.19060578236241   -7.55449e-11   1.33414e-08 DIIS
   @DF-RHF iter   7:  -193.19060578237259   -1.01750e-11   3.90965e-09 DIIS

  ==> Post-Iterations <==

    Orbital Energies (a.u.)
    -----------------------

    Doubly Occupied:                                                      

       1A    -20.546163     2A    -11.265954     3A    -11.217307  
       4A    -11.215311     5A     -1.364309     6A     -1.052180  
       7A     -0.928659     8A     -0.810661     9A     -0.698544  
      10A     -0.637838    11A     -0.603018    12A     -0.590011  
      13A     -0.541919    14A     -0.510938    15A     -0.493115  
      16A     -0.469958    17A     -0.432995  

    Virtual:                                                              

      18A      0.136878    19A      0.163756    20A      0.178217  
      21A      0.190606    22A      0.217592    23A      0.221399  
      24A      0.234579    25A      0.253709    26A      0.313322  
      27A      0.330483    28A      0.361220    29A      0.393510  
      30A      0.400979    31A      0.433772    32A      0.443815  
      33A      0.511445    34A      0.533530    35A      0.571167  
      36A      0.572802    37A      0.595255    38A      0.603237  
      39A      0.616680    40A      0.627267    41A      0.649551  
      42A      0.664670    43A      0.667460    44A      0.683581  
      45A      0.690310    46A      0.729557    47A      0.754074  
      48A      0.790029    49A      0.809471    50A      0.847403  
      51A      0.878682    52A      0.902287    53A      0.929690  
      54A      0.967121    55A      0.991242    56A      1.014870  
      57A      1.034697    58A      1.112959    59A      1.116115  
      60A      1.174112    61A      1.190908    62A      1.201016  
      63A      1.226430    64A      1.257968    65A      1.267905  
      66A      1.282781    67A      1.285041    68A      1.331355  
      69A      1.350453    70A      1.367482    71A      1.391221  
      72A      1.398176    73A      1.417251    74A      1.437775  
      75A      1.460113    76A      1.491441    77A      1.510803  
      78A      1.529814    79A      1.556769    80A      1.579182  
      81A      1.592759    82A      1.626250    83A      1.636249  
      84A      1.660758    85A      1.683206    86A      1.738860  
      87A      1.775963    88A      1.823273    89A      1.850731  
      90A      1.864695    91A      1.904928    92A      2.170037  
      93A      2.242037    94A      2.264067    95A      2.371450  
      96A      2.440335    97A      2.524535    98A      2.565782  
      99A      2.638119   100A      2.661950   101A      2.678584  
     102A      2.696517   103A      2.756812   104A      2.821238  
     105A      2.823409   106A      2.839117   107A      2.855496  
     108A      2.912108   109A      2.950457   110A      3.003634  
     111A      3.022962   112A      3.061728   113A      3.093197  
     114A      3.126407   115A      3.153532   116A      3.180493  
     117A      3.189850   118A      3.219009   119A      3.228479  
     120A      3.264816   121A      3.312180   122A      3.328841  
     123A      3.372521   124A      3.377811   125A      3.387788  
     126A      3.395098   127A      3.409319   128A      3.429146  
     129A      3.448862   130A      3.470247   131A      3.502742  
     132A      3.521520   133A      3.540566   134A      3.586417  
     135A      3.592006   136A      3.624733   137A      3.653952  
     138A      3.705666   139A      3.710768   140A      3.740298  
     141A      3.757476   142A      3.775632   143A      3.820004  
     144A      3.847020   145A      3.862446   146A      3.895587  
     147A      3.903070   148A      3.928104   149A      3.963363  
     150A      4.020391   151A      4.047789   152A      4.067877  
     153A      4.089025   154A      4.113118   155A      4.127606  
     156A      4.140125   157A      4.171430   158A      4.200575  
     159A      4.220964   160A      4.234130   161A      4.246101  
     162A      4.275100   163A      4.308363   164A      4.309442  
     165A      4.361113   166A      4.368127   167A      4.388539  
     168A      4.394394   169A      4.412094   170A      4.451325  
     171A      4.477560   172A      4.480459   173A      4.518715  
     174A      4.570756   175A      4.600418   176A      4.611460  
     177A      4.633893   178A      4.655033   179A      4.681841  
     180A      4.719478   181A      4.745010   182A      4.769472  
     183A      4.783298   184A      4.890472   185A      4.918820  
     186A      4.954814   187A      5.066194   188A      5.122581  
     189A      5.174996   190A      5.193832   191A      5.202785  
     192A      5.215914   193A      5.258095   194A      5.274667  
     195A      5.303979   196A      5.347112   197A      5.397684  
     198A      5.433431   199A      5.472237   200A      5.511632  
     201A      5.578498   202A      5.625018   203A      5.712313  
     204A      5.723945   205A      5.736450   206A      5.747005  
     207A      5.781245   208A      5.819013   209A      5.864264  
     210A      5.874493   211A      5.935864   212A      6.010437  
     213A      6.074495   214A      6.205987   215A      6.311249  
     216A      6.329835   217A      6.332826   218A      6.367240  
     219A      6.504097   220A      6.745547   221A      7.087717  
     222A      7.190389   223A      7.251740   224A      7.313977  
     225A      7.417846   226A      7.542672   227A      7.697322  
     228A      8.032348   229A     12.774757   230A     13.031095  
     231A     13.718238   232A     14.203770  

    Final Occupation by Irrep:
              A 
    DOCC [    17 ]

  Energy converged.

  @DF-RHF Final Energy:  -193.19060578237259

   => Energetics <=

    Nuclear Repulsion Energy =            133.1965994609518020
    One-Electron Energy =                -526.0166472398849464
    Two-Electron Energy =                 199.6294419965604732
    DFT Exchange-Correlation Energy =       0.0000000000000000
    Empirical Dispersion Energy =           0.0000000000000000
    PCM Polarization Energy =               0.0000000000000000
    EFP Energy =                            0.0000000000000000
    Total Energy =                       -193.1906057823726712

    Alert: EFP and PCM quantities not currently incorporated into SCF psivars.

Properties will be evaluated at   0.000000,   0.000000,   0.000000 Bohr
  ==> Properties <==


Properties computed using the SCF density matrix

  Nuclear Dipole Moment: (a.u.)
     X:     3.9272      Y:     0.4831      Z:     0.9361

  Electronic Dipole Moment: (a.u.)
     X:    -3.3662      Y:    -0.4962      Z:    -0.5726

  Dipole Moment: (a.u.)
     X:     0.5610      Y:    -0.0131      Z:     0.3635     Total:     0.6687

  Dipole Moment: (Debye)
     X:     1.4260      Y:    -0.0332      Z:     0.9240     Total:     1.6996


  Saving occupied orbitals to File 180.

*** tstop() called on cx1-27-1-3 at Fri Sep  9 21:19:44 2016
Module time:
	user time   =      13.32 seconds =       0.22 minutes
	system time =       0.20 seconds =       0.00 minutes
	total time  =          4 seconds =       0.07 minutes
Total time:
	user time   =      62.04 seconds =       1.03 minutes
	system time =       0.82 seconds =       0.01 minutes
	total time  =         19 seconds =       0.32 minutes

*** tstart() called on cx1-27-1-3
*** at Fri Sep  9 21:19:44 2016


         ------------------------------------------------------------
                                   SCF GRAD                          
                          Rob Parrish, Justin Turney,                
                       Andy Simmonett, and Alex Sokolov              
         ------------------------------------------------------------

  ==> Geometry <==

    Molecular point group: c1
    Full point group: C1

    Geometry (in Angstrom), charge = 0, multiplicity = 1:

       Center              X                  Y                   Z               Mass       
    ------------   -----------------  -----------------  -----------------  -----------------
           H         -1.071270467180    -1.365387691573     0.129165189267     1.007825032070
           O         -1.434902282948    -0.563907989895    -0.198340472724    15.994914619560
           C         -0.726689701243     0.534452077115     0.311101482985    12.000000000000
           C          0.680230031912     0.663092920641    -0.253613684931    12.000000000000
           H         -1.306126707111     1.408232552587     0.045485175179     1.007825032070
           H         -0.688497899573     0.490134572125     1.398003281207     1.007825032070
           C          1.606605160986    -0.489428167008     0.122931988924    12.000000000000
           H          0.614291313013     0.742836506960    -1.333666949463     1.007825032070
           H          1.101757613410     1.596982544406     0.107844479343     1.007825032070
           H          1.255344680982    -1.432497190385    -0.281397536208     1.007825032070
           H          2.604490814165    -0.328109315238    -0.266477254394     1.007825032070
           H          1.686566074827    -0.593988753064     1.200623354640     1.007825032070

  Nuclear repulsion =  133.196599460951802

  ==> Basis Set <==

  Basis Set: CC-PVTZ
    Number of shells: 88
    Number of basis function: 232
    Number of Cartesian functions: 260
    Spherical Harmonics?: true
    Max angular momentum: 3

  ==> DFJKGrad: Density-Fitted SCF Gradients <==

    Gradient:                    1
    J tasked:                  Yes
    K tasked:                  Yes
    wK tasked:                  No
    OpenMP threads:              4
    Integrals threads:           4
    Memory (MB):              1430
    Schwarz Cutoff:          0E+00
    Fitting Condition:       1E-12

   => Auxiliary Basis Set <=

  Basis Set: 
    Number of shells: 180
    Number of basis function: 556
    Number of Cartesian functions: 664
    Spherical Harmonics?: true
    Max angular momentum: 4


  -Total Gradient:
     Atom            X                  Y                   Z
    ------   -----------------  -----------------  -----------------
       1        0.000086302867     0.000048984794    -0.000117685495
       2       -0.000184665119    -0.000002929386     0.000179718195
       3        0.000024606587     0.000047721716    -0.000079533795
       4        0.000080803646    -0.000054885026     0.000026940804
       5       -0.000036998232    -0.000039109400     0.000000689034
       6       -0.000033740953    -0.000014412627    -0.000012026389
       7        0.000028904993     0.000009272912     0.000034392787
       8       -0.000014926269    -0.000006801222     0.000003050278
       9        0.000028759297    -0.000002630199    -0.000025454368
      10        0.000040141071     0.000028866063    -0.000024116003
      11       -0.000008885786    -0.000004863032     0.000018664322
      12       -0.000010302101    -0.000009214594    -0.000004639371


*** tstop() called on cx1-27-1-3 at Fri Sep  9 21:19:53 2016
Module time:
	user time   =      31.74 seconds =       0.53 minutes
	system time =       0.36 seconds =       0.01 minutes
	total time  =          9 seconds =       0.15 minutes
Total time:
	user time   =      93.80 seconds =       1.56 minutes
	system time =       1.18 seconds =       0.02 minutes
	total time  =         28 seconds =       0.47 minutes
CURRENT ENERGY: -193.1906057824

			-----------------------------------------
			 OPTKING 2.0: for geometry optimizations 
			  - R.A. King,  Bethel University        
			-----------------------------------------

	Previous internal coordinate definitions found.
	---Fragment 1 Geometry and Gradient---
	 H          -2.0244077972       -2.5802088023        0.2440868336
	 O          -2.7115723422       -1.0656316650       -0.3748091745
	 C          -1.3732445189        1.0099680569        0.5878966024
	 C           1.2854484677        1.2530640207       -0.4792604081
	 H          -2.4682217713        2.6611738558        0.0859545242
	 H          -1.3010724733        0.9262201096        2.6418433344
	 C           3.0360437579       -0.9248851974        0.2323077920
	 H           1.1608423474        1.4037575597       -2.5202652870
	 H           2.0820201542        3.0178596479        0.2037965309
	 H           2.3722576494       -2.7070273760       -0.5317642779
	 H           4.9217743544       -0.6200367474       -0.5035690314
	 H           3.1871479864       -1.1224760693        2.2688493290
	             0.0000863029        0.0000489848       -0.0001176855
	            -0.0001846651       -0.0000029294        0.0001797182
	             0.0000246066        0.0000477217       -0.0000795338
	             0.0000808036       -0.0000548850        0.0000269408
	            -0.0000369982       -0.0000391094        0.0000006890
	            -0.0000337410       -0.0000144126       -0.0000120264
	             0.0000289050        0.0000092729        0.0000343928
	            -0.0000149263       -0.0000068012        0.0000030503
	             0.0000287593       -0.0000026302       -0.0000254544
	             0.0000401411        0.0000288661       -0.0000241160
	            -0.0000088858       -0.0000048630        0.0000186643
	            -0.0000103021       -0.0000092146       -0.0000046394

	---Fragment 1 Intrafragment Coordinates---
	 - Coordinate -           - BOHR/RAD -       - ANG/DEG -
	 R(1,2)           =         1.774590	       0.939073
	 R(2,3)           =         2.650667	       1.402673
	 R(3,4)           =         2.875164	       1.521471
	 R(3,5)           =         2.043869	       1.081569
	 R(3,6)           =         2.056920	       1.088475
	 R(4,7)           =         2.883466	       1.525865
	 R(4,8)           =         2.050350	       1.084999
	 R(4,9)           =         2.053192	       1.086502
	 R(7,10)          =         2.049500	       1.084549
	 R(7,11)          =         2.047053	       1.083254
	 R(7,12)          =         2.051676	       1.085700
	 B(1,2,3)         =         1.924250	     110.251393
	 B(2,3,4)         =         1.980449	     113.471363
	 B(2,3,5)         =         1.847224	     105.838153
	 B(2,3,6)         =         1.926769	     110.395748
	 B(3,4,7)         =         1.988813	     113.950572
	 B(3,4,8)         =         1.895986	     108.632012
	 B(3,4,9)         =         1.883837	     107.935887
	 B(4,3,5)         =         1.913403	     109.629896
	 B(4,3,6)         =         1.919441	     109.975857
	 B(4,7,10)        =         1.947826	     111.602222
	 B(4,7,11)        =         1.937002	     110.982059
	 B(4,7,12)        =         1.941650	     111.248359
	 B(5,3,6)         =         1.872262	     107.272705
	 B(7,4,8)         =         1.915652	     109.758746
	 B(7,4,9)         =         1.908785	     109.365349
	 B(8,4,9)         =         1.866663	     106.951923
	 B(10,7,11)       =         1.869027	     107.087356
	 B(10,7,12)       =         1.886167	     108.069381
	 B(11,7,12)       =         1.878978	     107.657495
	*D(1,2,3,4)       =         1.221731	      70.000022
	 D(1,2,3,5)       =        -2.962570	    -169.742746
	 D(1,2,3,6)       =        -0.942002	     -53.972726
	 D(2,3,4,7)       =        -1.130898	     -64.795704
	 D(2,3,4,8)       =         1.010496	      57.897134
	 D(2,3,4,9)       =         3.028606	     173.526348
	 D(3,4,7,10)      =         1.101755	      63.125885
	 D(3,4,7,11)      =        -3.098170	    -177.512044
	 D(3,4,7,12)      =        -1.006443	     -57.664919
	 D(5,3,4,7)       =         3.091325	     177.119851
	 D(5,3,4,8)       =        -1.050467	     -60.187311
	 D(5,3,4,9)       =         0.967644	      55.441903
	 D(6,3,4,7)       =         1.036816	      59.405164
	 D(6,3,4,8)       =        -3.104976	    -177.901998
	 D(6,3,4,9)       =        -1.086865	     -62.272784
	 D(8,4,7,10)      =        -1.028844	     -58.948430
	 D(8,4,7,11)      =         1.054417	      60.413641
	 D(8,4,7,12)      =        -3.137041	    -179.739234
	 D(9,4,7,10)      =        -3.071611	    -175.990322
	 D(9,4,7,11)      =        -0.988349	     -56.628251
	 D(9,4,7,12)      =         1.103377	      63.218874

	Current energy   :      -193.1906057824

	Energy change for the previous step:
		Projected    :         0.0000011041
		Actual       :        -0.0000004314

	Performing BFGS update.
	Previous computed or guess Hessian on step 1.
	Steps to be used in Hessian update: 1
	Taking RFO optimization step.
	Going to follow RFO solution 1.
	Using RFO vector 1.
	Norm of target step-size    0.01700
	Projected energy change by RFO approximation:        -0.0000016647

	Back-transformation to cartesian coordinates...
	Successfully converged to displaced geometry.

	Back-transformation to cartesian coordinates to adjust frozen coordinates...
	Successfully converged to displaced geometry.

	--- Internal Coordinate Step in ANG or DEG, aJ/ANG or AJ/DEG ---
	 ---------------------------------------------------------------------------
	   Coordinate                Previous        Force       Change         New 
	   ----------                --------       ------       ------       ------
	    1 R(1,2)          =      0.939073     0.000407     0.000018     0.939091
	    2 R(2,3)          =      1.402673     0.000074    -0.000008     1.402665
	    3 R(3,4)          =      1.521471    -0.000985    -0.000112     1.521359
	    4 R(3,5)          =      1.081569     0.000098     0.000004     1.081574
	    5 R(3,6)          =      1.088475     0.000104     0.000014     1.088490
	    6 R(4,7)          =      1.525865    -0.000149    -0.000013     1.525851
	    7 R(4,8)          =      1.084999     0.000022     0.000002     1.085001
	    8 R(4,9)          =      1.086502    -0.000004    -0.000006     1.086496
	    9 R(7,10)         =      1.084549     0.000240     0.000030     1.084578
	   10 R(7,11)         =      1.083254     0.000129     0.000009     1.083264
	   11 R(7,12)         =      1.085700     0.000037    -0.000004     1.085697
	   12 B(1,2,3)        =    110.251393     0.000003     0.007679   110.259071
	   13 B(2,3,4)        =    113.471363    -0.000010    -0.013809   113.457555
	   14 B(2,3,5)        =    105.838153     0.000007     0.021913   105.860066
	   15 B(2,3,6)        =    110.395748     0.000004     0.001898   110.397646
	   16 B(3,4,7)        =    113.950572    -0.000005    -0.009231   113.941340
	   17 B(3,4,8)        =    108.632012     0.000002    -0.001609   108.630403
	   18 B(3,4,9)        =    107.935887     0.000001     0.001486   107.937373
	   19 B(4,3,5)        =    109.629896    -0.000001    -0.000868   109.629028
	   20 B(4,3,6)        =    109.975857     0.000000    -0.011925   109.963932
	   21 B(4,7,10)       =    111.602222    -0.000001     0.002640   111.604862
	   22 B(4,7,11)       =    110.982059    -0.000001    -0.000635   110.981424
	   23 B(4,7,12)       =    111.248359    -0.000000    -0.002233   111.246126
	   24 B(5,3,6)        =    107.272705     0.000000     0.005058   107.277764
	   25 B(7,4,8)        =    109.758746     0.000000    -0.005768   109.752978
	   26 B(7,4,9)        =    109.365349     0.000004     0.011817   109.377166
	   27 B(8,4,9)        =    106.951923    -0.000001     0.004187   106.956111
	   28 B(10,7,11)      =    107.087356     0.000001     0.003102   107.090458
	   29 B(10,7,12)      =    108.069381    -0.000000    -0.004354   108.065027
	   30 B(11,7,12)      =    107.657495     0.000000     0.001550   107.659044
	   31 *D(1,2,3,4)     =     70.000022    -0.000000     0.000000    70.000022
	   32 D(1,2,3,5)      =   -169.742746    -0.000001     0.005533  -169.737213
	   33 D(1,2,3,6)      =    -53.972726     0.000001     0.024474   -53.948252
	   34 D(2,3,4,7)      =    -64.795704     0.000001     0.174330   -64.621374
	   35 D(2,3,4,8)      =     57.897134     0.000000     0.159356    58.056490
	   36 D(2,3,4,9)      =    173.526348     0.000000     0.164233   173.690581
	   37 D(3,4,7,10)     =     63.125885    -0.000000    -0.294379    62.831507
	   38 D(3,4,7,11)     =   -177.512044    -0.000000    -0.289135  -177.801179
	   39 D(3,4,7,12)     =    -57.664919    -0.000000    -0.289089   -57.954008
	   40 D(5,3,4,7)      =    177.119851     0.000000     0.156048   177.275899
	   41 D(5,3,4,8)      =    -60.187311    -0.000000     0.141075   -60.046237
	   42 D(5,3,4,9)      =     55.441903    -0.000000     0.145951    55.587854
	   43 D(6,3,4,7)      =     59.405164     0.000000     0.157484    59.562649
	   44 D(6,3,4,8)      =   -177.901998    -0.000000     0.142511  -177.759487
	   45 D(6,3,4,9)      =    -62.272784     0.000000     0.147387   -62.125396
	   46 D(8,4,7,10)     =    -58.948430    -0.000000    -0.281485   -59.229915
	   47 D(8,4,7,11)     =     60.413641     0.000000    -0.276242    60.137399
	   48 D(8,4,7,12)     =   -179.739234     0.000000    -0.276195  -180.015430
	   49 D(9,4,7,10)     =   -175.990322    -0.000001    -0.290102  -176.280424
	   50 D(9,4,7,11)     =    -56.628251    -0.000000    -0.284858   -56.913109
	   51 D(9,4,7,12)     =     63.218874    -0.000000    -0.284812    62.934062
	 ---------------------------------------------------------------------------

  ==> Convergence Check <==

  Measures of convergence in internal coordinates in au.
  Criteria marked as inactive (o), active & met (*), and active & unmet ( ).
  ---------------------------------------------------------------------------------------------
   Step     Total Energy     Delta E     MAX Force     RMS Force      MAX Disp      RMS Disp   
  ---------------------------------------------------------------------------------------------
    Convergence Criteria    1.00e-06 *    3.00e-04 *             o    1.20e-03 *             o
  ---------------------------------------------------------------------------------------------
      2    -193.19060578   -4.31e-07 *    1.31e-04 *    3.62e-05 o    5.14e-03      2.38e-03 o  ~
  ---------------------------------------------------------------------------------------------


  **** Optimization is complete! (in 2 steps) ****

  ==> Optimization Summary <==

  Measures of convergence in internal coordinates in au.
  --------------------------------------------------------------------------------------------------------------- ~
   Step         Total Energy             Delta E       MAX Force       RMS Force        MAX Disp        RMS Disp  ~
  --------------------------------------------------------------------------------------------------------------- ~
      1    -193.190605350984   -193.190605350984      0.00033988      0.00007838      0.01063938      0.00417505  ~
      2    -193.190605782373     -0.000000431389      0.00013120      0.00003619      0.00513788      0.00238113  ~
  --------------------------------------------------------------------------------------------------------------- ~

	Writing optimization data to binary file.
	Final energy is   -193.1906057823726
	Final (previous) structure:
	Cartesian Geometry (in Angstrom)
	    H    -1.0712705490  -1.3653877958   0.1291651991
	    O    -1.4349023925  -0.5639080330  -0.1983404879
	    C    -0.7266897567   0.5344521179   0.3111015067
	    C     0.6802300839   0.6630929713  -0.2536137043
	    H    -1.3061268069   1.4082326601   0.0454851787
	    H    -0.6884979521   0.4901346096   1.3980033880
	    C     1.6066052837  -0.4894282044   0.1229319983
	    H     0.6142913599   0.7428365637  -1.3336670513
	    H     1.1017576975   1.5969826664   0.1078444876
	    H     1.2553447768  -1.4324972998  -0.2813975577
	    H     2.6044910131  -0.3281093403  -0.2664772747
	    H     1.6865662036  -0.5939887984   1.2006234463
	Saving final (previous) structure.
			--------------------------
			 OPTKING Finished Execution 
			--------------------------

    Final optimized geometry and variables:
    Molecular point group: c1
    Full point group: C1

    Geometry (in Angstrom), charge = 0, multiplicity = 1:

    H           -1.071270467180    -1.365387691573     0.129165189267
    O           -1.434902282948    -0.563907989895    -0.198340472724
    C           -0.726689701243     0.534452077115     0.311101482985
    C            0.680230031912     0.663092920641    -0.253613684931
    H           -1.306126707111     1.408232552587     0.045485175179
    H           -0.688497899573     0.490134572125     1.398003281207
    C            1.606605160986    -0.489428167008     0.122931988924
    H            0.614291313013     0.742836506960    -1.333666949463
    H            1.101757613410     1.596982544406     0.107844479343
    H            1.255344680982    -1.432497190385    -0.281397536208
    H            2.604490814165    -0.328109315238    -0.266477254394
    H            1.686566074827    -0.593988753064     1.200623354640

	Cleaning optimization helper files.


Properties will be evaluated at   0.000000,   0.000000,   0.000000 Bohr

Properties computed using the  density matrix

  Nuclear Dipole Moment: (a.u.)
     X:     3.9272      Y:     0.4831      Z:     0.9361

  Electronic Dipole Moment: (a.u.)
     X:    -3.3662      Y:    -0.4962      Z:    -0.5726

  Dipole Moment: (a.u.)
     X:     0.5610      Y:    -0.0131      Z:     0.3635     Total:     0.6687

  Dipole Moment: (Debye)
     X:     1.4260      Y:    -0.0332      Z:     0.9240     Total:     1.6996

  Quadrupole Moment: (Debye Ang)
    XX:   -30.3201     YY:   -24.0532     ZZ:   -26.7835
    XY:    -0.4398     XZ:    -1.3226     YZ:    -0.7104

  Traceless Quadrupole Moment: (Debye Ang)
    XX:    -3.2679     YY:     2.9991     ZZ:     0.2688
    XY:    -0.4398     XZ:    -1.3226     YZ:    -0.7104

  Mulliken Charges: (a.u.)
   Center  Symbol    Alpha    Beta     Spin     Total
       1     H     0.39260  0.39260  0.00000  0.21480
       2     O     4.20526  4.20526  0.00000 -0.41053
       3     C     2.97573  2.97573  0.00000  0.04855
       4     C     3.08322  3.08322  0.00000 -0.16644
       5     H     0.45008  0.45008  0.00000  0.09984
       6     H     0.47070  0.47070  0.00000  0.05859
       7     C     3.15930  3.15930  0.00000 -0.31859
       8     H     0.45130  0.45130  0.00000  0.09741
       9     H     0.45648  0.45648  0.00000  0.08704
      10     H     0.45702  0.45702  0.00000  0.08596
      11     H     0.44464  0.44464  0.00000  0.11072
      12     H     0.45367  0.45367  0.00000  0.09266

   Total alpha = 17.00000, Total beta = 17.00000, Total charge = -0.00000


*** PSI4 exiting successfully. Buy a developer a beer!
