    -----------------------------------------------------------------------
          Psi4: An Open-Source Ab Initio Electronic Structure Package
                              Psi4 1.0.54 Driver

                          Git: Rev {master} 8d4cec3 dirty

    J. M. Turney, A. C. Simmonett, R. M. Parrish, E. G. Hohenstein,
    F. A. Evangelista, J. T. Fermann, B. J. Mintz, L. A. Burns, J. J. Wilke,
    M. L. Abrams, N. J. Russ, M. L. Leininger, C. L. Janssen, E. T. Seidl,
    W. D. Allen, H. F. Schaefer, R. A. King, E. F. Valeev, C. D. Sherrill,
    and T. D. Crawford, WIREs Comput. Mol. Sci. 2, 556-565 (2012)
    (doi: 10.1002/wcms.93)

                         Additional Contributions by
    A. E. DePrince, U. Bozkaya, A. Yu. Sokolov, D. G. A. Smith, R. Di Remigio,
    R. M. Richard, J. F. Gonthier, H. R. McAlexander, M. Saitow, and
    B. P. Pritchard
    -----------------------------------------------------------------------


    Psi4 started on: Sat Sep 10 15:36:54 2016

    Process ID:  39568
    PSI4DATADIR: /export131/home/mjharvey/miniconda3/share/psi4
    Memory level set to 256.000 MB

  ==> Input File <==

--------------------------------------------------------------------------
set {
	reference rhf
	basis cc-pvtz
}


set_num_threads( 4 )
memory 2 gb

molecule MOL {
0 1

H	 -0.939693	 0.000281	 1.681345
O	 -0.046262	 -0.000157	 1.387678
C	 -0.000837	 0.000006	 -0.025491
C	 -0.908523	 1.103150	 -0.566164
C	 1.439196	 0.207233	 -0.490795
C	 -0.510771	 -1.371598	 -0.446035
H	 -0.922412	 1.104705	 -1.649953
H	 -0.564976	 2.079563	 -0.238043
H	 -1.921152	 0.964647	 -0.208586
H	 1.511251	 0.175929	 -1.571820
H	 1.815052	 1.171341	 -0.161705
H	 2.080603	 -0.562428	 -0.080083
H	 -0.513186	 -1.468824	 -1.525307
H	 -1.519463	 -1.523666	 -0.083230
H	 0.118306	 -2.148695	 -0.030587

	symmetry c1
}
set optking {
	frozen_dihedral = ("
		4 3 2 1
	")
}

ee,wfn = optimize('scf', return_wfn=True)
oeprop( wfn, 'DIPOLE', 'QUADRUPOLE', 'MULLIKEN_CHARGES')
f=open( 'psi4out.xyz', 'w' )
f.write( "15  " )
f.write( str(ee) + "\n" )
f.write( MOL.save_string_xyz() )
f.close()
--------------------------------------------------------------------------

  Memory set to   2.000 GiB by Python script.
gradient() will perform analytic gradient computation.

*** tstart() called on cx1-27-1-4
*** at Sat Sep 10 15:36:54 2016


         ---------------------------------------------------------
                                   SCF
            by Justin Turney, Rob Parrish, and Andy Simmonett
                              RHF Reference
                        4 Threads,   2000 MiB Core
         ---------------------------------------------------------

  ==> Geometry <==

    Molecular point group: c1
    Full point group: C1

    Geometry (in Angstrom), charge = 0, multiplicity = 1:

       Center              X                  Y                   Z               Mass       
    ------------   -----------------  -----------------  -----------------  -----------------
           H         -0.921149950214     0.013049283011     1.681942582837     1.007825032070
           O         -0.027718950214     0.012611283011     1.388275582837    15.994914619560
           C          0.017706049786     0.012774283011    -0.024893417163    12.000000000000
           C         -0.889979950214     1.115918283011    -0.565566417163    12.000000000000
           C          1.457739049786     0.220001283011    -0.490197417163    12.000000000000
           C         -0.492227950214    -1.358829716989    -0.445437417163    12.000000000000
           H         -0.903868950214     1.117473283011    -1.649355417163     1.007825032070
           H         -0.546432950214     2.092331283011    -0.237445417163     1.007825032070
           H         -1.902608950214     0.977415283011    -0.207988417163     1.007825032070
           H          1.529794049786     0.188697283011    -1.571222417163     1.007825032070
           H          1.833595049786     1.184109283011    -0.161107417163     1.007825032070
           H          2.099146049786    -0.549659716989    -0.079485417163     1.007825032070
           H         -0.494642950214    -1.456055716989    -1.524709417163     1.007825032070
           H         -1.500919950214    -1.510897716989    -0.082632417163     1.007825032070
           H          0.136849049786    -2.135926716989    -0.029989417163     1.007825032070

  Running in c1 symmetry.

  Rotational constants: A =      0.16088  B =      0.15847  C =      0.14969 [cm^-1]
  Rotational constants: A =   4823.16605  B =   4750.72734  C =   4487.54072 [MHz]
  Nuclear repulsion =  200.719966935354506

  Charge       = 0
  Multiplicity = 1
  Electrons    = 42
  Nalpha       = 21
  Nbeta        = 21

  ==> Algorithm <==

  SCF Algorithm Type is DF.
  DIIS enabled.
  MOM disabled.
  Fractional occupation disabled.
  Guess Type is SAD.
  Energy threshold   = 1.00e-08
  Density threshold  = 1.00e-08
  Integral threshold = 0.00e+00

  ==> Primary Basis <==

  Basis Set: CC-PVTZ
    Number of shells: 110
    Number of basis function: 290
    Number of Cartesian functions: 325
    Spherical Harmonics?: true
    Max angular momentum: 3

  ==> Pre-Iterations <==

   -------------------------------------------------------
    Irrep   Nso     Nmo     Nalpha   Nbeta   Ndocc  Nsocc
   -------------------------------------------------------
     A        290     290       0       0       0       0
   -------------------------------------------------------
    Total     290     290      21      21      21       0
   -------------------------------------------------------

  ==> Integral Setup <==

  ==> DFJK: Density-Fitted J/K Matrices <==

    J tasked:                  Yes
    K tasked:                  Yes
    wK tasked:                  No
    OpenMP threads:              4
    Integrals threads:           4
    Memory (MB):              1430
    Algorithm:                Core
    Integral Cache:           NONE
    Schwarz Cutoff:          1E-12
    Fitting Condition:       1E-12

   => Auxiliary Basis Set <=

  Basis Set: 
    Number of shells: 225
    Number of basis function: 695
    Number of Cartesian functions: 830
    Spherical Harmonics?: true
    Max angular momentum: 4

  Minimum eigenvalue in the overlap matrix is 6.0593057030E-04.
  Using Symmetric Orthogonalization.
  SCF Guess: Superposition of Atomic Densities via on-the-fly atomic UHF.

  ==> Iterations <==

                           Total Energy        Delta E     RMS |[F,P]|

   @DF-RHF iter   0:  -234.40776359926528   -2.34408e+02   1.52592e-02 
   @DF-RHF iter   1:  -232.04098375505347    2.36678e+00   2.06483e-03 
   @DF-RHF iter   2:  -232.19839632647009   -1.57413e-01   1.18793e-03 DIIS
   @DF-RHF iter   3:  -232.24025312148527   -4.18568e-02   2.42827e-04 DIIS
   @DF-RHF iter   4:  -232.24438832702910   -4.13521e-03   6.21886e-05 DIIS
   @DF-RHF iter   5:  -232.24469238693464   -3.04060e-04   2.19968e-05 DIIS
   @DF-RHF iter   6:  -232.24472815273393   -3.57658e-05   6.75447e-06 DIIS
   @DF-RHF iter   7:  -232.24473162664785   -3.47391e-06   1.84588e-06 DIIS
   @DF-RHF iter   8:  -232.24473193862943   -3.11982e-07   4.27430e-07 DIIS
   @DF-RHF iter   9:  -232.24473195463614   -1.60067e-08   1.19500e-07 DIIS
   @DF-RHF iter  10:  -232.24473195571929   -1.08315e-09   2.39068e-08 DIIS
   @DF-RHF iter  11:  -232.24473195576988   -5.05906e-11   5.08927e-09 DIIS

  ==> Post-Iterations <==

    Orbital Energies (a.u.)
    -----------------------

    Doubly Occupied:                                                      

       1A    -20.540534     2A    -11.281136     3A    -11.211280  
       4A    -11.207888     5A    -11.205175     6A     -1.364557  
       7A     -1.065107     8A     -0.943097     9A     -0.940057  
      10A     -0.779446    11A     -0.670972    12A     -0.627755  
      13A     -0.620645    14A     -0.573822    15A     -0.561754  
      16A     -0.537015    17A     -0.517561    18A     -0.510860  
      19A     -0.504408    20A     -0.457838    21A     -0.425866  

    Virtual:                                                              

      22A      0.130563    23A      0.173648    24A      0.188736  
      25A      0.191228    26A      0.196990    27A      0.212535  
      28A      0.220069    29A      0.257332    30A      0.260936  
      31A      0.274146    32A      0.275979    33A      0.325465  
      34A      0.325525    35A      0.368710    36A      0.387837  
      37A      0.395158    38A      0.445166    39A      0.467076  
      40A      0.471748    41A      0.524354    42A      0.532648  
      43A      0.552296    44A      0.558460    45A      0.577708  
      46A      0.613341    47A      0.614174    48A      0.618908  
      49A      0.628541    50A      0.647567    51A      0.657523  
      52A      0.660308    53A      0.666419    54A      0.672443  
      55A      0.674963    56A      0.699825    57A      0.732006  
      58A      0.763057    59A      0.794913    60A      0.813634  
      61A      0.825255    62A      0.892586    63A      0.913024  
      64A      0.940715    65A      0.958211    66A      0.973979  
      67A      0.984249    68A      1.022312    69A      1.040526  
      70A      1.064879    71A      1.085208    72A      1.095629  
      73A      1.137296    74A      1.146567    75A      1.155982  
      76A      1.165740    77A      1.170723    78A      1.193904  
      79A      1.233743    80A      1.238609    81A      1.263562  
      82A      1.273477    83A      1.303916    84A      1.336994  
      85A      1.358796    86A      1.361733    87A      1.391296  
      88A      1.427469    89A      1.440013    90A      1.455243  
      91A      1.470104    92A      1.478944    93A      1.493685  
      94A      1.501993    95A      1.508132    96A      1.532351  
      97A      1.548940    98A      1.553164    99A      1.582544  
     100A      1.589884   101A      1.601695   102A      1.632953  
     103A      1.640084   104A      1.679351   105A      1.705548  
     106A      1.758864   107A      1.769229   108A      1.770812  
     109A      1.780096   110A      1.817962   111A      1.821626  
     112A      1.854801   113A      1.879417   114A      1.925751  
     115A      1.968255   116A      2.177396   117A      2.246167  
     118A      2.291652   119A      2.391757   120A      2.469788  
     121A      2.530566   122A      2.535106   123A      2.590300  
     124A      2.653637   125A      2.686744   126A      2.692739  
     127A      2.741284   128A      2.756793   129A      2.811307  
     130A      2.847914   131A      2.859256   132A      2.867433  
     133A      2.913196   134A      2.933868   135A      2.938032  
     136A      2.941801   137A      2.998226   138A      3.019076  
     139A      3.075925   140A      3.111579   141A      3.114337  
     142A      3.125056   143A      3.138571   144A      3.141139  
     145A      3.161636   146A      3.174125   147A      3.190491  
     148A      3.243944   149A      3.246567   150A      3.298723  
     151A      3.312411   152A      3.341062   153A      3.346044  
     154A      3.349050   155A      3.359808   156A      3.386833  
     157A      3.403850   158A      3.422792   159A      3.443613  
     160A      3.459188   161A      3.466333   162A      3.488019  
     163A      3.496272   164A      3.505378   165A      3.541537  
     166A      3.577269   167A      3.583114   168A      3.606204  
     169A      3.618364   170A      3.628295   171A      3.661440  
     172A      3.668327   173A      3.690193   174A      3.704393  
     175A      3.745194   176A      3.756945   177A      3.772910  
     178A      3.789490   179A      3.797477   180A      3.811799  
     181A      3.820637   182A      3.830299   183A      3.843939  
     184A      3.906490   185A      3.908201   186A      3.925441  
     187A      3.980918   188A      4.011621   189A      4.019194  
     190A      4.041840   191A      4.047401   192A      4.056332  
     193A      4.085721   194A      4.092433   195A      4.100136  
     196A      4.137046   197A      4.149580   198A      4.181374  
     199A      4.192486   200A      4.210497   201A      4.240836  
     202A      4.286007   203A      4.303123   204A      4.318184  
     205A      4.329326   206A      4.342283   207A      4.347641  
     208A      4.402001   209A      4.416774   210A      4.432553  
     211A      4.464876   212A      4.467896   213A      4.496640  
     214A      4.500422   215A      4.510247   216A      4.519522  
     217A      4.525188   218A      4.531673   219A      4.558167  
     220A      4.572862   221A      4.620595   222A      4.639915  
     223A      4.659767   224A      4.674601   225A      4.690019  
     226A      4.704296   227A      4.711739   228A      4.761538  
     229A      4.806081   230A      4.831624   231A      4.868299  
     232A      4.946021   233A      4.953029   234A      4.998425  
     235A      5.050565   236A      5.151223   237A      5.154203  
     238A      5.164241   239A      5.189186   240A      5.201717  
     241A      5.220762   242A      5.228880   243A      5.298057  
     244A      5.304559   245A      5.381209   246A      5.450269  
     247A      5.475984   248A      5.522494   249A      5.528901  
     250A      5.548459   251A      5.557682   252A      5.568105  
     253A      5.604470   254A      5.620358   255A      5.635341  
     256A      5.683458   257A      5.690047   258A      5.705073  
     259A      5.732773   260A      5.734254   261A      5.742741  
     262A      5.784518   263A      5.798296   264A      5.859728  
     265A      5.889872   266A      5.924233   267A      5.976744  
     268A      6.058057   269A      6.187420   270A      6.254965  
     271A      6.297007   272A      6.307256   273A      6.314580  
     274A      6.366169   275A      6.382964   276A      6.485742  
     277A      6.668057   278A      7.098767   279A      7.197918  
     280A      7.261248   281A      7.312477   282A      7.505638  
     283A      7.523163   284A      7.838866   285A      8.056658  
     286A     10.637486   287A     13.383655   288A     14.470041  
     289A     14.549848   290A     14.669256  

    Final Occupation by Irrep:
              A 
    DOCC [    21 ]

  Energy converged.

  @DF-RHF Final Energy:  -232.24473195576988

   => Energetics <=

    Nuclear Repulsion Energy =            200.7199669353545062
    One-Electron Energy =                -712.8358502047301499
    Two-Electron Energy =                 279.8711513136058784
    DFT Exchange-Correlation Energy =       0.0000000000000000
    Empirical Dispersion Energy =           0.0000000000000000
    PCM Polarization Energy =               0.0000000000000000
    EFP Energy =                            0.0000000000000000
    Total Energy =                       -232.2447319557697938


  Saving occupied orbitals to File 180.

*** tstop() called on cx1-27-1-4 at Sat Sep 10 15:37:00 2016
Module time:
	user time   =      17.85 seconds =       0.30 minutes
	system time =       0.54 seconds =       0.01 minutes
	total time  =          6 seconds =       0.10 minutes
Total time:
	user time   =      17.85 seconds =       0.30 minutes
	system time =       0.54 seconds =       0.01 minutes
	total time  =          6 seconds =       0.10 minutes


Properties will be evaluated at   0.000000,   0.000000,   0.000000 Bohr

Properties computed using the SCF density matrix

  Nuclear Dipole Moment: (a.u.)
     X:    -0.6285      Y:    -0.0744      Z:    -3.6138

  Electronic Dipole Moment: (a.u.)
     X:     0.1698      Y:     0.0983      Z:     3.2075

  Dipole Moment: (a.u.)
     X:    -0.4587      Y:     0.0239      Z:    -0.4063     Total:     0.6132

  Dipole Moment: (Debye)
     X:    -1.1658      Y:     0.0606      Z:    -1.0327     Total:     1.5586


*** tstart() called on cx1-27-1-4
*** at Sat Sep 10 15:37:00 2016


         ------------------------------------------------------------
                                   SCF GRAD                          
                          Rob Parrish, Justin Turney,                
                       Andy Simmonett, and Alex Sokolov              
         ------------------------------------------------------------

  ==> Geometry <==

    Molecular point group: c1
    Full point group: C1

    Geometry (in Angstrom), charge = 0, multiplicity = 1:

       Center              X                  Y                   Z               Mass       
    ------------   -----------------  -----------------  -----------------  -----------------
           H         -0.921149950214     0.013049283011     1.681942582837     1.007825032070
           O         -0.027718950214     0.012611283011     1.388275582837    15.994914619560
           C          0.017706049786     0.012774283011    -0.024893417163    12.000000000000
           C         -0.889979950214     1.115918283011    -0.565566417163    12.000000000000
           C          1.457739049786     0.220001283011    -0.490197417163    12.000000000000
           C         -0.492227950214    -1.358829716989    -0.445437417163    12.000000000000
           H         -0.903868950214     1.117473283011    -1.649355417163     1.007825032070
           H         -0.546432950214     2.092331283011    -0.237445417163     1.007825032070
           H         -1.902608950214     0.977415283011    -0.207988417163     1.007825032070
           H          1.529794049786     0.188697283011    -1.571222417163     1.007825032070
           H          1.833595049786     1.184109283011    -0.161107417163     1.007825032070
           H          2.099146049786    -0.549659716989    -0.079485417163     1.007825032070
           H         -0.494642950214    -1.456055716989    -1.524709417163     1.007825032070
           H         -1.500919950214    -1.510897716989    -0.082632417163     1.007825032070
           H          0.136849049786    -2.135926716989    -0.029989417163     1.007825032070

  Nuclear repulsion =  200.719966935354506

  ==> Basis Set <==

  Basis Set: CC-PVTZ
    Number of shells: 110
    Number of basis function: 290
    Number of Cartesian functions: 325
    Spherical Harmonics?: true
    Max angular momentum: 3

  ==> DFJKGrad: Density-Fitted SCF Gradients <==

    Gradient:                    1
    J tasked:                  Yes
    K tasked:                  Yes
    wK tasked:                  No
    OpenMP threads:              4
    Integrals threads:           4
    Memory (MB):              1430
    Schwarz Cutoff:          0E+00
    Fitting Condition:       1E-12

   => Auxiliary Basis Set <=

  Basis Set: 
    Number of shells: 225
    Number of basis function: 695
    Number of Cartesian functions: 830
    Spherical Harmonics?: true
    Max angular momentum: 4


  -Total Gradient:
     Atom            X                  Y                   Z
    ------   -----------------  -----------------  -----------------
       1       -0.000861141781     0.000356643708     0.001431570856
       2       -0.012540062195    -0.010511915554    -0.003153653097
       3        0.010430082029     0.007301942115     0.000173010372
       4       -0.004390568224    -0.003100434727     0.000334077539
       5       -0.000034041312    -0.002756899391    -0.009349585577
       6       -0.002569880177     0.000869014202     0.010243002539
       7        0.001170082587     0.000860534931    -0.000196431106
       8        0.000272002098     0.001839157861    -0.000657576172
       9        0.002242111919    -0.000172178377     0.000879583476
      10        0.002434184631     0.001232976940    -0.000649734250
      11        0.000906811419     0.001613791893    -0.000536732973
      12       -0.000319841141    -0.000060802229     0.000111934374
      13        0.001602870817     0.002356290396     0.000919226632
      14        0.001614835221     0.000649669113     0.000603215692
      15        0.000042554109    -0.000477790881    -0.000151908305


*** tstop() called on cx1-27-1-4 at Sat Sep 10 15:37:04 2016
Module time:
	user time   =      17.81 seconds =       0.30 minutes
	system time =       0.42 seconds =       0.01 minutes
	total time  =          4 seconds =       0.07 minutes
Total time:
	user time   =      35.74 seconds =       0.60 minutes
	system time =       0.96 seconds =       0.02 minutes
	total time  =         10 seconds =       0.17 minutes

			-----------------------------------------
			 OPTKING 2.0: for geometry optimizations 
			  - R.A. King,  Bethel University        
			-----------------------------------------

	Internal coordinates to be generated automatically.
	Detected frag 1 with atoms:  1 2 3 4 5 6 7 8 9 10 11 12 13 14 15
	---Fragment 1 Bond Connectivity---
	 1 : 2
	 2 : 1 3
	 3 : 2 4 5 6
	 4 : 3 7 8 9
	 5 : 3 10 11 12
	 6 : 3 13 14 15
	 7 : 4
	 8 : 4
	 9 : 4
	 10 : 5
	 11 : 5
	 12 : 5
	 13 : 6
	 14 : 6
	 15 : 6

	Assuming in current code that numbering for constraints corresponds to unified fragment.
	Frozen dihedral atom list: 
	     4     3     2     1
	---Fragment 1 Geometry and Gradient---
	 H          -1.7407211332        0.0246595711        3.1784108528
	 O          -0.0523812246        0.0238318711        2.6234606485
	 C           0.0334595850        0.0241398964       -0.0470417410
	 C          -1.6818183697        2.1087799416       -1.0687656384
	 C           2.7547275773        0.4157421738       -0.9263388695
	 C          -0.9301760209       -2.5678160263       -0.8417547278
	 H          -1.7080647759        2.1117184657       -3.1168300342
	 H          -1.0326086259        3.9539331042       -0.4487068099
	 H          -3.5954098539        1.8470472030       -0.3930411473
	 H           2.8908917938        0.3565861869       -2.9691800623
	 H           3.4649924827        2.2376422563       -0.3044488964
	 H           3.9668111470       -1.0387063314       -0.1502056700
	 H          -0.9347397095       -2.7515465393       -2.8812832307
	 H          -2.8363276533       -2.8551828999       -0.1561526381
	 H           0.2586072256       -4.0363165350       -0.0566717853
	            -0.0008611418        0.0003566437        0.0014315709
	            -0.0125400622       -0.0105119156       -0.0031536531
	             0.0104300820        0.0073019421        0.0001730104
	            -0.0043905682       -0.0031004347        0.0003340775
	            -0.0000340413       -0.0027568994       -0.0093495856
	            -0.0025698802        0.0008690142        0.0102430025
	             0.0011700826        0.0008605349       -0.0001964311
	             0.0002720021        0.0018391579       -0.0006575762
	             0.0022421119       -0.0001721784        0.0008795835
	             0.0024341846        0.0012329769       -0.0006497343
	             0.0009068114        0.0016137919       -0.0005367330
	            -0.0003198411       -0.0000608022        0.0001119344
	             0.0016028708        0.0023562904        0.0009192266
	             0.0016148352        0.0006496691        0.0006032157
	             0.0000425541       -0.0004777909       -0.0001519083

	Previous optimization step data not found.  Starting new optimization.

	---Fragment 1 Intrafragment Coordinates---
	 - Coordinate -           - BOHR/RAD -       - ANG/DEG -
	 R(1,2)           =         1.777206	       0.940457
	 R(2,3)           =         2.671882	       1.413899
	 R(3,4)           =         2.886490	       1.527465
	 R(3,5)           =         2.886488	       1.527464
	 R(3,6)           =         2.877221	       1.522560
	 R(4,7)           =         2.048235	       1.083879
	 R(4,8)           =         2.051959	       1.085850
	 R(4,9)           =         2.046201	       1.082803
	 R(5,10)          =         2.048229	       1.083876
	 R(5,11)          =         2.051961	       1.085851
	 R(5,12)          =         2.046204	       1.082804
	 R(6,13)          =         2.047793	       1.083645
	 R(6,14)          =         2.045982	       1.082687
	 R(6,15)          =         2.045985	       1.082689
	 B(1,2,3)         =         1.920500	     110.036556
	 B(2,3,4)         =         1.912164	     109.558955
	 B(2,3,5)         =         1.912160	     109.558681
	 B(2,3,6)         =         1.839210	     105.378958
	 B(3,4,7)         =         1.941841	     111.259284
	 B(3,4,8)         =         1.933119	     110.759567
	 B(3,4,9)         =         1.924593	     110.271035
	 B(3,5,10)        =         1.941831	     111.258696
	 B(3,5,11)        =         1.933133	     110.760378
	 B(3,5,12)        =         1.924605	     110.271725
	 B(3,6,13)        =         1.935493	     110.895589
	 B(3,6,14)        =         1.924102	     110.242935
	 B(3,6,15)        =         1.924101	     110.242889
	 B(4,3,5)         =         1.933093	     110.758042
	 B(4,3,6)         =         1.932438	     110.720523
	 B(5,3,6)         =         1.932454	     110.721438
	 B(7,4,8)         =         1.880649	     107.753228
	 B(7,4,9)         =         1.894844	     108.566553
	 B(8,4,9)         =         1.887159	     108.126223
	 B(10,5,11)       =         1.880636	     107.752527
	 B(10,5,12)       =         1.894835	     108.566063
	 B(11,5,12)       =         1.887163	     108.126469
	 B(13,6,14)       =         1.895541	     108.606477
	 B(13,6,15)       =         1.895542	     108.606569
	 B(14,6,15)       =         1.888018	     108.175491
	*D(1,2,3,4)       =         0.872665	      49.999998
	 D(1,2,3,5)       =         2.996619	     171.693640
	 D(1,2,3,6)       =        -1.206943	     -69.152712
	 D(2,3,4,7)       =        -3.105544	    -177.934573
	 D(2,3,4,8)       =         1.086271	      62.238753
	 D(2,3,4,9)       =        -1.001991	     -57.409864
	 D(2,3,5,10)      =         3.105482	     177.930998
	 D(2,3,5,11)      =        -1.086346	     -62.243060
	 D(2,3,5,12)      =         1.001938	      57.406829
	 D(2,3,6,13)      =        -3.141552	    -179.997683
	 D(2,3,6,14)      =         1.041684	      59.684090
	 D(2,3,6,15)      =        -1.041602	     -59.679371
	 D(4,3,5,10)      =        -1.066369	     -61.098454
	 D(4,3,5,11)      =         1.024988	      58.727489
	 D(4,3,5,12)      =         3.113273	     178.377378
	 D(4,3,6,13)      =         1.075570	      61.625622
	 D(4,3,6,14)      =        -1.024379	     -58.692605
	 D(4,3,6,15)      =        -3.107665	    -178.056066
	 D(5,3,4,7)       =         1.066310	      61.095040
	 D(5,3,4,8)       =        -1.025060	     -58.731633
	 D(5,3,4,9)       =        -3.113323	    -178.380250
	 D(5,3,6,13)      =        -1.075487	     -61.620840
	 D(5,3,6,14)      =         3.107750	     178.060933
	 D(5,3,6,15)      =         1.024464	      58.697471
	 D(6,3,4,7)       =        -1.084378	     -62.130270
	 D(6,3,4,8)       =         3.107438	     178.043057
	 D(6,3,4,9)       =         1.019175	      58.394440
	 D(6,3,5,10)      =         1.084309	      62.126328
	 D(6,3,5,11)      =        -3.107519	    -178.047729
	 D(6,3,5,12)      =        -1.019235	     -58.397840

	Current energy   :      -232.2447319558

	Generating empirical Hessian (Schlegel '84) for each fragment.
	Taking RFO optimization step.
	Going to follow RFO solution 1.
	Using RFO vector 1.
	Norm of target step-size    0.26192
	Projected energy change by RFO approximation:        -0.0087148011

	Back-transformation to cartesian coordinates...
	Could not converge backtransformation.
	Using first guess instead.

	Back-transformation to cartesian coordinates to adjust frozen coordinates...
	Successfully converged to displaced geometry.

	--- Internal Coordinate Step in ANG or DEG, aJ/ANG or AJ/DEG ---
	 ---------------------------------------------------------------------------
	   Coordinate                Previous        Force       Change         New 
	   ----------                --------       ------       ------       ------
	    1 R(1,2)          =      0.940457    -0.010424     0.009242     0.949699
	    2 R(2,3)          =      1.413899     0.010624     0.015697     1.429595
	    3 R(3,4)          =      1.527465     0.000999     0.002757     1.530221
	    4 R(3,5)          =      1.527464    -0.049395     0.002314     1.529777
	    5 R(3,6)          =      1.522560     0.053546     0.020145     1.542705
	    6 R(4,7)          =      1.083879    -0.001505     0.006817     1.090696
	    7 R(4,8)          =      1.085850    -0.012697     0.003842     1.089692
	    8 R(4,9)          =      1.082803     0.014700     0.011743     1.094546
	    9 R(5,10)         =      1.083876    -0.006379     0.006342     1.090218
	   10 R(5,11)         =      1.085851    -0.013051     0.003826     1.089677
	   11 R(5,12)         =      1.082804     0.000855     0.002035     1.084839
	   12 R(6,13)         =      1.083645     0.009314     0.009380     1.093025
	   13 R(6,14)         =      1.082687     0.011481     0.011176     1.093863
	   14 R(6,15)         =      1.082689    -0.002549     0.001273     1.083962
	   15 B(1,2,3)        =    110.036556    -0.000148    -0.504849   109.531707
	   16 B(2,3,4)        =    109.558955     0.000019    -0.121170   109.437785
	   17 B(2,3,5)        =    109.558681    -0.000664    -5.055940   104.502741
	   18 B(2,3,6)        =    105.378958     0.000677     5.630819   111.009777
	   19 B(3,4,7)        =    111.259284    -0.000000    -0.256944   111.002341
	   20 B(3,4,8)        =    110.759567    -0.000102    -0.649436   110.110131
	   21 B(3,4,9)        =    110.271035     0.000131     0.692828   110.963863
	   22 B(3,5,10)       =    111.258696    -0.000274    -1.327190   109.931506
	   23 B(3,5,11)       =    110.760378    -0.000029    -0.018691   110.741688
	   24 B(3,5,12)       =    110.271725     0.000084     0.567470   110.839196
	   25 B(3,6,13)       =    110.895589     0.000290     1.697478   112.593067
	   26 B(3,6,14)       =    110.242935     0.000044     0.121469   110.364404
	   27 B(3,6,15)       =    110.242889    -0.000096    -0.747476   109.495413
	   28 B(4,3,5)        =    110.758042     0.000300    -0.138229   110.619813
	   29 B(4,3,6)        =    110.720523    -0.000298    -0.201609   110.518914
	   30 B(5,3,6)        =    110.721438    -0.000032    -0.120825   110.600614
	   31 B(7,4,8)        =    107.753228     0.000083     0.903175   108.656403
	   32 B(7,4,9)        =    108.566553    -0.000106    -0.713782   107.852771
	   33 B(8,4,9)        =    108.126223    -0.000007     0.035516   108.161739
	   34 B(10,5,11)      =    107.752527     0.000167     1.120564   108.873092
	   35 B(10,5,12)      =    108.566063     0.000070    -0.079007   108.487056
	   36 B(11,5,12)      =    108.126469    -0.000008    -0.227294   107.899175
	   37 B(13,6,14)      =    108.606477    -0.000174    -0.816769   107.789708
	   38 B(13,6,15)      =    108.606569    -0.000074    -0.366191   108.240378
	   39 B(14,6,15)      =    108.175491     0.000001     0.059980   108.235471
	   40 *D(1,2,3,4)     =     49.999998     0.000000    -0.000000    49.999998
	   41 D(1,2,3,5)      =    171.693640    -0.000009    -3.202327   168.491313
	   42 D(1,2,3,6)      =    -69.152712    -0.000009    -3.103540   -72.256252
	   43 D(2,3,4,7)      =   -177.934573    -0.000094    -4.828536  -182.763109
	   44 D(2,3,4,8)      =     62.238753    -0.000102    -5.364523    56.874230
	   45 D(2,3,4,9)      =    -57.409864    -0.000104    -5.435363   -62.845227
	   46 D(2,3,5,10)     =    177.930998     0.000044     1.862214   179.793212
	   47 D(2,3,5,11)     =    -62.243060     0.000047     2.384442   -59.858618
	   48 D(2,3,5,12)     =     57.406829     0.000053     2.456973    59.863802
	   49 D(2,3,6,13)     =   -179.997683     0.000050     2.568575  -177.429108
	   50 D(2,3,6,14)     =     59.684090     0.000050     2.393292    62.077383
	   51 D(2,3,6,15)     =    -59.679371     0.000058     2.711705   -56.967666
	   52 D(4,3,5,10)     =    -61.098454    -0.000006    -1.424451   -62.522905
	   53 D(4,3,5,11)     =     58.727489    -0.000003    -0.902224    57.825265
	   54 D(4,3,5,12)     =    178.377378     0.000003    -0.829693   177.547685
	   55 D(4,3,6,13)     =     61.625622    -0.000010    -0.680534    60.945087
	   56 D(4,3,6,14)     =    -58.692605    -0.000010    -0.855818   -59.548422
	   57 D(4,3,6,15)     =   -178.056066    -0.000002    -0.537405  -178.593471
	   58 D(5,3,4,7)      =     61.095040     0.000049     1.526523    62.621563
	   59 D(5,3,4,8)      =    -58.731633     0.000041     0.990536   -57.741097
	   60 D(5,3,4,9)      =   -178.380250     0.000039     0.919696  -177.460554
	   61 D(5,3,6,13)     =    -61.620840    -0.000045    -0.280447   -61.901288
	   62 D(5,3,6,14)     =    178.060933    -0.000045    -0.455731   177.605203
	   63 D(5,3,6,15)     =     58.697471    -0.000037    -0.137318    58.560154
	   64 D(6,3,4,7)      =    -62.130270     0.000058     1.916644   -60.213625
	   65 D(6,3,4,8)      =    178.043057     0.000050     1.380657   179.423714
	   66 D(6,3,4,9)      =     58.394440     0.000048     1.309817    59.704257
	   67 D(6,3,5,10)     =     62.126328    -0.000050    -1.861573    60.264755
	   68 D(6,3,5,11)     =   -178.047729    -0.000048    -1.339345  -179.387075
	   69 D(6,3,5,12)     =    -58.397840    -0.000042    -1.266814   -59.664655
	 ---------------------------------------------------------------------------
	Successfully symmetrized geometry.

  ==> Convergence Check <==

  Measures of convergence in internal coordinates in au.
  Criteria marked as inactive (o), active & met (*), and active & unmet ( ).
  --------------------------------------------------------------------------------------------- ~
   Step     Total Energy     Delta E     MAX Force     RMS Force      MAX Disp      RMS Disp    ~
  --------------------------------------------------------------------------------------------- ~
    Convergence Criteria    1.00e-06 *    3.00e-04 *             o    1.20e-03 *             o  ~
  --------------------------------------------------------------------------------------------- ~
      1    -232.24473196   -2.32e+02      8.90e-03      2.87e-03 o    9.83e-02      3.27e-02 o  ~
  ---------------------------------------------------------------------------------------------

	Writing optimization data to binary file.
	Structure for next step:
	Cartesian Geometry (in Angstrom)
	    H    -0.6077345831   0.2115209860   1.8158755455
	    O     0.2298879712   0.1014343329   1.3820587491
	    C     0.0274094235   0.0000605896  -0.0294896629
	    C    -0.8630996599   1.1520069310  -0.5002234439
	    C     1.4299363862   0.1242292954  -0.6275861495
	    C    -0.6031511719  -1.3578034810  -0.4016943184
	    H    -0.9946497713   1.1272568814  -1.5826745563
	    H    -0.4166986088   2.1072287132  -0.2250763595
	    H    -1.8546036333   1.0936805849  -0.0402792641
	    H     1.3780872549   0.0541375205  -1.7143124078
	    H     1.8817723462   1.0781974434  -0.3570593097
	    H     2.0766387230  -0.6664982256  -0.2623433609
	    H    -0.7281755905  -1.4811119746  -1.4805211499
	    H    -1.5882115265  -1.4601463623   0.0627613426
	    H     0.0278711871  -2.1611819896  -0.0392479118
			--------------------------
			 OPTKING Finished Execution 
			--------------------------

    Structure for next step:
    Molecular point group: c1
    Full point group: C1

    Geometry (in Angstrom), charge = 0, multiplicity = 1:

    H           -0.644698210091     0.204140732746     1.822015458341
    O            0.192924344163     0.094054079644     1.388198661963
    C           -0.009554203542    -0.007319663669    -0.023349750035
    C           -0.900063286961     1.144626677705    -0.494083531128
    C            1.392972759197     0.116849042126    -0.621446236665
    C           -0.640114798914    -1.365183734225    -0.395554405593
    H           -1.031613398377     1.119876628163    -1.576534643499
    H           -0.453662235815     2.099848459903    -0.218936446702
    H           -1.891567260386     1.086300331581    -0.034139351300
    H            1.341123627825     0.046757267255    -1.708172494990
    H            1.844808719159     1.070817190107    -0.350919396909
    H            2.039675095926    -0.673878478905    -0.256203448056
    H           -0.765139217511    -1.488492227868    -1.474381237045
    H           -1.625175153571    -1.467526615544     0.068901255446
    H           -0.009092439900    -2.168562242895    -0.033107998962

gradient() will perform analytic gradient computation.

*** tstart() called on cx1-27-1-4
*** at Sat Sep 10 15:37:06 2016


         ---------------------------------------------------------
                                   SCF
            by Justin Turney, Rob Parrish, and Andy Simmonett
                              RHF Reference
                        4 Threads,   2000 MiB Core
         ---------------------------------------------------------

  ==> Geometry <==

    Molecular point group: c1
    Full point group: C1

    Geometry (in Angstrom), charge = 0, multiplicity = 1:

       Center              X                  Y                   Z               Mass       
    ------------   -----------------  -----------------  -----------------  -----------------
           H         -0.644698210091     0.204140732746     1.822015458341     1.007825032070
           O          0.192924344163     0.094054079644     1.388198661963    15.994914619560
           C         -0.009554203542    -0.007319663669    -0.023349750035    12.000000000000
           C         -0.900063286961     1.144626677705    -0.494083531128    12.000000000000
           C          1.392972759197     0.116849042126    -0.621446236665    12.000000000000
           C         -0.640114798914    -1.365183734225    -0.395554405593    12.000000000000
           H         -1.031613398377     1.119876628163    -1.576534643499     1.007825032070
           H         -0.453662235815     2.099848459903    -0.218936446702     1.007825032070
           H         -1.891567260386     1.086300331581    -0.034139351300     1.007825032070
           H          1.341123627825     0.046757267255    -1.708172494990     1.007825032070
           H          1.844808719159     1.070817190107    -0.350919396909     1.007825032070
           H          2.039675095926    -0.673878478905    -0.256203448056     1.007825032070
           H         -0.765139217511    -1.488492227868    -1.474381237045     1.007825032070
           H         -1.625175153571    -1.467526615544     0.068901255446     1.007825032070
           H         -0.009092439900    -2.168562242895    -0.033107998962     1.007825032070

  Running in c1 symmetry.

  Rotational constants: A =      0.15708  B =      0.15597  C =      0.14945 [cm^-1]
  Rotational constants: A =   4709.05939  B =   4675.89989  C =   4480.31061 [MHz]
  Nuclear repulsion =  199.333217892982134

  Charge       = 0
  Multiplicity = 1
  Electrons    = 42
  Nalpha       = 21
  Nbeta        = 21

  ==> Algorithm <==

  SCF Algorithm Type is DF.
  DIIS enabled.
  MOM disabled.
  Fractional occupation disabled.
  Guess Type is READ.
  Energy threshold   = 1.00e-08
  Density threshold  = 1.00e-08
  Integral threshold = 0.00e+00

  ==> Primary Basis <==

  Basis Set: CC-PVTZ
    Number of shells: 110
    Number of basis function: 290
    Number of Cartesian functions: 325
    Spherical Harmonics?: true
    Max angular momentum: 3

  ==> Pre-Iterations <==

   -------------------------------------------------------
    Irrep   Nso     Nmo     Nalpha   Nbeta   Ndocc  Nsocc
   -------------------------------------------------------
     A        290     290       0       0       0       0
   -------------------------------------------------------
    Total     290     290      21      21      21       0
   -------------------------------------------------------

  ==> Integral Setup <==

  ==> DFJK: Density-Fitted J/K Matrices <==

    J tasked:                  Yes
    K tasked:                  Yes
    wK tasked:                  No
    OpenMP threads:              4
    Integrals threads:           4
    Memory (MB):              1430
    Algorithm:                Core
    Integral Cache:           NONE
    Schwarz Cutoff:          1E-12
    Fitting Condition:       1E-12

   => Auxiliary Basis Set <=

  Basis Set: 
    Number of shells: 225
    Number of basis function: 695
    Number of Cartesian functions: 830
    Spherical Harmonics?: true
    Max angular momentum: 4

  Minimum eigenvalue in the overlap matrix is 6.7890539962E-04.
  Using Symmetric Orthogonalization.
  SCF Guess: Reading in previously saved MOs, projecting if necessary.

  Using orbitals from previous SCF, no projection.
  Recomputing DOCC and SOCC from number of alpha and beta electrons from previous calculation.
              A 
    DOCC [    21 ]

  ==> Iterations <==

                           Total Energy        Delta E     RMS |[F,P]|

   @DF-RHF iter   0:  -232.13064131698513   -2.32131e+02   1.07123e-03 
   @DF-RHF iter   1:  -232.24147357165390   -1.10832e-01   2.55436e-04 
   @DF-RHF iter   2:  -232.24478821123517   -3.31464e-03   1.25226e-04 DIIS
   @DF-RHF iter   3:  -232.24539962655592   -6.11415e-04   4.14650e-05 DIIS
   @DF-RHF iter   4:  -232.24552606069187   -1.26434e-04   9.24876e-06 DIIS
   @DF-RHF iter   5:  -232.24553270210822   -6.64142e-06   3.71853e-06 DIIS
   @DF-RHF iter   6:  -232.24553392932751   -1.22722e-06   1.22400e-06 DIIS
   @DF-RHF iter   7:  -232.24553407170549   -1.42378e-07   3.22140e-07 DIIS
   @DF-RHF iter   8:  -232.24553408243878   -1.07333e-08   8.01196e-08 DIIS
   @DF-RHF iter   9:  -232.24553408308577   -6.46992e-10   2.48870e-08 DIIS
   @DF-RHF iter  10:  -232.24553408314262   -5.68434e-11   5.67352e-09 DIIS

  ==> Post-Iterations <==

    Orbital Energies (a.u.)
    -----------------------

    Doubly Occupied:                                                      

       1A    -20.544309     2A    -11.285154     3A    -11.214758  
       4A    -11.212605     5A    -11.206448     6A     -1.357501  
       7A     -1.062044     8A     -0.940008     9A     -0.936782  
      10A     -0.773817    11A     -0.669255    12A     -0.620947  
      13A     -0.619512    14A     -0.575239    15A     -0.554628  
      16A     -0.529737    17A     -0.516160    18A     -0.510104  
      19A     -0.502485    20A     -0.459463    21A     -0.429493  

    Virtual:                                                              

      22A      0.129858    23A      0.174591    24A      0.188207  
      25A      0.190084    26A      0.196937    27A      0.211819  
      28A      0.216852    29A      0.255886    30A      0.261073  
      31A      0.273091    32A      0.275944    33A      0.323901  
      34A      0.326443    35A      0.365920    36A      0.384332  
      37A      0.397151    38A      0.445583    39A      0.460563  
      40A      0.474047    41A      0.523607    42A      0.526074  
      43A      0.551245    44A      0.555655    45A      0.581384  
      46A      0.609689    47A      0.616747    48A      0.618584  
      49A      0.624893    50A      0.645170    51A      0.652640  
      52A      0.655745    53A      0.665350    54A      0.670888  
      55A      0.674269    56A      0.695615    57A      0.722965  
      58A      0.754782    59A      0.793908    60A      0.803841  
      61A      0.827667    62A      0.889307    63A      0.902744  
      64A      0.928622    65A      0.960229    66A      0.979448  
      67A      0.997152    68A      1.010097    69A      1.036108  
      70A      1.070607    71A      1.087848    72A      1.098858  
      73A      1.124493    74A      1.141290    75A      1.148443  
      76A      1.165014    77A      1.168155    78A      1.185246  
      79A      1.229665    80A      1.235317    81A      1.264269  
      82A      1.277148    83A      1.298982    84A      1.338971  
      85A      1.354319    86A      1.364139    87A      1.382107  
      88A      1.424886    89A      1.437016    90A      1.459043  
      91A      1.463728    92A      1.471926    93A      1.492422  
      94A      1.494489    95A      1.499610    96A      1.527276  
      97A      1.546277    98A      1.551115    99A      1.572629  
     100A      1.584418   101A      1.598781   102A      1.632280  
     103A      1.640142   104A      1.668509   105A      1.677090  
     106A      1.745134   107A      1.752858   108A      1.768585  
     109A      1.780335   110A      1.807937   111A      1.815106  
     112A      1.851595   113A      1.873786   114A      1.912500  
     115A      1.959169   116A      2.166379   117A      2.244811  
     118A      2.282803   119A      2.392941   120A      2.464698  
     121A      2.525902   122A      2.536044   123A      2.593759  
     124A      2.662488   125A      2.672540   126A      2.696208  
     127A      2.743052   128A      2.749092   129A      2.808754  
     130A      2.838490   131A      2.858920   132A      2.864675  
     133A      2.912448   134A      2.927202   135A      2.928034  
     136A      2.936117   137A      3.003354   138A      3.005555  
     139A      3.073976   140A      3.104358   141A      3.109210  
     142A      3.121001   143A      3.131389   144A      3.135356  
     145A      3.156968   146A      3.166351   147A      3.183809  
     148A      3.242997   149A      3.250692   150A      3.291098  
     151A      3.314974   152A      3.330239   153A      3.338617  
     154A      3.347394   155A      3.359230   156A      3.386825  
     157A      3.393463   158A      3.410871   159A      3.438859  
     160A      3.454621   161A      3.467032   162A      3.477061  
     163A      3.492188   164A      3.496229   165A      3.522576  
     166A      3.560600   167A      3.573825   168A      3.586900  
     169A      3.612215   170A      3.625297   171A      3.647733  
     172A      3.666084   173A      3.672223   174A      3.701992  
     175A      3.734683   176A      3.740292   177A      3.763442  
     178A      3.779327   179A      3.787788   180A      3.791600  
     181A      3.810854   182A      3.819688   183A      3.837761  
     184A      3.894511   185A      3.903129   186A      3.909294  
     187A      3.971970   188A      4.003865   189A      4.016675  
     190A      4.020792   191A      4.039454   192A      4.044744  
     193A      4.067405   194A      4.088235   195A      4.098024  
     196A      4.129306   197A      4.137510   198A      4.183068  
     199A      4.189954   200A      4.211844   201A      4.219293  
     202A      4.275348   203A      4.289476   204A      4.304773  
     205A      4.311950   206A      4.329154   207A      4.333644  
     208A      4.392827   209A      4.409958   210A      4.412480  
     211A      4.441321   212A      4.447131   213A      4.480433  
     214A      4.484022   215A      4.502145   216A      4.503957  
     217A      4.509712   218A      4.514896   219A      4.534501  
     220A      4.552273   221A      4.603730   222A      4.618579  
     223A      4.642910   224A      4.663630   225A      4.675741  
     226A      4.683666   227A      4.695395   228A      4.743458  
     229A      4.786643   230A      4.815075   231A      4.845327  
     232A      4.920578   233A      4.943059   234A      4.969669  
     235A      5.025150   236A      5.116960   237A      5.129318  
     238A      5.135416   239A      5.167026   240A      5.181721  
     241A      5.199081   242A      5.204313   243A      5.266725  
     244A      5.276298   245A      5.394207   246A      5.434768  
     247A      5.448293   248A      5.499507   249A      5.514329  
     250A      5.523660   251A      5.533545   252A      5.544067  
     253A      5.577481   254A      5.593826   255A      5.614082  
     256A      5.654891   257A      5.664541   258A      5.682350  
     259A      5.699333   260A      5.708525   261A      5.726278  
     262A      5.751380   263A      5.783084   264A      5.837353  
     265A      5.866188   266A      5.896008   267A      5.938034  
     268A      6.033160   269A      6.156179   270A      6.238373  
     271A      6.286382   272A      6.291919   273A      6.303655  
     274A      6.345435   275A      6.364577   276A      6.453864  
     277A      6.629121   278A      7.066054   279A      7.174400  
     280A      7.226698   281A      7.294752   282A      7.472649  
     283A      7.501359   284A      7.821713   285A      8.023361  
     286A     10.468613   287A     13.186158   288A     14.297698  
     289A     14.437161   290A     14.462538  

    Final Occupation by Irrep:
              A 
    DOCC [    21 ]

  Energy converged.

  @DF-RHF Final Energy:  -232.24553408314262

   => Energetics <=

    Nuclear Repulsion Energy =            199.3332178929821339
    One-Electron Energy =                -710.1166022364515129
    Two-Electron Energy =                 278.5378502603265929
    DFT Exchange-Correlation Energy =       0.0000000000000000
    Empirical Dispersion Energy =           0.0000000000000000
    PCM Polarization Energy =               0.0000000000000000
    EFP Energy =                            0.0000000000000000
    Total Energy =                       -232.2455340831427861


  Saving occupied orbitals to File 180.

*** tstop() called on cx1-27-1-4 at Sat Sep 10 15:37:11 2016
Module time:
	user time   =      16.84 seconds =       0.28 minutes
	system time =       0.34 seconds =       0.01 minutes
	total time  =          5 seconds =       0.08 minutes
Total time:
	user time   =      54.66 seconds =       0.91 minutes
	system time =       1.39 seconds =       0.02 minutes
	total time  =         17 seconds =       0.28 minutes


Properties will be evaluated at   0.000000,   0.000000,   0.000000 Bohr

Properties computed using the SCF density matrix

  Nuclear Dipole Moment: (a.u.)
     X:    -1.1197      Y:    -0.1596      Z:    -3.5196

  Electronic Dipole Moment: (a.u.)
     X:     0.5759      Y:     0.1882      Z:     3.1942

  Dipole Moment: (a.u.)
     X:    -0.5437      Y:     0.0286      Z:    -0.3254     Total:     0.6343

  Dipole Moment: (Debye)
     X:    -1.3820      Y:     0.0728      Z:    -0.8270     Total:     1.6122


*** tstart() called on cx1-27-1-4
*** at Sat Sep 10 15:37:11 2016


         ------------------------------------------------------------
                                   SCF GRAD                          
                          Rob Parrish, Justin Turney,                
                       Andy Simmonett, and Alex Sokolov              
         ------------------------------------------------------------

  ==> Geometry <==

    Molecular point group: c1
    Full point group: C1

    Geometry (in Angstrom), charge = 0, multiplicity = 1:

       Center              X                  Y                   Z               Mass       
    ------------   -----------------  -----------------  -----------------  -----------------
           H         -0.644698210091     0.204140732746     1.822015458341     1.007825032070
           O          0.192924344163     0.094054079644     1.388198661963    15.994914619560
           C         -0.009554203542    -0.007319663669    -0.023349750035    12.000000000000
           C         -0.900063286961     1.144626677705    -0.494083531128    12.000000000000
           C          1.392972759197     0.116849042126    -0.621446236665    12.000000000000
           C         -0.640114798914    -1.365183734225    -0.395554405593    12.000000000000
           H         -1.031613398377     1.119876628163    -1.576534643499     1.007825032070
           H         -0.453662235815     2.099848459903    -0.218936446702     1.007825032070
           H         -1.891567260386     1.086300331581    -0.034139351300     1.007825032070
           H          1.341123627825     0.046757267255    -1.708172494990     1.007825032070
           H          1.844808719159     1.070817190107    -0.350919396909     1.007825032070
           H          2.039675095926    -0.673878478905    -0.256203448056     1.007825032070
           H         -0.765139217511    -1.488492227868    -1.474381237045     1.007825032070
           H         -1.625175153571    -1.467526615544     0.068901255446     1.007825032070
           H         -0.009092439900    -2.168562242895    -0.033107998962     1.007825032070

  Nuclear repulsion =  199.333217892982134

  ==> Basis Set <==

  Basis Set: CC-PVTZ
    Number of shells: 110
    Number of basis function: 290
    Number of Cartesian functions: 325
    Spherical Harmonics?: true
    Max angular momentum: 3

  ==> DFJKGrad: Density-Fitted SCF Gradients <==

    Gradient:                    1
    J tasked:                  Yes
    K tasked:                  Yes
    wK tasked:                  No
    OpenMP threads:              4
    Integrals threads:           4
    Memory (MB):              1430
    Schwarz Cutoff:          0E+00
    Fitting Condition:       1E-12

   => Auxiliary Basis Set <=

  Basis Set: 
    Number of shells: 225
    Number of basis function: 695
    Number of Cartesian functions: 830
    Spherical Harmonics?: true
    Max angular momentum: 4


  -Total Gradient:
     Atom            X                  Y                   Z
    ------   -----------------  -----------------  -----------------
       1       -0.009295096122     0.002342088602     0.004109447882
       2        0.014834127754     0.002586960225     0.006716912802
       3       -0.004404888925    -0.000874038942    -0.002038583083
       4        0.001170463240    -0.001974724230    -0.000126195072
       5        0.001903866725    -0.001407269733     0.004018990763
       6        0.001049558331    -0.003163823829    -0.005450982023
       7       -0.000267165365    -0.000349464433    -0.005011612189
       8        0.002289958714     0.003837959721     0.001494912452
       9       -0.005128149125    -0.000003817319     0.002614254846
      10       -0.001745748896    -0.000710458104    -0.004039485208
      11        0.003096085346     0.004027237105     0.001259476299
      12        0.001982904190    -0.000612467213     0.000039202072
      13       -0.001652023509    -0.003677271896    -0.006183227346
      14       -0.005152730291    -0.000091938523     0.002478062908
      15        0.001318837932     0.000071028569     0.000118824902


*** tstop() called on cx1-27-1-4 at Sat Sep 10 15:37:15 2016
Module time:
	user time   =      18.34 seconds =       0.31 minutes
	system time =       0.40 seconds =       0.01 minutes
	total time  =          4 seconds =       0.07 minutes
Total time:
	user time   =      73.06 seconds =       1.22 minutes
	system time =       1.80 seconds =       0.03 minutes
	total time  =         21 seconds =       0.35 minutes

			-----------------------------------------
			 OPTKING 2.0: for geometry optimizations 
			  - R.A. King,  Bethel University        
			-----------------------------------------

	Previous internal coordinate definitions found.
	---Fragment 1 Geometry and Gradient---
	 H          -1.2183030554        0.3857700775        3.4431102261
	 O           0.3645741748        0.1777364522        2.6233152891
	 C          -0.0180548281       -0.0138321597       -0.0441246328
	 C          -1.7008731146        2.1630309453       -0.9336825606
	 C           2.6323370255        0.2208126885       -1.1743631936
	 C          -1.2096416636       -2.5798233788       -0.7474894972
	 H          -1.9494667979        2.1162601298       -2.9792187152
	 H          -0.8572973825        3.9681385098       -0.4137299248
	 H          -3.5745440841        2.0528101248       -0.0645140243
	 H           2.5343563669        0.0883584298       -3.2279782033
	 H           3.4861832468        2.0235512277       -0.6631415549
	 H           3.8544273314       -1.2734457720       -0.4841543511
	 H          -1.4459035746       -2.8128426616       -2.7861767535
	 H          -3.0711359582       -2.7732233961        0.1302045030
	 H          -0.0171822213       -4.0979887412       -0.0625650508
	            -0.0092950961        0.0023420886        0.0041094479
	             0.0148341278        0.0025869602        0.0067169128
	            -0.0044048889       -0.0008740389       -0.0020385831
	             0.0011704632       -0.0019747242       -0.0001261951
	             0.0019038667       -0.0014072697        0.0040189908
	             0.0010495583       -0.0031638238       -0.0054509820
	            -0.0002671654       -0.0003494644       -0.0050116122
	             0.0022899587        0.0038379597        0.0014949125
	            -0.0051281491       -0.0000038173        0.0026142548
	            -0.0017457489       -0.0007104581       -0.0040394852
	             0.0030960853        0.0040272371        0.0012594763
	             0.0019829042       -0.0006124672        0.0000392021
	            -0.0016520235       -0.0036772719       -0.0061832273
	            -0.0051527303       -0.0000919385        0.0024780629
	             0.0013188379        0.0000710286        0.0001188249

	---Fragment 1 Intrafragment Coordinates---
	 - Coordinate -           - BOHR/RAD -       - ANG/DEG -
	 R(1,2)           =         1.794670	       0.949699
	 R(2,3)           =         2.701544	       1.429595
	 R(3,4)           =         2.891699	       1.530221
	 R(3,5)           =         2.890860	       1.529777
	 R(3,6)           =         2.915289	       1.542705
	 R(4,7)           =         2.061117	       1.090696
	 R(4,8)           =         2.059219	       1.089692
	 R(4,9)           =         2.068392	       1.094546
	 R(5,10)          =         2.060213	       1.090218
	 R(5,11)          =         2.059191	       1.089677
	 R(5,12)          =         2.050049	       1.084839
	 R(6,13)          =         2.065518	       1.093025
	 R(6,14)          =         2.067102	       1.093863
	 R(6,15)          =         2.048391	       1.083962
	 B(1,2,3)         =         1.911689	     109.531707
	 B(2,3,4)         =         1.910050	     109.437785
	 B(2,3,5)         =         1.823917	     104.502741
	 B(2,3,6)         =         1.937486	     111.009777
	 B(3,4,7)         =         1.937356	     111.002341
	 B(3,4,8)         =         1.921784	     110.110131
	 B(3,4,9)         =         1.936685	     110.963863
	 B(3,5,10)        =         1.918667	     109.931506
	 B(3,5,11)        =         1.932807	     110.741688
	 B(3,5,12)        =         1.934509	     110.839196
	 B(3,6,13)        =         1.965120	     112.593067
	 B(3,6,14)        =         1.926222	     110.364404
	 B(3,6,15)        =         1.911055	     109.495413
	 B(4,3,5)         =         1.930680	     110.619813
	 B(4,3,6)         =         1.928919	     110.518914
	 B(5,3,6)         =         1.930345	     110.600614
	 B(7,4,8)         =         1.896412	     108.656403
	 B(7,4,9)         =         1.882386	     107.852771
	 B(8,4,9)         =         1.887778	     108.161739
	 B(10,5,11)       =         1.900194	     108.873092
	 B(10,5,12)       =         1.893456	     108.487056
	 B(11,5,12)       =         1.883196	     107.899175
	 B(13,6,14)       =         1.881285	     107.789708
	 B(13,6,15)       =         1.889151	     108.240378
	 B(14,6,15)       =         1.889065	     108.235471
	*D(1,2,3,4)       =         0.872665	      49.999998
	 D(1,2,3,5)       =         2.940728	     168.491313
	 D(1,2,3,6)       =        -1.261110	     -72.256252
	 D(2,3,4,7)       =         3.093367	     177.236891
	 D(2,3,4,8)       =         0.992643	      56.874230
	 D(2,3,4,9)       =        -1.096856	     -62.845227
	 D(2,3,5,10)      =         3.137984	     179.793212
	 D(2,3,5,11)      =        -1.044730	     -59.858618
	 D(2,3,5,12)      =         1.044820	      59.863802
	 D(2,3,6,13)      =        -3.096722	    -177.429108
	 D(2,3,6,14)      =         1.083455	      62.077383
	 D(2,3,6,15)      =        -0.994273	     -56.967666
	 D(4,3,5,10)      =        -1.091231	     -62.522905
	 D(4,3,5,11)      =         1.009241	      57.825265
	 D(4,3,5,12)      =         3.098792	     177.547685
	 D(4,3,6,13)      =         1.063692	      60.945087
	 D(4,3,6,14)      =        -1.039316	     -59.548422
	 D(4,3,6,15)      =        -3.117044	    -178.593471
	 D(5,3,4,7)       =         1.092952	      62.621563
	 D(5,3,4,8)       =        -1.007772	     -57.741097
	 D(5,3,4,9)       =        -3.097271	    -177.460554
	 D(5,3,6,13)      =        -1.080381	     -61.901288
	 D(5,3,6,14)      =         3.099796	     177.605203
	 D(5,3,6,15)      =         1.022067	      58.560154
	 D(6,3,4,7)       =        -1.050926	     -60.213625
	 D(6,3,4,8)       =         3.131535	     179.423714
	 D(6,3,4,9)       =         1.042036	      59.704257
	 D(6,3,5,10)      =         1.051818	      60.264755
	 D(6,3,5,11)      =        -3.130895	    -179.387075
	 D(6,3,5,12)      =        -1.041345	     -59.664655

	Current energy   :      -232.2455340831

	Energy change for the previous step:
		Projected    :        -0.0087148011
		Actual       :        -0.0008021274
	Energy ratio indicates iffy step: Trust radius decreased to 1.250e-01.


	Performing BFGS update.
	Previous computed or guess Hessian on step 1.
	Steps to be used in Hessian update: 1
	Taking RFO optimization step.
	Going to follow RFO solution 1.
	Using RFO vector 1.
	Norm of target step-size    0.10531
	Projected energy change by RFO approximation:        -0.0015914119

	Back-transformation to cartesian coordinates...
	Successfully converged to displaced geometry.

	Back-transformation to cartesian coordinates to adjust frozen coordinates...
	Successfully converged to displaced geometry.

	--- Internal Coordinate Step in ANG or DEG, aJ/ANG or AJ/DEG ---
	 ---------------------------------------------------------------------------
	   Coordinate                Previous        Force       Change         New 
	   ----------                --------       ------       ------       ------
	    1 R(1,2)          =      0.949699    -0.085245    -0.009806     0.939893
	    2 R(2,3)          =      1.429595    -0.097412    -0.014600     1.414996
	    3 R(3,4)          =      1.530221    -0.021249    -0.003823     1.526398
	    4 R(3,5)          =      1.529777    -0.036308    -0.009882     1.519895
	    5 R(3,6)          =      1.542705    -0.082664    -0.014476     1.528229
	    6 R(4,7)          =      1.090696    -0.041308    -0.007433     1.083263
	    7 R(4,8)          =      1.089692    -0.038556    -0.006724     1.082968
	    8 R(4,9)          =      1.094546    -0.047324    -0.008973     1.085573
	    9 R(5,10)         =      1.090218    -0.034234    -0.006814     1.083404
	   10 R(5,11)         =      1.089677    -0.042200    -0.007140     1.082537
	   11 R(5,12)         =      1.084839    -0.013525    -0.002251     1.082588
	   12 R(6,13)         =      1.093025    -0.055255    -0.009242     1.083783
	   13 R(6,14)         =      1.093863    -0.046969    -0.008925     1.084939
	   14 R(6,15)         =      1.083962    -0.006219    -0.001384     1.082578
	   15 B(1,2,3)        =    109.531707     0.000080     0.159022   109.690729
	   16 B(2,3,4)        =    109.437785     0.000043     0.288531   109.726316
	   17 B(2,3,5)        =    104.502741     0.000192     0.802838   105.305579
	   18 B(2,3,6)        =    111.009777    -0.000295    -1.681852   109.327925
	   19 B(3,4,7)        =    111.002341     0.000032     0.164253   111.166593
	   20 B(3,4,8)        =    110.110131     0.000062     0.348854   110.458985
	   21 B(3,4,9)        =    110.963863    -0.000034    -0.227041   110.736822
	   22 B(3,5,10)       =    109.931506     0.000216     0.682679   110.614185
	   23 B(3,5,11)       =    110.741688    -0.000113    -0.357248   110.384439
	   24 B(3,5,12)       =    110.839196    -0.000147    -0.519291   110.319905
	   25 B(3,6,13)       =    112.593067    -0.000373    -1.277381   111.315685
	   26 B(3,6,14)       =    110.364404     0.000086     0.236881   110.601285
	   27 B(3,6,15)       =    109.495413     0.000163     0.689745   110.185157
	   28 B(4,3,5)        =    110.619813    -0.000079     0.218213   110.838026
	   29 B(4,3,6)        =    110.518914     0.000128     0.367406   110.886320
	   30 B(5,3,6)        =    110.600614     0.000009    -0.000750   110.599864
	   31 B(7,4,8)        =    108.656403    -0.000037    -0.186207   108.470196
	   32 B(7,4,9)        =    107.852771    -0.000019    -0.132279   107.720492
	   33 B(8,4,9)        =    108.161739    -0.000007     0.018016   108.179755
	   34 B(10,5,11)      =    108.873092    -0.000048    -0.236505   108.636587
	   35 B(10,5,12)      =    108.487056    -0.000016     0.120358   108.607414
	   36 B(11,5,12)      =    107.899175     0.000107     0.312794   108.211969
	   37 B(13,6,14)      =    107.789708     0.000105     0.121614   107.911322
	   38 B(13,6,15)      =    108.240378     0.000102     0.363388   108.603766
	   39 B(14,6,15)      =    108.235471    -0.000076    -0.110113   108.125358
	   40 *D(1,2,3,4)     =     49.999998    -0.000000    -0.000000    49.999998
	   41 D(1,2,3,5)      =    168.491313     0.000007     0.844804   169.336117
	   42 D(1,2,3,6)      =    -72.256252     0.000001     0.444661   -71.811591
	   43 D(2,3,4,7)      =    177.236891     0.000039     0.360415   177.597306
	   44 D(2,3,4,8)      =     56.874230     0.000035     0.255060    57.129291
	   45 D(2,3,4,9)      =    -62.845227     0.000033     0.151874   -62.693352
	   46 D(2,3,5,10)     =    179.793212    -0.000026    -0.870149   178.923063
	   47 D(2,3,5,11)     =    -59.858618    -0.000024    -0.952646   -60.811264
	   48 D(2,3,5,12)     =     59.863802    -0.000032    -1.127910    58.735892
	   49 D(2,3,6,13)     =   -177.429108    -0.000013    -0.031890  -177.460997
	   50 D(2,3,6,14)     =     62.077383     0.000000     0.504103    62.581486
	   51 D(2,3,6,15)     =    -56.967666    -0.000014     0.057797   -56.909870
	   52 D(4,3,5,10)     =    -62.522905     0.000002     0.039828   -62.483077
	   53 D(4,3,5,11)     =     57.825265     0.000004    -0.042668    57.782597
	   54 D(4,3,5,12)     =    177.547685    -0.000005    -0.217932   177.329753
	   55 D(4,3,6,13)     =     60.945087    -0.000000     0.483881    61.428969
	   56 D(4,3,6,14)     =    -59.548422     0.000013     1.019874   -58.528549
	   57 D(4,3,6,15)     =   -178.593471    -0.000001     0.573567  -178.019904
	   58 D(5,3,4,7)      =     62.621563    -0.000010    -0.906957    61.714606
	   59 D(5,3,4,8)      =    -57.741097    -0.000014    -1.012312   -58.753409
	   60 D(5,3,4,9)      =   -177.460554    -0.000016    -1.115498  -178.576052
	   61 D(5,3,6,13)     =    -61.901288     0.000001    -0.049309   -61.950597
	   62 D(5,3,6,14)     =    177.605203     0.000015     0.486684   178.091886
	   63 D(5,3,6,15)     =     58.560154     0.000001     0.040377    58.600531
	   64 D(6,3,4,7)      =    -60.213625    -0.000020    -1.314251   -61.527876
	   65 D(6,3,4,8)      =    179.423714    -0.000024    -1.419606   178.004108
	   66 D(6,3,4,9)      =     59.704257    -0.000026    -1.522792    58.181465
	   67 D(6,3,5,10)     =     60.264755     0.000028     0.659653    60.924408
	   68 D(6,3,5,11)     =   -179.387075     0.000030     0.577156  -178.809918
	   69 D(6,3,5,12)     =    -59.664655     0.000022     0.401892   -59.262762
	 ---------------------------------------------------------------------------
	Successfully symmetrized geometry.

  ==> Convergence Check <==

  Measures of convergence in internal coordinates in au.
  Criteria marked as inactive (o), active & met (*), and active & unmet ( ).
  ---------------------------------------------------------------------------------------------
   Step     Total Energy     Delta E     MAX Force     RMS Force      MAX Disp      RMS Disp   
  ---------------------------------------------------------------------------------------------
    Convergence Criteria    1.00e-06 *    3.00e-04 *             o    1.20e-03 *             o
  ---------------------------------------------------------------------------------------------
      2    -232.24553408   -8.02e-04      1.18e-02      3.17e-03 o    2.94e-02      1.27e-02 o  ~
  ---------------------------------------------------------------------------------------------

	Writing optimization data to binary file.
	Structure for next step:
	Cartesian Geometry (in Angstrom)
	    H    -0.6697513183   0.1576371894   1.7933642369
	    O     0.1660873550   0.0624775554   1.3741784549
	    C    -0.0088567410  -0.0050529486  -0.0283359130
	    C    -0.8933204834   1.1487984204  -0.4933553945
	    C     1.3888085911   0.1153398713  -0.6132444474
	    C    -0.6315297846  -1.3513351494  -0.3961490279
	    H    -1.0084664618   1.1438777590  -1.5704699939
	    H    -0.4632520462   2.0980022339  -0.1986118999
	    H    -1.8836318154   1.0748990811  -0.0548452414
	    H     1.3563747390   0.0544596417  -1.6944502644
	    H     1.8345497036   1.0612760393  -0.3332356964
	    H     2.0218131011  -0.6802476400  -0.2412987554
	    H    -0.7392145527  -1.4554801509  -1.4695281921
	    H    -1.6158178070  -1.4510974119   0.0491784153
	    H    -0.0129681381  -2.1612470447  -0.0309098462
			--------------------------
			 OPTKING Finished Execution 
			--------------------------

    Structure for next step:
    Molecular point group: c1
    Full point group: C1

    Geometry (in Angstrom), charge = 0, multiplicity = 1:

    H           -0.666081582561     0.161239446005     1.795703920397
    O            0.169757090742     0.066079811943     1.376518138378
    C           -0.005187005288    -0.001450691997    -0.025996229523
    C           -0.889650747722     1.152400676989    -0.491015711034
    C            1.392478326833     0.118942127866    -0.610904763903
    C           -0.627860048904    -1.347732892789    -0.393809344440
    H           -1.004796726124     1.147480015601    -1.568130310465
    H           -0.459582310531     2.101604490512    -0.196272216426
    H           -1.879962079698     1.078501337701    -0.052505557970
    H            1.360044474697     0.058061898227    -1.692110580911
    H            1.838219439305     1.064878295867    -0.330896012947
    H            2.025482836862    -0.676645383375    -0.238959071948
    H           -0.735544816991    -1.451877894349    -1.467188508683
    H           -1.612148071243    -1.447495155318     0.051518098790
    H           -0.009298402406    -2.157644788115    -0.028570162734

gradient() will perform analytic gradient computation.

*** tstart() called on cx1-27-1-4
*** at Sat Sep 10 15:37:16 2016


         ---------------------------------------------------------
                                   SCF
            by Justin Turney, Rob Parrish, and Andy Simmonett
                              RHF Reference
                        4 Threads,   2000 MiB Core
         ---------------------------------------------------------

  ==> Geometry <==

    Molecular point group: c1
    Full point group: C1

    Geometry (in Angstrom), charge = 0, multiplicity = 1:

       Center              X                  Y                   Z               Mass       
    ------------   -----------------  -----------------  -----------------  -----------------
           H         -0.666081582561     0.161239446005     1.795703920397     1.007825032070
           O          0.169757090742     0.066079811943     1.376518138378    15.994914619560
           C         -0.005187005288    -0.001450691997    -0.025996229523    12.000000000000
           C         -0.889650747722     1.152400676989    -0.491015711034    12.000000000000
           C          1.392478326833     0.118942127866    -0.610904763903    12.000000000000
           C         -0.627860048904    -1.347732892789    -0.393809344440    12.000000000000
           H         -1.004796726124     1.147480015601    -1.568130310465     1.007825032070
           H         -0.459582310531     2.101604490512    -0.196272216426     1.007825032070
           H         -1.879962079698     1.078501337701    -0.052505557970     1.007825032070
           H          1.360044474697     0.058061898227    -1.692110580911     1.007825032070
           H          1.838219439305     1.064878295867    -0.330896012947     1.007825032070
           H          2.025482836862    -0.676645383375    -0.238959071948     1.007825032070
           H         -0.735544816991    -1.451877894349    -1.467188508683     1.007825032070
           H         -1.612148071243    -1.447495155318     0.051518098790     1.007825032070
           H         -0.009298402406    -2.157644788115    -0.028570162734     1.007825032070

  Running in c1 symmetry.

  Rotational constants: A =      0.15909  B =      0.15847  C =      0.15153 [cm^-1]
  Rotational constants: A =   4769.39804  B =   4750.94962  C =   4542.61186 [MHz]
  Nuclear repulsion =  200.748121746266605

  Charge       = 0
  Multiplicity = 1
  Electrons    = 42
  Nalpha       = 21
  Nbeta        = 21

  ==> Algorithm <==

  SCF Algorithm Type is DF.
  DIIS enabled.
  MOM disabled.
  Fractional occupation disabled.
  Guess Type is READ.
  Energy threshold   = 1.00e-08
  Density threshold  = 1.00e-08
  Integral threshold = 0.00e+00

  ==> Primary Basis <==

  Basis Set: CC-PVTZ
    Number of shells: 110
    Number of basis function: 290
    Number of Cartesian functions: 325
    Spherical Harmonics?: true
    Max angular momentum: 3

  ==> Pre-Iterations <==

   -------------------------------------------------------
    Irrep   Nso     Nmo     Nalpha   Nbeta   Ndocc  Nsocc
   -------------------------------------------------------
     A        290     290       0       0       0       0
   -------------------------------------------------------
    Total     290     290      21      21      21       0
   -------------------------------------------------------

  ==> Integral Setup <==

  ==> DFJK: Density-Fitted J/K Matrices <==

    J tasked:                  Yes
    K tasked:                  Yes
    wK tasked:                  No
    OpenMP threads:              4
    Integrals threads:           4
    Memory (MB):              1430
    Algorithm:                Core
    Integral Cache:           NONE
    Schwarz Cutoff:          1E-12
    Fitting Condition:       1E-12

   => Auxiliary Basis Set <=

  Basis Set: 
    Number of shells: 225
    Number of basis function: 695
    Number of Cartesian functions: 830
    Spherical Harmonics?: true
    Max angular momentum: 4

  Minimum eigenvalue in the overlap matrix is 6.5737149322E-04.
  Using Symmetric Orthogonalization.
  SCF Guess: Reading in previously saved MOs, projecting if necessary.

  Using orbitals from previous SCF, no projection.
  Recomputing DOCC and SOCC from number of alpha and beta electrons from previous calculation.
              A 
    DOCC [    21 ]

  ==> Iterations <==

                           Total Energy        Delta E     RMS |[F,P]|

   @DF-RHF iter   0:  -232.28511017624501   -2.32285e+02   2.45710e-04 
   @DF-RHF iter   1:  -232.24651745400345    3.85927e-02   3.90807e-05 
   @DF-RHF iter   2:  -232.24660555688050   -8.81029e-05   1.70004e-05 DIIS
   @DF-RHF iter   3:  -232.24661976311077   -1.42062e-05   6.69706e-06 DIIS
   @DF-RHF iter   4:  -232.24662331045036   -3.54734e-06   1.51423e-06 DIIS
   @DF-RHF iter   5:  -232.24662353593513   -2.25485e-07   5.66135e-07 DIIS
   @DF-RHF iter   6:  -232.24662356317802   -2.72429e-08   2.06506e-07 DIIS
   @DF-RHF iter   7:  -232.24662356622414   -3.04613e-09   5.57869e-08 DIIS
   @DF-RHF iter   8:  -232.24662356649301   -2.68869e-10   1.32164e-08 DIIS
   @DF-RHF iter   9:  -232.24662356650887   -1.58593e-11   4.16680e-09 DIIS

  ==> Post-Iterations <==

    Orbital Energies (a.u.)
    -----------------------

    Doubly Occupied:                                                      

       1A    -20.542067     2A    -11.280491     3A    -11.211278  
       4A    -11.207527     5A    -11.203426     6A     -1.364854  
       7A     -1.065667     8A     -0.943375     9A     -0.939790  
      10A     -0.777973    11A     -0.672889    12A     -0.624617  
      13A     -0.622965    14A     -0.576224    15A     -0.557853  
      16A     -0.532351    17A     -0.517241    18A     -0.511521  
      19A     -0.504520    20A     -0.459392    21A     -0.428783  

    Virtual:                                                              

      22A      0.130574    23A      0.175068    24A      0.188739  
      25A      0.191140    26A      0.197475    27A      0.212624  
      28A      0.217547    29A      0.257006    30A      0.261983  
      31A      0.274473    32A      0.276684    33A      0.324611  
      34A      0.326994    35A      0.369392    36A      0.384924  
      37A      0.397824    38A      0.446630    39A      0.462357  
      40A      0.473771    41A      0.526757    42A      0.532041  
      43A      0.552929    44A      0.556627    45A      0.581257  
      46A      0.612219    47A      0.617499    48A      0.619790  
      49A      0.628141    50A      0.648962    51A      0.657837  
      52A      0.661537    53A      0.668772    54A      0.673452  
      55A      0.677423    56A      0.699165    57A      0.730162  
      58A      0.759703    59A      0.796373    60A      0.809327  
      61A      0.829484    62A      0.897807    63A      0.903984  
      64A      0.933614    65A      0.960837    66A      0.981349  
      67A      0.994589    68A      1.017963    69A      1.039686  
      70A      1.071384    71A      1.086787    72A      1.099324  
      73A      1.132348    74A      1.144443    75A      1.155921  
      76A      1.167297    77A      1.171712    78A      1.188476  
      79A      1.230525    80A      1.238043    81A      1.268218  
      82A      1.277134    83A      1.301756    84A      1.342425  
      85A      1.360147    86A      1.366152    87A      1.387639  
      88A      1.428732    89A      1.442339    90A      1.465280  
      91A      1.468108    92A      1.478811    93A      1.496529  
      94A      1.500963    95A      1.505526    96A      1.530538  
      97A      1.548951    98A      1.556525    99A      1.578524  
     100A      1.590320   101A      1.602624   102A      1.638940  
     103A      1.646959   104A      1.675698   105A      1.683912  
     106A      1.750808   107A      1.758944   108A      1.777499  
     109A      1.783367   110A      1.820867   111A      1.821980  
     112A      1.858063   113A      1.878351   114A      1.923965  
     115A      1.968952   116A      2.172090   117A      2.247269  
     118A      2.288399   119A      2.392005   120A      2.472793  
     121A      2.531028   122A      2.533526   123A      2.594683  
     124A      2.664132   125A      2.681201   126A      2.696962  
     127A      2.746471   128A      2.757579   129A      2.811307  
     130A      2.846510   131A      2.863368   132A      2.865762  
     133A      2.919246   134A      2.934686   135A      2.936911  
     136A      2.943707   137A      3.002906   138A      3.015065  
     139A      3.079079   140A      3.109727   141A      3.114086  
     142A      3.126788   143A      3.139433   144A      3.140940  
     145A      3.162552   146A      3.171145   147A      3.188367  
     148A      3.247490   149A      3.252377   150A      3.299766  
     151A      3.316625   152A      3.336005   153A      3.344341  
     154A      3.350833   155A      3.360753   156A      3.388035  
     157A      3.400409   158A      3.422324   159A      3.446329  
     160A      3.462976   161A      3.468559   162A      3.480430  
     163A      3.499921   164A      3.502181   165A      3.533555  
     166A      3.577763   167A      3.588783   168A      3.596217  
     169A      3.616638   170A      3.630459   171A      3.662068  
     172A      3.674328   173A      3.684327   174A      3.707471  
     175A      3.743730   176A      3.750463   177A      3.774376  
     178A      3.790417   179A      3.800484   180A      3.804483  
[...]
       8       -0.000001425853    -0.000002541720    -0.000002959761
       9        0.000010860534    -0.000006454858    -0.000000315481
      10       -0.000005766247     0.000007239257     0.000003468256
      11        0.000002281423     0.000001093993     0.000002871619
      12       -0.000010708856    -0.000007795623     0.000002676771
      13       -0.000002552147    -0.000000320879    -0.000000339852
      14        0.000008354212     0.000004787780     0.000002191620
      15        0.000003335740     0.000002156630    -0.000002863622


*** tstop() called on cx1-27-1-4 at Sat Sep 10 15:38:01 2016
Module time:
	user time   =      18.24 seconds =       0.30 minutes
	system time =       0.43 seconds =       0.01 minutes
	total time  =          4 seconds =       0.07 minutes
Total time:
	user time   =     235.22 seconds =       3.92 minutes
	system time =       5.70 seconds =       0.10 minutes
	total time  =         67 seconds =       1.12 minutes

			-----------------------------------------
			 OPTKING 2.0: for geometry optimizations 
			  - R.A. King,  Bethel University        
			-----------------------------------------

	Previous internal coordinate definitions found.
	---Fragment 1 Geometry and Gradient---
	 H          -1.2635266894        0.3045523748        3.4001334314
	 O           0.3142433902        0.1283554795        2.6023292439
	 C          -0.0066420367       -0.0033309823       -0.0474231854
	 C          -1.6825426420        2.1724928652       -0.9333033646
	 C           2.6389066229        0.2251036144       -1.1541999518
	 C          -1.1878096488       -2.5446580494       -0.7422097513
	 H          -1.9070617437        2.1530722630       -2.9685808464
	 H          -0.8675082471        3.9685793834       -0.3867558588
	 H          -3.5527560988        2.0365964646       -0.0989679521
	 H           2.5889226626        0.1059129032       -3.1979215001
	 H           3.4787487902        2.0135783788       -0.6231934436
	 H           3.8329606487       -1.2766464606       -0.4433236592
	 H          -1.4012184315       -2.7368840995       -2.7706099851
	 H          -3.0446679099       -2.7373748575        0.1075663225
	 H          -0.0162941133       -4.0777826013       -0.0616316086
	             0.0000806582        0.0009619113       -0.0000741674
	            -0.0002560356       -0.0012999430        0.0001125625
	             0.0006534041        0.0006722507       -0.0001214057
	            -0.0004718537       -0.0003399448        0.0000723811
	            -0.0000205140        0.0000017506        0.0000081448
	             0.0000090640        0.0000032920        0.0000000122
	             0.0000008982        0.0000025186       -0.0000022572
	            -0.0000014259       -0.0000025417       -0.0000029598
	             0.0000108605       -0.0000064549       -0.0000003155
	            -0.0000057662        0.0000072393        0.0000034683
	             0.0000022814        0.0000010940        0.0000028716
	            -0.0000107089       -0.0000077956        0.0000026768
	            -0.0000025521       -0.0000003209       -0.0000003399
	             0.0000083542        0.0000047878        0.0000021916
	             0.0000033357        0.0000021566       -0.0000028636

	---Fragment 1 Intrafragment Coordinates---
	 - Coordinate -           - BOHR/RAD -       - ANG/DEG -
	 R(1,2)           =         1.776765	       0.940224
	 R(2,3)           =         2.672358	       1.414151
	 R(3,4)           =         2.885764	       1.527081
	 R(3,5)           =         2.876815	       1.522345
	 R(3,6)           =         2.887253	       1.527868
	 R(4,7)           =         2.047716	       1.083605
	 R(4,8)           =         2.046686	       1.083059
	 R(4,9)           =         2.052384	       1.086075
	 R(5,10)          =         2.047804	       1.083651
	 R(5,11)          =         2.045958	       1.082674
	 R(5,12)          =         2.046060	       1.082729
	 R(6,13)          =         2.048634	       1.084090
	 R(6,14)          =         2.051142	       1.085417
	 R(6,15)          =         2.045998	       1.082695
	 B(1,2,3)         =         1.921418	     110.089131
	 B(2,3,4)         =         1.914488	     109.692102
	 B(2,3,5)         =         1.841213	     105.493722
	 B(2,3,6)         =         1.908265	     109.335538
	 B(3,4,7)         =         1.940825	     111.201110
	 B(3,4,8)         =         1.926685	     110.390904
	 B(3,4,9)         =         1.933155	     110.761641
	 B(3,5,10)        =         1.935731	     110.909189
	 B(3,5,11)        =         1.925221	     110.307040
	 B(3,5,12)        =         1.922741	     110.164971
	 B(3,6,13)        =         1.942784	     111.313334
	 B(3,6,14)        =         1.931947	     110.692432
	 B(3,6,15)        =         1.923312	     110.197663
	 B(4,3,5)         =         1.934874	     110.860114
	 B(4,3,6)         =         1.930711	     110.621618
	 B(5,3,6)         =         1.932130	     110.702914
	 B(7,4,8)         =         1.893786	     108.505971
	 B(7,4,9)         =         1.879172	     107.668612
	 B(8,4,9)         =         1.888541	     108.205405
	 B(10,5,11)       =         1.896442	     108.658113
	 B(10,5,12)       =         1.894698	     108.558227
	 B(11,5,12)       =         1.887959	     108.172097
	 B(13,6,14)       =         1.882922	     107.883474
	 B(13,6,15)       =         1.895144	     108.583732
	 B(14,6,15)       =         1.886136	     108.067630
	*D(1,2,3,4)       =         0.872665	      49.999998
	 D(1,2,3,5)       =         2.957479	     169.451050
	 D(1,2,3,6)       =        -1.247343	     -71.467503
	 D(2,3,4,7)       =         3.107764	     178.061780
	 D(2,3,4,8)       =         1.004812	      57.571461
	 D(2,3,4,9)       =        -1.086555	     -62.255014
	 D(2,3,5,10)      =         3.121966	     178.875476
	 D(2,3,5,11)      =        -1.059248	     -60.690450
	 D(2,3,5,12)      =         1.023811	      58.660041
	 D(2,3,6,13)      =        -3.107053	    -178.021044
	 D(2,3,6,14)      =         1.082056	      61.997224
	 D(2,3,6,15)      =        -1.003360	     -57.488299
	 D(4,3,5,10)      =        -1.089957	     -62.449938
	 D(4,3,5,11)      =         1.012014	      57.984136
	 D(4,3,5,12)      =         3.095073	     177.334627
	 D(4,3,6,13)      =         1.065963	      61.075171
	 D(4,3,6,14)      =        -1.028113	     -58.906561
	 D(4,3,6,15)      =        -3.113529	    -178.392084
	 D(5,3,4,7)       =         1.081358	      61.957269
	 D(5,3,4,8)       =        -1.021594	     -58.533050
	 D(5,3,4,9)       =        -3.112961	    -178.359525
	 D(5,3,6,13)      =        -1.085936	     -62.219522
	 D(5,3,6,14)      =         3.103174	     177.798746
	 D(5,3,6,15)      =         1.017758	      58.313223
	 D(6,3,4,7)       =        -1.068952	     -61.246429
	 D(6,3,4,8)       =         3.111281	     178.263251
	 D(6,3,4,9)       =         1.019914	      58.436777
	 D(6,3,5,10)      =         1.059535	      60.706875
	 D(6,3,5,11)      =        -3.121679	    -178.859051
	 D(6,3,5,12)      =        -1.038620	     -59.508560

	Current energy   :      -232.2466473278

	Energy change for the previous step:
		Projected    :        -0.0000003187
		Actual       :        -0.0000000895

	Performing BFGS update.
	Previous computed or guess Hessian on step 1.
	Steps to be used in Hessian update: 6 5
	Taking RFO optimization step.
	Going to follow RFO solution 1.
	Using RFO vector 1.
	Norm of target step-size    0.00460
	Projected energy change by RFO approximation:        -0.0000001723

	Back-transformation to cartesian coordinates...
	Successfully converged to displaced geometry.

	Back-transformation to cartesian coordinates to adjust frozen coordinates...
	Successfully converged to displaced geometry.

	--- Internal Coordinate Step in ANG or DEG, aJ/ANG or AJ/DEG ---
	 ---------------------------------------------------------------------------
	   Coordinate                Previous        Force       Change         New 
	   ----------                --------       ------       ------       ------
	    1 R(1,2)          =      0.940224     0.000079     0.000003     0.940226
	    2 R(2,3)          =      1.414151    -0.000003     0.000014     1.414165
	    3 R(3,4)          =      1.527081     0.000113    -0.000000     1.527080
	    4 R(3,5)          =      1.522345     0.000316     0.000035     1.522380
	    5 R(3,6)          =      1.527868     0.000131     0.000022     1.527891
	    6 R(4,7)          =      1.083605    -0.000017    -0.000007     1.083598
	    7 R(4,8)          =      1.083059     0.000030    -0.000002     1.083057
	    8 R(4,9)          =      1.086075     0.000079     0.000007     1.086082
	    9 R(5,10)         =      1.083651     0.000031     0.000002     1.083653
	   10 R(5,11)         =      1.082674    -0.000022    -0.000010     1.082665
	   11 R(5,12)         =      1.082729    -0.000003    -0.000005     1.082723
	   12 R(6,13)         =      1.084090    -0.000005    -0.000003     1.084088
	   13 R(6,14)         =      1.085417     0.000059     0.000006     1.085423
	   14 R(6,15)         =      1.082695     0.000005    -0.000004     1.082692
	   15 B(1,2,3)        =    110.089131     0.000002     0.006621   110.095751
	   16 B(2,3,4)        =    109.692102    -0.000000    -0.001619   109.690482
	   17 B(2,3,5)        =    105.493722     0.000000     0.002693   105.496415
	   18 B(2,3,6)        =    109.335538    -0.000000     0.002401   109.337939
	   19 B(3,4,7)        =    111.201110    -0.000000    -0.001297   111.199813
	   20 B(3,4,8)        =    110.390904    -0.000000    -0.001632   110.389272
	   21 B(3,4,9)        =    110.761641     0.000001     0.003910   110.765551
	   22 B(3,5,10)       =    110.909189     0.000000     0.000485   110.909674
	   23 B(3,5,11)       =    110.307040    -0.000000    -0.000992   110.306049
	   24 B(3,5,12)       =    110.164971     0.000001     0.004336   110.169307
	   25 B(3,6,13)       =    111.313334    -0.000000     0.000838   111.314172
	   26 B(3,6,14)       =    110.692432     0.000001     0.002597   110.695029
	   27 B(3,6,15)       =    110.197663     0.000000    -0.002066   110.195597
	   28 B(4,3,5)        =    110.860114     0.000000     0.000379   110.860493
	   29 B(4,3,6)        =    110.621618    -0.000000    -0.004182   110.617437
	   30 B(5,3,6)        =    110.702914     0.000000     0.000681   110.703595
	   31 B(7,4,8)        =    108.505971     0.000000     0.000540   108.506511
	   32 B(7,4,9)        =    107.668612    -0.000000    -0.000662   107.667950
	   33 B(8,4,9)        =    108.205405    -0.000000    -0.000882   108.204524
	   34 B(10,5,11)      =    108.658113    -0.000000    -0.000577   108.657536
	   35 B(10,5,12)      =    108.558227    -0.000001    -0.001493   108.556734
	   36 B(11,5,12)      =    108.172097    -0.000001    -0.001890   108.170207
	   37 B(13,6,14)      =    107.883474    -0.000000    -0.001153   107.882320
	   38 B(13,6,15)      =    108.583732     0.000000    -0.000005   108.583727
	   39 B(14,6,15)      =    108.067630    -0.000000    -0.000260   108.067370
	   40 *D(1,2,3,4)     =     49.999998    -0.000000    -0.000000    49.999998
	   41 D(1,2,3,5)      =    169.451050     0.000000     0.001134   169.452184
	   42 D(1,2,3,6)      =    -71.467503     0.000000     0.004663   -71.462841
	   43 D(2,3,4,7)      =    178.061780     0.000000    -0.008230   178.053551
	   44 D(2,3,4,8)      =     57.571461     0.000000    -0.006963    57.564498
	   45 D(2,3,4,9)      =    -62.255014     0.000000    -0.007325   -62.262338
	   46 D(2,3,5,10)     =    178.875476    -0.000000    -0.078327   178.797149
	   47 D(2,3,5,11)     =    -60.690450    -0.000000    -0.079390   -60.769840
	   48 D(2,3,5,12)     =     58.660041    -0.000000    -0.079618    58.580423
	   49 D(2,3,6,13)     =   -178.021044    -0.000000     0.030924  -177.990120
	   50 D(2,3,6,14)     =     61.997224    -0.000000     0.030087    62.027312
	   51 D(2,3,6,15)     =    -57.488299    -0.000000     0.030085   -57.458214
	   52 D(4,3,5,10)     =    -62.449938    -0.000000    -0.078481   -62.528419
	   53 D(4,3,5,11)     =     57.984136    -0.000000    -0.079543    57.904593
	   54 D(4,3,5,12)     =    177.334627    -0.000000    -0.079771   177.254856
	   55 D(4,3,6,13)     =     61.075171     0.000000     0.034031    61.109202
	   56 D(4,3,6,14)     =    -58.906561     0.000000     0.033194   -58.873366
	   57 D(4,3,6,15)     =   -178.392084     0.000000     0.033191  -178.358892
	   58 D(5,3,4,7)      =     61.957269    -0.000000    -0.010765    61.946504
	   59 D(5,3,4,8)      =    -58.533050     0.000000    -0.009498   -58.542548
	   60 D(5,3,4,9)      =   -178.359525     0.000000    -0.009860  -178.369385
	   61 D(5,3,6,13)     =    -62.219522     0.000000     0.035995   -62.183527
	   62 D(5,3,6,14)     =    177.798746     0.000000     0.035158   177.833905
	   63 D(5,3,6,15)     =     58.313223     0.000000     0.035156    58.348379
	   64 D(6,3,4,7)      =    -61.246429    -0.000000    -0.008966   -61.255396
	   65 D(6,3,4,8)      =    178.263251    -0.000000    -0.007699   178.255552
	   66 D(6,3,4,9)      =     58.436777    -0.000000    -0.008062    58.428715
	   67 D(6,3,5,10)     =     60.706875    -0.000000    -0.083085    60.623790
	   68 D(6,3,5,11)     =   -178.859051    -0.000000    -0.084147  -178.943198
	   69 D(6,3,5,12)     =    -59.508560    -0.000000    -0.084375   -59.592935
	 ---------------------------------------------------------------------------
	Successfully symmetrized geometry.

  ==> Convergence Check <==

  Measures of convergence in internal coordinates in au.
  Criteria marked as inactive (o), active & met (*), and active & unmet ( ).
  ---------------------------------------------------------------------------------------------
   Step     Total Energy     Delta E     MAX Force     RMS Force      MAX Disp      RMS Disp   
  ---------------------------------------------------------------------------------------------
    Convergence Criteria    1.00e-06 *    3.00e-04 *             o    1.20e-03 *             o
  ---------------------------------------------------------------------------------------------
      7    -232.24664733   -8.95e-08 *    3.83e-05 *    7.62e-06 o    1.47e-03      5.54e-04 o  ~
  ---------------------------------------------------------------------------------------------


  **** Optimization is complete! (in 7 steps) ****

  ==> Optimization Summary <==

  Measures of convergence in internal coordinates in au.
  --------------------------------------------------------------------------------------------------------------- ~
   Step         Total Energy             Delta E       MAX Force       RMS Force        MAX Disp        RMS Disp  ~
  --------------------------------------------------------------------------------------------------------------- ~
      1    -232.244731955770   -232.244731955770      0.00890101      0.00287049      0.09827633      0.03268140  ~
      2    -232.245534083143     -0.000802127373      0.01182373      0.00317134      0.02935386      0.01266849  ~
      3    -232.246623566509     -0.001089483366      0.00183296      0.00037165      0.01494271      0.00639412  ~
      4    -232.246644270742     -0.000020704233      0.00070349      0.00012645      0.01590168      0.00592220  ~
      5    -232.246645841240     -0.000001570498      0.00021256      0.00004625      0.00921829      0.00351267  ~
      6    -232.246647238322     -0.000001397082      0.00006359      0.00001980      0.00229905      0.00094052  ~
      7    -232.246647327801     -0.000000089479      0.00003834      0.00000762      0.00147263      0.00055388  ~
  --------------------------------------------------------------------------------------------------------------- ~

	Writing optimization data to binary file.
	Final energy is   -232.2466473278010
	Final (previous) structure:
	Cartesian Geometry (in Angstrom)
	    H    -0.6686295265   0.1611621756   1.7992731180
	    O     0.1662904400   0.0679227943   1.3770933251
	    C    -0.0035148144  -0.0017626799  -0.0250952689
	    C    -0.8903632186   1.1496337101  -0.4938828692
	    C     1.3964492404   0.1191197023  -0.6107763086
	    C    -0.6285617943  -1.3465750434  -0.3927604844
	    H    -1.0091736101   1.1393567700  -1.5709053258
	    H    -0.4590655926   2.1000817602  -0.2046623858
	    H    -1.8800375551   1.0777204322  -0.0523715846
	    H     1.3699988678   0.0560466944  -1.6922671727
	    H     1.8408745742   1.0655397857  -0.3297797669
	    H     2.0283154167  -0.6755722104  -0.2345967765
	    H    -0.7414928582  -1.4482966880  -1.4661436580
	    H    -1.6111688657  -1.4485563860   0.0569216463
	    H    -0.0086224734  -2.1578696142  -0.0326140426
	Saving final (previous) structure.
			--------------------------
			 OPTKING Finished Execution 
			--------------------------

    Final optimized geometry and variables:
    Molecular point group: c1
    Full point group: C1

    Geometry (in Angstrom), charge = 0, multiplicity = 1:

    H           -0.668629526483     0.161162175586     1.799273118046
    O            0.166290440031     0.067922794324     1.377093325102
    C           -0.003514814441    -0.001762679940    -0.025095268853
    C           -0.890363218618     1.149633710091    -0.493882869248
    C            1.396449240419     0.119119702334    -0.610776308624
    C           -0.628561794292    -1.346575043400    -0.392760484357
    H           -1.009173610137     1.139356770048    -1.570905325791
    H           -0.459065592624     2.100081760202    -0.204662385768
    H           -1.880037555145     1.077720432187    -0.052371584609
    H            1.369998867836     0.056046694450    -1.692267172719
    H            1.840874574161     1.065539785748    -0.329779766911
    H            2.028315416716    -0.675572210354    -0.234596776501
    H           -0.741492858215    -1.448296688034    -1.466143658000
    H           -1.611168865653    -1.448556385956     0.056921646255
    H           -0.008622473388    -2.157869614182    -0.032614042618

	Cleaning optimization helper files.


Properties will be evaluated at   0.000000,   0.000000,   0.000000 Bohr

Properties computed using the  density matrix

  Nuclear Dipole Moment: (a.u.)
     X:    -1.0670      Y:    -0.1219      Z:    -3.4875

  Electronic Dipole Moment: (a.u.)
     X:     0.5361      Y:     0.1609      Z:     3.1671

  Dipole Moment: (a.u.)
     X:    -0.5309      Y:     0.0390      Z:    -0.3203     Total:     0.6213

  Dipole Moment: (Debye)
     X:    -1.3494      Y:     0.0991      Z:    -0.8142     Total:     1.5791

  Quadrupole Moment: (Debye Ang)
    XX:   -32.7165     YY:   -33.6485     ZZ:   -33.6566
    XY:    -0.3057     XZ:    -2.9832     YZ:     0.2020

  Traceless Quadrupole Moment: (Debye Ang)
    XX:     0.6240     YY:    -0.3079     ZZ:    -0.3161
    XY:    -0.3057     XZ:    -2.9832     YZ:     0.2020

  Mulliken Charges: (a.u.)
   Center  Symbol    Alpha    Beta     Spin     Total
       1     H     0.39548  0.39548  0.00000  0.20904
       2     O     4.21135  4.21135  0.00000 -0.42270
       3     C     2.87839  2.87839  0.00000  0.24322
       4     C     3.15222  3.15222  0.00000 -0.30444
       5     C     3.14283  3.14283  0.00000 -0.28566
       6     C     3.14834  3.14834  0.00000 -0.29669
       7     H     0.45450  0.45450  0.00000  0.09099
       8     H     0.44590  0.44590  0.00000  0.10821
       9     H     0.45627  0.45627  0.00000  0.08746
      10     H     0.45876  0.45876  0.00000  0.08248
      11     H     0.44921  0.44921  0.00000  0.10158
      12     H     0.44766  0.44766  0.00000  0.10468
      13     H     0.45646  0.45646  0.00000  0.08707
      14     H     0.45546  0.45546  0.00000  0.08908
      15     H     0.44717  0.44717  0.00000  0.10566

   Total alpha = 21.00000, Total beta = 21.00000, Total charge = -0.00000


*** Psi4 exiting successfully. Buy a developer a beer!
