    -----------------------------------------------------------------------
          Psi4: An Open-Source Ab Initio Electronic Structure Package
                              Psi4 (no tag) Driver

                          Git: Rev {detached?}  

    J. M. Turney, A. C. Simmonett, R. M. Parrish, E. G. Hohenstein,
    F. A. Evangelista, J. T. Fermann, B. J. Mintz, L. A. Burns, J. J. Wilke,
    M. L. Abrams, N. J. Russ, M. L. Leininger, C. L. Janssen, E. T. Seidl,
    W. D. Allen, H. F. Schaefer, R. A. King, E. F. Valeev, C. D. Sherrill,
    and T. D. Crawford, WIREs Comput. Mol. Sci. 2, 556-565 (2012)
    (doi: 10.1002/wcms.93)

                         Additional Contributions by
    A. E. DePrince, M. Saitow, U. Bozkaya, A. Yu. Sokolov
    -----------------------------------------------------------------------


    Psi4 started on: Thu Sep  1 22:07:42 2016

    Process ID:   9695
    PSI4DATADIR: /export131/home/mjharvey/miniconda3/share
    Memory level set to 256.000 MB

  ==> Input File <==

--------------------------------------------------------------------------
set {
	reference rhf
	basis 6-31G*
}


set_num_threads( 1 )
memory 2 gb

molecule MOL {
0 1

O	 -0.291628	 1.323815	 -0.000732
C	 -0.449655	 0.146360	 0.000961
C	 -1.783294	 -0.549321	 -0.000296
O	 0.550821	 -0.724572	 0.000672
H	 -1.863538	 -1.185371	 -0.874187
H	 -2.574672	 0.185258	 -0.002793
H	 -1.866414	 -1.182381	 0.875436
C	 0.749680	 -1.473174	 -1.185217
H	 -0.125351	 -2.065171	 -1.411525
H	 1.595259	 -2.114235	 -0.990831
H	 0.960152	 -0.816912	 -2.017301

	symmetry c1
}
set optking {
	frozen_dihedral = ("
		2 4 8 9
	")
}

ee = energy('scf')
oeprop('DIPOLE', 'QUADRUPOLE', 'MULLIKEN_CHARGES')
f=open( 'psi4out.xyz', 'w' )
f.write( "11  " )
f.write( str(ee) + "\n" )
f.write( MOL.save_string_xyz() )
f.close()
--------------------------------------------------------------------------

  Memory set to   2.000 GiB by Python script.

*** tstart() called on cx1-3-3-3.cx1.hpc.ic.ac.uk
*** at Thu Sep  1 22:07:42 2016


         ---------------------------------------------------------
                                   SCF
            by Justin Turney, Rob Parrish, and Andy Simmonett
                              RHF Reference
                        1 Threads,   2000 MiB Core
         ---------------------------------------------------------

  ==> Geometry <==

    Molecular point group: c1
    Full point group: C1

    Geometry (in Angstrom), charge = 0, multiplicity = 1:

       Center              X                  Y                   Z               Mass       
    ------------   -----------------  -----------------  -----------------  -----------------
           O         -0.054470997529     1.596162959589     0.251458612259    15.994914619560
           C         -0.212497997529     0.418707959589     0.253151612259    12.000000000000
           C         -1.546136997529    -0.276973040411     0.251894612259    12.000000000000
           O          0.787978002471    -0.452224040411     0.252862612259    15.994914619560
           H         -1.626380997529    -0.913023040411    -0.621996387741     1.007825032070
           H         -2.337514997529     0.457605959589     0.249397612259     1.007825032070
           H         -1.629256997529    -0.910033040411     1.127626612259     1.007825032070
           C          0.986837002471    -1.200826040411    -0.933026387741    12.000000000000
           H          0.111806002471    -1.792823040411    -1.159334387741     1.007825032070
           H          1.832416002471    -1.841887040411    -0.738640387741     1.007825032070
           H          1.197309002471    -0.544564040411    -1.765110387741     1.007825032070

  Running in c1 symmetry.

  Rotational constants: A =      0.28025  B =      0.15251  C =      0.11205 [cm^-1]
  Rotational constants: A =   8401.70332  B =   4572.03302  C =   3359.30665 [MHz]
  Nuclear repulsion =  183.695681355797205

  Charge       = 0
  Multiplicity = 1
  Electrons    = 40
  Nalpha       = 20
  Nbeta        = 20

  ==> Algorithm <==

  SCF Algorithm Type is DF.
  DIIS enabled.
  MOM disabled.
  Fractional occupation disabled.
  Guess Type is CORE.
  Energy threshold   = 1.00e-06
  Density threshold  = 1.00e-06
  Integral threshold = 0.00e+00

  ==> Primary Basis <==

  Basis Set: 6-31G*
    Number of shells: 42
    Number of basis function: 87
    Number of Cartesian functions: 87
    Spherical Harmonics?: false
    Max angular momentum: 2

  ==> Pre-Iterations <==

   -------------------------------------------------------
    Irrep   Nso     Nmo     Nalpha   Nbeta   Ndocc  Nsocc
   -------------------------------------------------------
     A         87      87       0       0       0       0
   -------------------------------------------------------
    Total      87      87      20      20      20       0
   -------------------------------------------------------

 OEINTS: Overlap, kinetic, potential, dipole, and quadrupole integrals
         stored in file 35.

  ==> Integral Setup <==

  ==> DFJK: Density-Fitted J/K Matrices <==

    J tasked:                  Yes
    K tasked:                  Yes
    wK tasked:                  No
    OpenMP threads:              1
    Integrals threads:           1
    Memory (MB):              1430
    Algorithm:                Core
    Integral Cache:           NONE
    Schwarz Cutoff:          1E-12
    Fitting Condition:       1E-12

   => Auxiliary Basis Set <=

  Basis Set: 
    Number of shells: 174
    Number of basis function: 555
    Number of Cartesian functions: 555
    Spherical Harmonics?: false
    Max angular momentum: 3

  Minimum eigenvalue in the overlap matrix is 4.0997801627E-03.
  Using Symmetric Orthogonalization.
  SCF Guess: Core (One-Electron) Hamiltonian.

  ==> Iterations <==

                           Total Energy        Delta E     RMS |[F,P]|

   @DF-RHF iter   1:  -212.58880026892916   -2.12589e+02   8.89970e-02 
   @DF-RHF iter   2:  -205.62090952697082    6.96789e+00   6.24379e-02 DIIS
   @DF-RHF iter   3:  -229.06047690529454   -2.34396e+01   7.22674e-02 DIIS
   @DF-RHF iter   4:  -258.72003161862153   -2.96596e+01   4.20018e-02 DIIS
   @DF-RHF iter   5:  -264.16301548722339   -5.44298e+00   2.31652e-02 DIIS
   @DF-RHF iter   6:  -266.19268041046786   -2.02966e+00   1.12201e-02 DIIS
   @DF-RHF iter   7:  -266.71242024576344   -5.19740e-01   4.26366e-03 DIIS
   @DF-RHF iter   8:  -266.80366523358680   -9.12450e-02   1.16367e-03 DIIS
   @DF-RHF iter   9:  -266.81037275671383   -6.70752e-03   5.77060e-04 DIIS
   @DF-RHF iter  10:  -266.81203450087241   -1.66174e-03   1.82958e-04 DIIS
   @DF-RHF iter  11:  -266.81224075328532   -2.06252e-04   6.21739e-05 DIIS
   @DF-RHF iter  12:  -266.81228024117405   -3.94879e-05   2.66666e-05 DIIS
   @DF-RHF iter  13:  -266.81228550942973   -5.26826e-06   7.51989e-06 DIIS
   @DF-RHF iter  14:  -266.81228610960846   -6.00179e-07   2.23695e-06 DIIS
   @DF-RHF iter  15:  -266.81228616111093   -5.15025e-08   5.30596e-07 DIIS

  ==> Post-Iterations <==

    Orbital Energies (a.u.)
    -----------------------

    Doubly Occupied:                                                      

       1A    -20.592371     2A    -20.555680     3A    -11.378233  
       4A    -11.298972     5A    -11.237032     6A     -1.466485  
       7A     -1.370723     8A     -1.025231     9A     -0.977698  
      10A     -0.783441    11A     -0.694686    12A     -0.688805  
      13A     -0.675701    14A     -0.620264    15A     -0.586961  
      16A     -0.576542    17A     -0.549932    18A     -0.490450  
      19A     -0.463979    20A     -0.440427  

    Virtual:                                                              

      21A      0.175747    22A      0.221173    23A      0.273050  
      24A      0.289694    25A      0.299513    26A      0.308191  
      27A      0.340069    28A      0.367439    29A      0.405313  
      30A      0.505294    31A      0.555851    32A      0.696105  
      33A      0.738207    34A      0.750319    35A      0.775227  
      36A      0.803942    37A      0.831393    38A      0.867808  
      39A      0.918189    40A      0.967418    41A      1.021956  
      42A      1.104499    43A      1.115059    44A      1.126066  
      45A      1.153367    46A      1.166896    47A      1.197042  
      48A      1.236810    49A      1.261956    50A      1.277520  
      51A      1.353076    52A      1.384948    53A      1.394934  
      54A      1.442058    55A      1.597777    56A      1.671703  
      57A      1.685395    58A      1.782429    59A      1.843648  
      60A      1.957076    61A      2.028003    62A      2.071377  
      63A      2.121092    64A      2.144944    65A      2.195666  
      66A      2.235774    67A      2.331380    68A      2.379619  
      69A      2.399819    70A      2.469395    71A      2.504683  
      72A      2.580622    73A      2.638662    74A      2.691383  
      75A      2.726164    76A      2.793370    77A      3.006008  
      78A      3.132237    79A      3.237844    80A      3.252952  
      81A      3.366869    82A      3.496540    83A      4.358801  
      84A      4.527593    85A      4.625597    86A      4.664597  
      87A      4.900931  

    Final Occupation by Irrep:
              A 
    DOCC [    20 ]

  Energy converged.

  @DF-RHF Final Energy:  -266.81228616111093

   => Energetics <=

    Nuclear Repulsion Energy =            183.6956813557972055
    One-Electron Energy =                -728.0686810935458197
    Two-Electron Energy =                 277.5607135766376814
    DFT Exchange-Correlation Energy =       0.0000000000000000
    Empirical Dispersion Energy =           0.0000000000000000
    PCM Polarization Energy =               0.0000000000000000
    EFP Energy =                            0.0000000000000000
    Total Energy =                       -266.8122861611109329

    Alert: EFP and PCM quantities not currently incorporated into SCF psivars.

Properties will be evaluated at   0.000000,   0.000000,   0.000000 Bohr
  ==> Properties <==


Properties computed using the SCF density matrix

  Nuclear Dipole Moment: (a.u.)
     X:    -2.2948      Y:    -5.1925      Z:    -2.7238

  Electronic Dipole Moment: (a.u.)
     X:     1.8771      Y:     3.8089      Z:     2.0963

  Dipole Moment: (a.u.)
     X:    -0.4177      Y:    -1.3837      Z:    -0.6275     Total:     1.5757

  Dipole Moment: (Debye)
     X:    -1.0616      Y:    -3.5169      Z:    -1.5950     Total:     4.0050


  Saving occupied orbitals to File 180.

*** tstop() called on cx1-3-3-3.cx1.hpc.ic.ac.uk at Thu Sep  1 22:07:46 2016
Module time:
	user time   =       3.66 seconds =       0.06 minutes
	system time =       0.04 seconds =       0.00 minutes
	total time  =          4 seconds =       0.07 minutes
Total time:
	user time   =       3.66 seconds =       0.06 minutes
	system time =       0.04 seconds =       0.00 minutes
	total time  =          4 seconds =       0.07 minutes


Properties will be evaluated at   0.000000,   0.000000,   0.000000 Bohr

Properties computed using the  density matrix

  Nuclear Dipole Moment: (a.u.)
     X:    -2.2948      Y:    -5.1925      Z:    -2.7238

  Electronic Dipole Moment: (a.u.)
     X:     1.8771      Y:     3.8089      Z:     2.0963

  Dipole Moment: (a.u.)
     X:    -0.4177      Y:    -1.3837      Z:    -0.6275     Total:     1.5757

  Dipole Moment: (Debye)
     X:    -1.0616      Y:    -3.5169      Z:    -1.5950     Total:     4.0050

  Quadrupole Moment: (Debye Ang)
    XX:   -28.6250     YY:   -33.7152     ZZ:   -28.2061
    XY:    -1.0366     XZ:    -2.1793     YZ:     0.9261

  Traceless Quadrupole Moment: (Debye Ang)
    XX:     1.5571     YY:    -3.5331     ZZ:     1.9760
    XY:    -1.0366     XZ:    -2.1793     YZ:     0.9261

  Mulliken Charges: (a.u.)
   Center  Symbol    Alpha    Beta     Spin     Total
       1     O     4.25347  4.25347  0.00000 -0.50694
       2     C     2.62969  2.62969  0.00000  0.74063
       3     C     3.29328  3.29328  0.00000 -0.58655
       4     O     4.29953  4.29953  0.00000 -0.59907
       5     H     0.40753  0.40753  0.00000  0.18494
       6     H     0.39583  0.39583  0.00000  0.20835
       7     H     0.39787  0.39787  0.00000  0.20426
       8     C     3.09516  3.09516  0.00000 -0.19032
       9     H     0.41976  0.41976  0.00000  0.16049
      10     H     0.39872  0.39872  0.00000  0.20256
      11     H     0.40917  0.40917  0.00000  0.18166

   Total alpha = 20.00000, Total beta = 20.00000, Total charge = -0.00000


*** PSI4 exiting successfully. Buy a developer a beer!
