    -----------------------------------------------------------------------
          Psi4: An Open-Source Ab Initio Electronic Structure Package
                              Psi4 (no tag) Driver

                          Git: Rev {detached?}  

    J. M. Turney, A. C. Simmonett, R. M. Parrish, E. G. Hohenstein,
    F. A. Evangelista, J. T. Fermann, B. J. Mintz, L. A. Burns, J. J. Wilke,
    M. L. Abrams, N. J. Russ, M. L. Leininger, C. L. Janssen, E. T. Seidl,
    W. D. Allen, H. F. Schaefer, R. A. King, E. F. Valeev, C. D. Sherrill,
    and T. D. Crawford, WIREs Comput. Mol. Sci. 2, 556-565 (2012)
    (doi: 10.1002/wcms.93)

                         Additional Contributions by
    A. E. DePrince, M. Saitow, U. Bozkaya, A. Yu. Sokolov
    -----------------------------------------------------------------------


    Psi4 started on: Fri Sep  2 12:00:57 2016

    Process ID:  26235
    PSI4DATADIR: /export131/home/mjharvey/miniconda3/share
    Memory level set to 256.000 MB

  ==> Input File <==

--------------------------------------------------------------------------
set {
	reference rhf
	basis 6-31G*
}


set_num_threads( 4 )
memory 2 gb

molecule MOL {
0 1

H	 2.447127	 -0.673024	 -0.180829
C	 1.730410	 0.131367	 -0.217240
O	 0.464886	 -0.454746	 -0.000158
H	 1.777033	 0.608745	 -1.188817
H	 1.963077	 0.853526	 0.556332
C	 -0.590998	 0.343045	 0.000118
O	 -1.699443	 -0.054298	 0.000227
H	 -0.340329	 1.404368	 0.000207

	symmetry c1
}
set optking {
	frozen_dihedral = ("
		2 3 6 7
	")
}

ee = optimize('scf')
oeprop('DIPOLE', 'QUADRUPOLE', 'MULLIKEN_CHARGES')
f=open( 'psi4out.xyz', 'w' )
f.write( "8  " )
f.write( str(ee) + "\n" )
f.write( MOL.save_string_xyz() )
f.close()
--------------------------------------------------------------------------

  Memory set to   2.000 GiB by Python script.
gradient() will perform analytic gradient computation.

*** tstart() called on cx1-5-5-2.cx1.hpc.ic.ac.uk
*** at Fri Sep  2 12:00:57 2016


         ---------------------------------------------------------
                                   SCF
            by Justin Turney, Rob Parrish, and Andy Simmonett
                              RHF Reference
                        4 Threads,   2000 MiB Core
         ---------------------------------------------------------

  ==> Geometry <==

    Molecular point group: c1
    Full point group: C1

    Geometry (in Angstrom), charge = 0, multiplicity = 1:

       Center              X                  Y                   Z               Mass       
    ------------   -----------------  -----------------  -----------------  -----------------
           H          2.450143097286    -0.669052211858    -0.123785255983     1.007825032070
           C          1.733426097286     0.135338788142    -0.160196255983    12.000000000000
           O          0.467902097286    -0.450774211858     0.056885744017    15.994914619560
           H          1.780049097286     0.612716788142    -1.131773255983     1.007825032070
           H          1.966093097286     0.857497788142     0.613375744017     1.007825032070
           C         -0.587981902714     0.347016788142     0.057161744017    12.000000000000
           O         -1.696426902714    -0.050326211858     0.057270744017    15.994914619560
           H         -0.337312902714     1.408339788142     0.057250744017     1.007825032070

  Running in c1 symmetry.

  Rotational constants: A =      1.63672  B =      0.16040  C =      0.15063 [cm^-1]
  Rotational constants: A =  49067.57402  B =   4808.57440  C =   4515.66231 [MHz]
  Nuclear repulsion =  121.212136419772150

  Charge       = 0
  Multiplicity = 1
  Electrons    = 32
  Nalpha       = 16
  Nbeta        = 16

  ==> Algorithm <==

  SCF Algorithm Type is DF.
  DIIS enabled.
  MOM disabled.
  Fractional occupation disabled.
  Guess Type is CORE.
  Energy threshold   = 1.00e-08
  Density threshold  = 1.00e-08
  Integral threshold = 0.00e+00

  ==> Primary Basis <==

  Basis Set: 6-31G*
    Number of shells: 32
    Number of basis function: 68
    Number of Cartesian functions: 68
    Spherical Harmonics?: false
    Max angular momentum: 2

  ==> Pre-Iterations <==

   -------------------------------------------------------
    Irrep   Nso     Nmo     Nalpha   Nbeta   Ndocc  Nsocc
   -------------------------------------------------------
     A         68      68       0       0       0       0
   -------------------------------------------------------
    Total      68      68      16      16      16       0
   -------------------------------------------------------

 OEINTS: Overlap, kinetic, potential, dipole, and quadrupole integrals
         stored in file 35.

  ==> Integral Setup <==

  ==> DFJK: Density-Fitted J/K Matrices <==

    J tasked:                  Yes
    K tasked:                  Yes
    wK tasked:                  No
    OpenMP threads:              4
    Integrals threads:           4
    Memory (MB):              1430
    Algorithm:                Core
    Integral Cache:           NONE
    Schwarz Cutoff:          1E-12
    Fitting Condition:       1E-12

   => Auxiliary Basis Set <=

  Basis Set: 
    Number of shells: 132
    Number of basis function: 424
    Number of Cartesian functions: 424
    Spherical Harmonics?: false
    Max angular momentum: 3

  Minimum eigenvalue in the overlap matrix is 4.9053639715E-03.
  Using Symmetric Orthogonalization.
  SCF Guess: Core (One-Electron) Hamiltonian.

  ==> Iterations <==

                           Total Energy        Delta E     RMS |[F,P]|

   @DF-RHF iter   1:  -187.13666182464942   -1.87137e+02   9.61392e-02 
   @DF-RHF iter   2:  -146.18619156320688    4.09505e+01   8.73374e-02 DIIS
   @DF-RHF iter   3:  -210.16444955097217   -6.39783e+01   5.56282e-02 DIIS
   @DF-RHF iter   4:  -227.39557734793186   -1.72311e+01   1.37197e-02 DIIS
   @DF-RHF iter   5:  -227.60570690357974   -2.10130e-01   9.52016e-03 DIIS
   @DF-RHF iter   6:  -227.76876551782664   -1.63059e-01   1.78092e-03 DIIS
   @DF-RHF iter   7:  -227.77622720550266   -7.46169e-03   9.69698e-04 DIIS
   @DF-RHF iter   8:  -227.77829309838148   -2.06589e-03   4.03195e-04 DIIS
   @DF-RHF iter   9:  -227.77870337093952   -4.10273e-04   1.67698e-04 DIIS
   @DF-RHF iter  10:  -227.77879128115251   -8.79102e-05   3.88938e-05 DIIS
   @DF-RHF iter  11:  -227.77879711867035   -5.83752e-06   8.35677e-06 DIIS
   @DF-RHF iter  12:  -227.77879750520202   -3.86532e-07   3.11809e-06 DIIS
   @DF-RHF iter  13:  -227.77879755228770   -4.70857e-08   7.95141e-07 DIIS
   @DF-RHF iter  14:  -227.77879755703509   -4.74739e-09   2.08304e-07 DIIS
   @DF-RHF iter  15:  -227.77879755740491   -3.69823e-10   6.33864e-08 DIIS
   @DF-RHF iter  16:  -227.77879755743686   -3.19460e-11   1.71238e-08 DIIS
   @DF-RHF iter  17:  -227.77879755743913   -2.27374e-12   6.30699e-09 DIIS

  ==> Post-Iterations <==

    Orbital Energies (a.u.)
    -----------------------

    Doubly Occupied:                                                      

       1A    -20.616393     2A    -20.558074     3A    -11.382144  
       4A    -11.304690     5A     -1.476856     6A     -1.382741  
       7A     -0.993689     8A     -0.848959     9A     -0.738421  
      10A     -0.686430    11A     -0.681235    12A     -0.606489  
      13A     -0.570919    14A     -0.540226    15A     -0.461173  
      16A     -0.453758  

    Virtual:                                                              

      17A      0.181550    18A      0.230678    19A      0.278433  
      20A      0.300892    21A      0.301770    22A      0.317256  
      23A      0.449917    24A      0.519582    25A      0.692382  
      26A      0.735045    27A      0.747579    28A      0.777024  
      29A      0.827599    30A      0.951474    31A      0.993616  
      32A      1.086537    33A      1.104075    34A      1.114405  
      35A      1.125362    36A      1.192769    37A      1.205864  
      38A      1.278227    39A      1.306706    40A      1.341423  
      41A      1.410555    42A      1.497540    43A      1.649684  
      44A      1.704080    45A      1.740986    46A      1.852631  
      47A      1.867012    48A      1.961746    49A      2.098155  
      50A      2.148287    51A      2.218208    52A      2.319947  
      53A      2.363772    54A      2.437411    55A      2.509519  
      56A      2.549166    57A      2.591084    58A      2.808444  
      59A      2.926348    60A      2.987244    61A      3.018930  
      62A      3.189025    63A      3.356995    64A      3.503984  
      65A      4.270143    66A      4.365105    67A      4.658515  
      68A      4.678977  

    Final Occupation by Irrep:
              A 
    DOCC [    16 ]

  Energy converged.

  @DF-RHF Final Energy:  -227.77879755743913

   => Energetics <=

    Nuclear Repulsion Energy =            121.2121364197721505
    One-Electron Energy =                -551.3774734364581036
    Two-Electron Energy =                 202.3865394592467908
    DFT Exchange-Correlation Energy =       0.0000000000000000
    Empirical Dispersion Energy =           0.0000000000000000
    PCM Polarization Energy =               0.0000000000000000
    EFP Energy =                            0.0000000000000000
    Total Energy =                       -227.7787975574391623

    Alert: EFP and PCM quantities not currently incorporated into SCF psivars.

Properties will be evaluated at   0.000000,   0.000000,   0.000000 Bohr
  ==> Properties <==


Properties computed using the SCF density matrix

  Nuclear Dipole Moment: (a.u.)
     X:     5.4867      Y:     2.0689      Z:    -0.5478

  Electronic Dipole Moment: (a.u.)
     X:    -3.9210      Y:    -1.1956      Z:     0.4251

  Dipole Moment: (a.u.)
     X:     1.5657      Y:     0.8733      Z:    -0.1227     Total:     1.7970

  Dipole Moment: (Debye)
     X:     3.9795      Y:     2.2198      Z:    -0.3120     Total:     4.5674


  Saving occupied orbitals to File 180.

*** tstop() called on cx1-5-5-2.cx1.hpc.ic.ac.uk at Fri Sep  2 12:00:59 2016
Module time:
	user time   =       4.34 seconds =       0.07 minutes
	system time =       0.08 seconds =       0.00 minutes
	total time  =          2 seconds =       0.03 minutes
Total time:
	user time   =       4.34 seconds =       0.07 minutes
	system time =       0.08 seconds =       0.00 minutes
	total time  =          2 seconds =       0.03 minutes

*** tstart() called on cx1-5-5-2.cx1.hpc.ic.ac.uk
*** at Fri Sep  2 12:00:59 2016


         ------------------------------------------------------------
                                   SCF GRAD                          
                          Rob Parrish, Justin Turney,                
                       Andy Simmonett, and Alex Sokolov              
         ------------------------------------------------------------

  ==> Geometry <==

    Molecular point group: c1
    Full point group: C1

    Geometry (in Angstrom), charge = 0, multiplicity = 1:

       Center              X                  Y                   Z               Mass       
    ------------   -----------------  -----------------  -----------------  -----------------
           H          2.450143097286    -0.669052211858    -0.123785255983     1.007825032070
           C          1.733426097286     0.135338788142    -0.160196255983    12.000000000000
           O          0.467902097286    -0.450774211858     0.056885744017    15.994914619560
           H          1.780049097286     0.612716788142    -1.131773255983     1.007825032070
           H          1.966093097286     0.857497788142     0.613375744017     1.007825032070
           C         -0.587981902714     0.347016788142     0.057161744017    12.000000000000
           O         -1.696426902714    -0.050326211858     0.057270744017    15.994914619560
           H         -0.337312902714     1.408339788142     0.057250744017     1.007825032070

  Nuclear repulsion =  121.212136419772150

  ==> Basis Set <==

  Basis Set: 6-31G*
    Number of shells: 32
    Number of basis function: 68
    Number of Cartesian functions: 68
    Spherical Harmonics?: false
    Max angular momentum: 2

  ==> DFJKGrad: Density-Fitted SCF Gradients <==

    Gradient:                    1
    J tasked:                  Yes
    K tasked:                  Yes
    wK tasked:                  No
    OpenMP threads:              4
    Integrals threads:           4
    Memory (MB):              1430
    Schwarz Cutoff:          0E+00
    Fitting Condition:       1E-12

   => Auxiliary Basis Set <=

  Basis Set: 
    Number of shells: 132
    Number of basis function: 424
    Number of Cartesian functions: 424
    Spherical Harmonics?: false
    Max angular momentum: 3


  -Total Gradient:
     Atom            X                  Y                   Z
    ------   -----------------  -----------------  -----------------
       1       -0.000017541797    -0.000029679786    -0.000094367751
       2       -0.000094794433    -0.000153513797    -0.001382800539
       3       -0.000116624549     0.000628695867     0.001864486286
       4        0.000106791220     0.000188944032    -0.000120968349
       5       -0.000087465430    -0.000277809710    -0.000069344785
       6        0.000190574705    -0.000205828485     0.001252833247
       7        0.000050666756    -0.000105665647    -0.001621088534
       8       -0.000031606476    -0.000045142474     0.000171250424


*** tstop() called on cx1-5-5-2.cx1.hpc.ic.ac.uk at Fri Sep  2 12:01:01 2016
Module time:
	user time   =       6.41 seconds =       0.11 minutes
	system time =       0.15 seconds =       0.00 minutes
	total time  =          2 seconds =       0.03 minutes
Total time:
	user time   =      10.79 seconds =       0.18 minutes
	system time =       0.24 seconds =       0.00 minutes
	total time  =          4 seconds =       0.07 minutes
CURRENT ENERGY: -227.7787975574

			-----------------------------------------
			 OPTKING 2.0: for geometry optimizations 
			  - R.A. King,  Bethel University        
			-----------------------------------------

	Internal coordinates to be generated automatically.
	Detected frag with atoms:  1 2 3 4 5 6 7 8
	---Fragment 1 Bond Connectivity---
	 1 : 2
	 2 : 1 3 4 5
	 3 : 2 6
	 4 : 2
	 5 : 2
	 6 : 3 7 8
	 7 : 6
	 8 : 6

	Assuming in current code that numbering for constraints corresponds to unified fragment.
	Frozen dihedral atom list: 
	     2     3     6     7
	---Fragment 1 Geometry and Gradient---
	 H           4.6300994403       -1.2643254490       -0.2339202331
	 C           3.2757005955        0.2557532447       -0.3027270513
	 O           0.8842068209       -0.8518398082        0.1074984771
	 H           3.3638052970        1.1578669266       -2.1387414983
	 H           3.7153775056        1.6204359791        1.1591121727
	 C          -1.1111247672        0.6557666931        0.1080200415
	 O          -3.2057822506       -0.0951027577        0.1082260216
	 H          -0.6374290072        2.6613765016        0.1081882271
	            -0.0000175418       -0.0000296798       -0.0000943678
	            -0.0000947944       -0.0001535138       -0.0013828005
	            -0.0001166245        0.0006286959        0.0018644863
	             0.0001067912        0.0001889440       -0.0001209683
	            -0.0000874654       -0.0002778097       -0.0000693448
	             0.0001905747       -0.0002058285        0.0012528332
	             0.0000506668       -0.0001056656       -0.0016210885
	            -0.0000316065       -0.0000451425        0.0001712504

	Previous optimization step data not found.  Starting new optimization.

	---Fragment 1 Intrafragment Coordinates---
	 - Coordinate -           - BOHR/RAD -       - ANG/DEG -
	 R(1,2)           =         2.037098	       1.077986
	 R(2,3)           =         2.667263	       1.411455
	 R(2,4)           =         2.047565	       1.083525
	 R(2,5)           =         2.047596	       1.083541
	 R(3,6)           =         2.500845	       1.323390
	 R(6,7)           =         2.225173	       1.177511
	 R(6,8)           =         2.060791	       1.090524
	 B(1,2,3)         =         1.855704	     106.324013
	 B(1,2,4)         =         1.907564	     109.295339
	 B(1,2,5)         =         1.907573	     109.295870
	 B(2,3,6)         =         2.054513	     117.714896
	 B(3,2,4)         =         1.938467	     111.065964
	 B(3,2,5)         =         1.938511	     111.068519
	 B(3,6,7)         =         2.150339	     123.205338
	 B(3,6,8)         =         1.985916	     113.784589
	 B(4,2,5)         =         1.914834	     109.711917
	 B(7,6,8)         =         2.146931	     123.010072
	 D(1,2,3,6)       =        -3.141265	    -179.981247
	*D(2,3,6,7)       =         2.967060	     170.000015
	 D(2,3,6,8)       =        -0.174504	      -9.998346
	 D(4,2,3,6)       =        -1.067774	     -61.178930
	 D(5,2,3,6)       =         1.068393	      61.214402

	Current energy   :      -227.7787975574

	Generating empirical Hessian (Schlegel '84) for each fragment.
	Taking RFO optimization step.
	Going to follow RFO solution 1.
	Using RFO vector 1.
	Norm of target step-size    0.09899
	Projected energy change by RFO approximation:        -0.0000361873

	Back-transformation to cartesian coordinates...
	Successfully converged to displaced geometry.

	Back-transformation to cartesian coordinates to adjust frozen coordinates...
	Successfully converged to displaced geometry.

	--- Internal Coordinate Step in ANG or DEG, aJ/ANG or AJ/DEG ---
	 ---------------------------------------------------------------------------
	   Coordinate                Previous        Force       Change         New 
	   ----------                --------       ------       ------       ------
	    1 R(1,2)          =      1.077986    -0.000060    -0.000011     1.077975
	    2 R(2,3)          =      1.411455    -0.000495    -0.000073     1.411382
	    3 R(2,4)          =      1.083525    -0.001617    -0.000292     1.083233
	    4 R(2,5)          =      1.083541     0.002088     0.000377     1.083918
	    5 R(3,6)          =      1.323390     0.003150     0.000331     1.323721
	    6 R(6,7)          =      1.177511     0.000100     0.000006     1.177516
	    7 R(6,8)          =      1.090524     0.000422     0.000078     1.090601
	    8 B(1,2,3)        =    106.324013     0.000004     0.020985   106.344998
	    9 B(1,2,4)        =    109.295339     0.000004     0.009473   109.304813
	   10 B(1,2,5)        =    109.295870    -0.000001     0.008822   109.304692
	   11 B(2,3,6)        =    117.714896    -0.000022    -0.064910   117.649986
	   12 B(3,2,4)        =    111.065964    -0.000019    -0.097526   110.968438
	   13 B(3,2,5)        =    111.068519     0.000014     0.070485   111.139004
	   14 B(3,6,7)        =    123.205338     0.000014     0.044815   123.250153
	   15 B(3,6,8)        =    113.784589    -0.000009    -0.035916   113.748674
	   16 B(4,2,5)        =    109.711917    -0.000001    -0.010592   109.701325
	   17 B(7,6,8)        =    123.010072    -0.000006    -0.020853   122.989220
	   18 D(1,2,3,6)      =   -179.981247    -0.000002    -3.165709  -183.146956
	   19 *D(2,3,6,7)     =    170.000015    -0.000000     0.000000   170.000015
	   20 D(2,3,6,8)      =     -9.998346     0.000006     1.223473    -8.774873
	   21 D(4,2,3,6)      =    -61.178930    -0.000003    -3.194944   -64.373874
	   22 D(5,2,3,6)      =     61.214402    -0.000004    -3.227514    57.986888
	 ---------------------------------------------------------------------------

  ==> Convergence Check <==

  Measures of convergence in internal coordinates in au.
  Criteria marked as inactive (o), active & met (*), and active & unmet ( ).
  --------------------------------------------------------------------------------------------- ~
   Step     Total Energy     Delta E     MAX Force     RMS Force      MAX Disp      RMS Disp    ~
  --------------------------------------------------------------------------------------------- ~
    Convergence Criteria    1.00e-06 *    3.00e-04 *             o    1.20e-03 *             o  ~
  --------------------------------------------------------------------------------------------- ~
      1    -227.77879756   -2.28e+02      3.82e-04      1.80e-04 o    5.63e-02      2.11e-02 o  ~
  ---------------------------------------------------------------------------------------------

	Writing optimization data to binary file.
	Structure for next step:
	Cartesian Geometry (in Angstrom)
	    H     2.4526416040  -0.6648040905  -0.1053890377
	    C     1.7323772421   0.1349326680  -0.1659817209
	    O     0.4658770811  -0.4552405470   0.0331971531
	    H     1.7943204181   0.5994262385  -1.1426093767
	    H     1.9466601491   0.8691185172   0.6020889082
	    C    -0.5870252371   0.3463468978   0.0662516070
	    O    -1.6973776196  -0.0454921613   0.0550836135
	    H    -0.3315814183   1.4064699499   0.0835487618
			--------------------------
			 OPTKING Finished Execution 
			--------------------------

    Structure for next step:
    Molecular point group: c1
    Full point group: C1

    Geometry (in Angstrom), charge = 0, multiplicity = 1:

    H            2.453401323984    -0.664698801109    -0.099533104334
    C            1.733137017119     0.135037896335    -0.160125782884
    O            0.466636952813    -0.455135273600     0.039053075866
    H            1.795080188381     0.599531431362    -1.136753364100
    H            1.947419907711     0.869223689493     0.607944787493
    C           -0.586265285010     0.346452109975     0.072107527246
    O           -1.696617582671    -0.045386919151     0.060939534610
    H           -0.330821485666     1.406575081169     0.089404680761

gradient() will perform analytic gradient computation.

*** tstart() called on cx1-5-5-2.cx1.hpc.ic.ac.uk
*** at Fri Sep  2 12:01:01 2016


         ---------------------------------------------------------
                                   SCF
            by Justin Turney, Rob Parrish, and Andy Simmonett
                              RHF Reference
                        4 Threads,   2000 MiB Core
         ---------------------------------------------------------

  ==> Geometry <==

    Molecular point group: c1
    Full point group: C1

    Geometry (in Angstrom), charge = 0, multiplicity = 1:

       Center              X                  Y                   Z               Mass       
    ------------   -----------------  -----------------  -----------------  -----------------
           H          2.453401323984    -0.664698801109    -0.099533104334     1.007825032070
           C          1.733137017119     0.135037896335    -0.160125782884    12.000000000000
           O          0.466636952813    -0.455135273600     0.039053075866    15.994914619560
           H          1.795080188381     0.599531431362    -1.136753364100     1.007825032070
           H          1.947419907711     0.869223689493     0.607944787493     1.007825032070
           C         -0.586265285010     0.346452109975     0.072107527246    12.000000000000
           O         -1.696617582671    -0.045386919151     0.060939534610    15.994914619560
           H         -0.330821485666     1.406575081169     0.089404680761     1.007825032070

  Running in c1 symmetry.

  Rotational constants: A =      1.63583  B =      0.16042  C =      0.15062 [cm^-1]
  Rotational constants: A =  49040.91489  B =   4809.24481  C =   4515.51200 [MHz]
  Nuclear repulsion =  121.209564549859991

  Charge       = 0
  Multiplicity = 1
  Electrons    = 32
  Nalpha       = 16
  Nbeta        = 16

  ==> Algorithm <==

  SCF Algorithm Type is DF.
  DIIS enabled.
  MOM disabled.
  Fractional occupation disabled.
  Guess Type is READ.
  Energy threshold   = 1.00e-08
  Density threshold  = 1.00e-08
  Integral threshold = 0.00e+00

  ==> Primary Basis <==

  Basis Set: 6-31G*
    Number of shells: 32
    Number of basis function: 68
    Number of Cartesian functions: 68
    Spherical Harmonics?: false
    Max angular momentum: 2

  ==> Pre-Iterations <==

   -------------------------------------------------------
    Irrep   Nso     Nmo     Nalpha   Nbeta   Ndocc  Nsocc
   -------------------------------------------------------
     A         68      68       0       0       0       0
   -------------------------------------------------------
    Total      68      68      16      16      16       0
   -------------------------------------------------------

 OEINTS: Overlap, kinetic, potential, dipole, and quadrupole integrals
         stored in file 35.

  ==> Integral Setup <==

  ==> DFJK: Density-Fitted J/K Matrices <==

    J tasked:                  Yes
    K tasked:                  Yes
    wK tasked:                  No
    OpenMP threads:              4
    Integrals threads:           4
    Memory (MB):              1430
    Algorithm:                Core
    Integral Cache:           NONE
    Schwarz Cutoff:          1E-12
    Fitting Condition:       1E-12

   => Auxiliary Basis Set <=

  Basis Set: 
    Number of shells: 132
    Number of basis function: 424
    Number of Cartesian functions: 424
    Spherical Harmonics?: false
    Max angular momentum: 3

  Minimum eigenvalue in the overlap matrix is 4.9164471487E-03.
  Using Symmetric Orthogonalization.
  SCF Guess: Reading in previously saved MOs, projecting if necessary.

  Using orbitals from previous SCF, no projection.
  Recomputing DOCC and SOCC from number of alpha and beta electrons from previous calculation.
              A 
    DOCC [    16 ]

  ==> Iterations <==

                           Total Energy        Delta E     RMS |[F,P]|

   @DF-RHF iter   0:  -227.77774268218633   -2.27778e+02   7.35151e-04 
   @DF-RHF iter   1:  -227.77872007393933   -9.77392e-04   1.16181e-04 
   @DF-RHF iter   2:  -227.77878755085288   -6.74769e-05   4.40687e-05 DIIS
   @DF-RHF iter   3:  -227.77880262268042   -1.50718e-05   1.19413e-05 DIIS
   @DF-RHF iter   4:  -227.77880401176293   -1.38908e-06   7.25269e-06 DIIS
   @DF-RHF iter   5:  -227.77880452879259   -5.17030e-07   2.83947e-06 DIIS
   @DF-RHF iter   6:  -227.77880460748764   -7.86951e-08   8.53479e-07 DIIS
   @DF-RHF iter   7:  -227.77880461254369   -5.05605e-09   2.65101e-07 DIIS
   @DF-RHF iter   8:  -227.77880461293250   -3.88809e-10   1.21986e-07 DIIS
   @DF-RHF iter   9:  -227.77880461301436   -8.18545e-11   3.27301e-08 DIIS
   @DF-RHF iter  10:  -227.77880461302271   -8.35598e-12   6.89089e-09 DIIS

  ==> Post-Iterations <==

    Orbital Energies (a.u.)
    -----------------------

    Doubly Occupied:                                                      

       1A    -20.616535     2A    -20.558134     3A    -11.382224  
       4A    -11.304694     5A     -1.476819     6A     -1.382838  
       7A     -0.993609     8A     -0.849120     9A     -0.738316  
      10A     -0.686450    11A     -0.681263    12A     -0.606282  
      13A     -0.570989    14A     -0.540570    15A     -0.461217  
      16A     -0.453737  

    Virtual:                                                              

      17A      0.181673    18A      0.230569    19A      0.278561  
      20A      0.300270    21A      0.301676    22A      0.317903  
      23A      0.450276    24A      0.519717    25A      0.691406  
      26A      0.735219    27A      0.746861    28A      0.777636  
      29A      0.827970    30A      0.951237    31A      0.993543  
      32A      1.085811    33A      1.104647    34A      1.114817  
      35A      1.124918    36A      1.192729    37A      1.205643  
      38A      1.277791    39A      1.306304    40A      1.341714  
      41A      1.411988    42A      1.497398    43A      1.649632  
      44A      1.701231    45A      1.742752    46A      1.854990  
      47A      1.862476    48A      1.962538    49A      2.098045  
      50A      2.147499    51A      2.218416    52A      2.321650  
      53A      2.364025    54A      2.438564    55A      2.503604  
      56A      2.548598    57A      2.595188    58A      2.807988  
      59A      2.925915    60A      2.987120    61A      3.019261  
      62A      3.188885    63A      3.356863    64A      3.503725  
      65A      4.270136    66A      4.364912    67A      4.658039  
      68A      4.678362  

    Final Occupation by Irrep:
              A 
    DOCC [    16 ]

  Energy converged.

  @DF-RHF Final Energy:  -227.77880461302271

   => Energetics <=

    Nuclear Repulsion Energy =            121.2095645498599907
    One-Electron Energy =                -551.3711478209337429
    Two-Electron Energy =                 202.3827786580510519
    DFT Exchange-Correlation Energy =       0.0000000000000000
    Empirical Dispersion Energy =           0.0000000000000000
    PCM Polarization Energy =               0.0000000000000000
    EFP Energy =                            0.0000000000000000
    Total Energy =                       -227.7788046130227144

    Alert: EFP and PCM quantities not currently incorporated into SCF psivars.

Properties will be evaluated at   0.000000,   0.000000,   0.000000 Bohr
  ==> Properties <==


Properties computed using the SCF density matrix

  Nuclear Dipole Moment: (a.u.)
     X:     5.4924      Y:     2.0700      Z:    -0.5048

  Electronic Dipole Moment: (a.u.)
     X:    -3.9240      Y:    -1.1987      Z:     0.4099

  Dipole Moment: (a.u.)
     X:     1.5684      Y:     0.8712      Z:    -0.0948     Total:     1.7967

  Dipole Moment: (Debye)
     X:     3.9865      Y:     2.2145      Z:    -0.2410     Total:     4.5666


  Saving occupied orbitals to File 180.

*** tstop() called on cx1-5-5-2.cx1.hpc.ic.ac.uk at Fri Sep  2 12:01:04 2016
Module time:
	user time   =       5.38 seconds =       0.09 minutes
	system time =       0.10 seconds =       0.00 minutes
	total time  =          3 seconds =       0.05 minutes
Total time:
	user time   =      17.16 seconds =       0.29 minutes
	system time =       0.37 seconds =       0.01 minutes
	total time  =          7 seconds =       0.12 minutes

*** tstart() called on cx1-5-5-2.cx1.hpc.ic.ac.uk
*** at Fri Sep  2 12:01:04 2016


         ------------------------------------------------------------
                                   SCF GRAD                          
                          Rob Parrish, Justin Turney,                
                       Andy Simmonett, and Alex Sokolov              
         ------------------------------------------------------------

  ==> Geometry <==

    Molecular point group: c1
    Full point group: C1

    Geometry (in Angstrom), charge = 0, multiplicity = 1:

       Center              X                  Y                   Z               Mass       
    ------------   -----------------  -----------------  -----------------  -----------------
           H          2.453401323984    -0.664698801109    -0.099533104334     1.007825032070
           C          1.733137017119     0.135037896335    -0.160125782884    12.000000000000
           O          0.466636952813    -0.455135273600     0.039053075866    15.994914619560
           H          1.795080188381     0.599531431362    -1.136753364100     1.007825032070
           H          1.947419907711     0.869223689493     0.607944787493     1.007825032070
           C         -0.586265285010     0.346452109975     0.072107527246    12.000000000000
           O         -1.696617582671    -0.045386919151     0.060939534610    15.994914619560
           H         -0.330821485666     1.406575081169     0.089404680761     1.007825032070

  Nuclear repulsion =  121.209564549859991

  ==> Basis Set <==

  Basis Set: 6-31G*
    Number of shells: 32
    Number of basis function: 68
    Number of Cartesian functions: 68
    Spherical Harmonics?: false
    Max angular momentum: 2

  ==> DFJKGrad: Density-Fitted SCF Gradients <==

    Gradient:                    1
    J tasked:                  Yes
    K tasked:                  Yes
    wK tasked:                  No
    OpenMP threads:              4
    Integrals threads:           4
    Memory (MB):              1430
    Schwarz Cutoff:          0E+00
    Fitting Condition:       1E-12

   => Auxiliary Basis Set <=

  Basis Set: 
    Number of shells: 132
    Number of basis function: 424
    Number of Cartesian functions: 424
    Spherical Harmonics?: false
    Max angular momentum: 3


  -Total Gradient:
     Atom            X                  Y                   Z
    ------   -----------------  -----------------  -----------------
       1       -0.000049444099    -0.000037980331    -0.000116667206
       2       -0.000185248877    -0.000032472702    -0.001452706823
       3        0.000163292210     0.000214541243     0.000544837559
       4        0.000103053432     0.000040136460     0.000028394921
       5       -0.000064213849    -0.000021750823     0.000060544524
       6        0.000102467977    -0.000302251607     0.004836017711
       7       -0.000065077415     0.000102604308    -0.002792083790
       8       -0.000004829375     0.000037173454    -0.001108336896


*** tstop() called on cx1-5-5-2.cx1.hpc.ic.ac.uk at Fri Sep  2 12:01:06 2016
Module time:
	user time   =       6.71 seconds =       0.11 minutes
	system time =       0.13 seconds =       0.00 minutes
	total time  =          2 seconds =       0.03 minutes
Total time:
	user time   =      23.90 seconds =       0.40 minutes
	system time =       0.50 seconds =       0.01 minutes
	total time  =          9 seconds =       0.15 minutes
CURRENT ENERGY: -227.7788046130

			-----------------------------------------
			 OPTKING 2.0: for geometry optimizations 
			  - R.A. King,  Bethel University        
			-----------------------------------------

	Previous internal coordinate definitions found.
	---Fragment 1 Geometry and Gradient---
	 H           4.6362565964       -1.2560986950       -0.1880903083
	 C           3.2751543131        0.2551846416       -0.3025938765
	 O           0.8818160443       -0.8600810205        0.0737996180
	 H           3.3922099426        1.1329502133       -2.1481525388
	 H           3.6800902913        1.6425947214        1.1488491523
	 C          -1.1078808299        0.6546996060        0.1362634786
	 O          -3.2061425835       -0.0857688472        0.1151590311
	 H          -0.6251620068        2.6580416888        0.1689503616
	            -0.0000494441       -0.0000379803       -0.0001166672
	            -0.0001852489       -0.0000324727       -0.0014527068
	             0.0001632922        0.0002145412        0.0005448376
	             0.0001030534        0.0000401365        0.0000283949
	            -0.0000642138       -0.0000217508        0.0000605445
	             0.0001024680       -0.0003022516        0.0048360177
	            -0.0000650774        0.0001026043       -0.0027920838
	            -0.0000048294        0.0000371735       -0.0011083369

	---Fragment 1 Intrafragment Coordinates---
	 - Coordinate -           - BOHR/RAD -       - ANG/DEG -
	 R(1,2)           =         2.037078	       1.077975
	 R(2,3)           =         2.667125	       1.411382
	 R(2,4)           =         2.047013	       1.083233
	 R(2,5)           =         2.048308	       1.083918
	 R(3,6)           =         2.501471	       1.323721
	 R(6,7)           =         2.225183	       1.177516
	 R(6,8)           =         2.060938	       1.090601
	 B(1,2,3)         =         1.856070	     106.344998
	 B(1,2,4)         =         1.907729	     109.304813
	 B(1,2,5)         =         1.907727	     109.304692
	 B(2,3,6)         =         2.053380	     117.649986
	 B(3,2,4)         =         1.936765	     110.968438
	 B(3,2,5)         =         1.939742	     111.139004
	 B(3,6,7)         =         2.151121	     123.250153
	 B(3,6,8)         =         1.985289	     113.748674
	 B(4,2,5)         =         1.914649	     109.701325
	 B(7,6,8)         =         2.146567	     122.989220
	 D(1,2,3,6)       =         3.086668	     176.853044
	*D(2,3,6,7)       =         2.967060	     170.000015
	 D(2,3,6,8)       =        -0.153150	      -8.774873
	 D(4,2,3,6)       =        -1.123536	     -64.373874
	 D(5,2,3,6)       =         1.012062	      57.986888

	Current energy   :      -227.7788046130

	Energy change for the previous step:
		Projected    :        -0.0000361873
		Actual       :        -0.0000070556
	Energy ratio indicates iffy step: Trust radius decreased to 1.250e-01.


	Performing BFGS update.
	Previous computed or guess Hessian on step 1.
	Steps to be used in Hessian update: 1
	Taking RFO optimization step.
	Going to follow RFO solution 1.
	Using RFO vector 1.

	Determining step-restricting scale parameter for RS-RFO.
	Maximum step size allowed    0.12500

	 Iter      |step|        alpha        rfo_root  
	------------------------------------------------
	    0     0.24513       1.00000           1
	    1     0.17373       6.04901           1
	    2     0.13811      11.59737           1
	    3     0.12643      14.35613           1
	    4     0.12502      14.73490           1
	    5     0.12500      14.74051           1
	------------------------------------------------
	Norm of target step-size    0.12500
	Projected energy change by RFO approximation:        -0.0000858089

	Back-transformation to cartesian coordinates...
	Successfully converged to displaced geometry.

	Back-transformation to cartesian coordinates to adjust frozen coordinates...
	Successfully converged to displaced geometry.

	--- Internal Coordinate Step in ANG or DEG, aJ/ANG or AJ/DEG ---
	 ---------------------------------------------------------------------------
	   Coordinate                Previous        Force       Change         New 
	   ----------                --------       ------       ------       ------
	    1 R(1,2)          =      1.077975     0.000094    -0.000008     1.077967
	    2 R(2,3)          =      1.411382    -0.000094    -0.000110     1.411272
	    3 R(2,4)          =      1.083233     0.000021    -0.000419     1.082813
	    4 R(2,5)          =      1.083918    -0.000128     0.000534     1.084452
	    5 R(3,6)          =      1.323721     0.000831     0.000514     1.324236
	    6 R(6,7)          =      1.177516    -0.000442    -0.000002     1.177514
	    7 R(6,8)          =      1.090601    -0.000144     0.000101     1.090703
	    8 B(1,2,3)        =    106.344998     0.000006     0.042789   106.387787
	    9 B(1,2,4)        =    109.304813     0.000006     0.026373   109.331185
	   10 B(1,2,5)        =    109.304692    -0.000007    -0.000345   109.304347
	   11 B(2,3,6)        =    117.649986     0.000013    -0.076676   117.573310
	   12 B(3,2,4)        =    110.968438    -0.000015    -0.169818   110.798620
	   13 B(3,2,5)        =    111.139004     0.000010     0.120699   111.259703
	   14 B(3,6,7)        =    123.250153    -0.000001     0.070504   123.320657
	   15 B(3,6,8)        =    113.748674     0.000003    -0.038889   113.709785
	   16 B(4,2,5)        =    109.701325     0.000000    -0.017002   109.684323
	   17 B(7,6,8)        =    122.989220     0.000002    -0.020064   122.969156
	   18 D(1,2,3,6)      =    176.853044    -0.000002    -4.004020   172.849024
	   19 *D(2,3,6,7)     =    170.000015     0.000000     0.000000   170.000015
	   20 D(2,3,6,8)      =     -8.774873    -0.000036    -1.449788   -10.224662
	   21 D(4,2,3,6)      =    -64.373874    -0.000001    -4.039276   -68.413149
	   22 D(5,2,3,6)      =     57.986888    -0.000002    -4.095853    53.891034
	 ---------------------------------------------------------------------------

  ==> Convergence Check <==

  Measures of convergence in internal coordinates in au.
  Criteria marked as inactive (o), active & met (*), and active & unmet ( ).
  ---------------------------------------------------------------------------------------------
   Step     Total Energy     Delta E     MAX Force     RMS Force      MAX Disp      RMS Disp   
  ---------------------------------------------------------------------------------------------
    Convergence Criteria    1.00e-06 *    3.00e-04 *             o    1.20e-03 *             o
  ---------------------------------------------------------------------------------------------
      2    -227.77880461   -7.06e-06      2.09e-03      4.54e-04 o    7.15e-02      2.67e-02 o  ~
  ---------------------------------------------------------------------------------------------

	Writing optimization data to binary file.
	Structure for next step:
	Cartesian Geometry (in Angstrom)
	    H     2.4558009390  -0.6578909611  -0.0673428465
	    C     1.7321729269   0.1345140641  -0.1696648307
	    O     0.4642219436  -0.4585121540   0.0100786216
	    H     1.8159482307   0.5711400716  -1.1569967631
	    H     1.9218893876   0.8925605987   0.5822717326
	    C    -0.5855328796   0.3462705638   0.0728436188
	    O    -1.6980744829  -0.0387441592   0.0492926122
	    H    -0.3244545871   1.4022613580   0.1525551697
			--------------------------
			 OPTKING Finished Execution 
			--------------------------

    Structure for next step:
    Molecular point group: c1
    Full point group: C1

    Geometry (in Angstrom), charge = 0, multiplicity = 1:

    H            2.456809978101    -0.658577211680    -0.055587650481
    C            1.733182021296     0.133827752963    -0.157909626873
    O            0.465231134776    -0.459198419819     0.021833811728
    H            1.816957318711     0.570453727176    -1.145241483853
    H            1.922898467545     0.891874229669     0.594026879003
    C           -0.584523608252     0.345584236506     0.084598804112
    O           -1.697065126518    -0.039430457101     0.061047799357
    H           -0.323445335700     1.401574950112     0.164310348992

gradient() will perform analytic gradient computation.

*** tstart() called on cx1-5-5-2.cx1.hpc.ic.ac.uk
*** at Fri Sep  2 12:01:06 2016


         ---------------------------------------------------------
                                   SCF
            by Justin Turney, Rob Parrish, and Andy Simmonett
                              RHF Reference
                        4 Threads,   2000 MiB Core
         ---------------------------------------------------------

  ==> Geometry <==

    Molecular point group: c1
    Full point group: C1

    Geometry (in Angstrom), charge = 0, multiplicity = 1:

       Center              X                  Y                   Z               Mass       
    ------------   -----------------  -----------------  -----------------  -----------------
           H          2.456809978101    -0.658577211680    -0.055587650481     1.007825032070
           C          1.733182021296     0.133827752963    -0.157909626873    12.000000000000
           O          0.465231134776    -0.459198419819     0.021833811728    15.994914619560
           H          1.816957318711     0.570453727176    -1.145241483853     1.007825032070
           H          1.922898467545     0.891874229669     0.594026879003     1.007825032070
           C         -0.584523608252     0.345584236506     0.084598804112    12.000000000000
           O         -1.697065126518    -0.039430457101     0.061047799357    15.994914619560
           H         -0.323445335700     1.401574950112     0.164310348992     1.007825032070

  Running in c1 symmetry.

  Rotational constants: A =      1.63418  B =      0.16040  C =      0.15061 [cm^-1]
  Rotational constants: A =  48991.50708  B =   4808.79029  C =   4515.20354 [MHz]
  Nuclear repulsion =  121.199627011693110

  Charge       = 0
  Multiplicity = 1
  Electrons    = 32
  Nalpha       = 16
  Nbeta        = 16

  ==> Algorithm <==

  SCF Algorithm Type is DF.
  DIIS enabled.
  MOM disabled.
  Fractional occupation disabled.
  Guess Type is READ.
  Energy threshold   = 1.00e-08
  Density threshold  = 1.00e-08
  Integral threshold = 0.00e+00

  ==> Primary Basis <==

  Basis Set: 6-31G*
    Number of shells: 32
    Number of basis function: 68
    Number of Cartesian functions: 68
    Spherical Harmonics?: false
    Max angular momentum: 2

  ==> Pre-Iterations <==

   -------------------------------------------------------
    Irrep   Nso     Nmo     Nalpha   Nbeta   Ndocc  Nsocc
   -------------------------------------------------------
     A         68      68       0       0       0       0
   -------------------------------------------------------
    Total      68      68      16      16      16       0
   -------------------------------------------------------

 OEINTS: Overlap, kinetic, potential, dipole, and quadrupole integrals
         stored in file 35.

  ==> Integral Setup <==

  ==> DFJK: Density-Fitted J/K Matrices <==

    J tasked:                  Yes
    K tasked:                  Yes
    wK tasked:                  No
    OpenMP threads:              4
    Integrals threads:           4
    Memory (MB):              1430
    Algorithm:                Core
    Integral Cache:           NONE
    Schwarz Cutoff:          1E-12
    Fitting Condition:       1E-12

   => Auxiliary Basis Set <=

  Basis Set: 
    Number of shells: 132
    Number of basis function: 424
    Number of Cartesian functions: 424
    Spherical Harmonics?: false
    Max angular momentum: 3

  Minimum eigenvalue in the overlap matrix is 4.9280831990E-03.
  Using Symmetric Orthogonalization.
  SCF Guess: Reading in previously saved MOs, projecting if necessary.

  Using orbitals from previous SCF, no projection.
  Recomputing DOCC and SOCC from number of alpha and beta electrons from previous calculation.
              A 
    DOCC [    16 ]

  ==> Iterations <==

                           Total Energy        Delta E     RMS |[F,P]|

   @DF-RHF iter   0:  -227.77661244022045   -2.27777e+02   8.04791e-04 
   @DF-RHF iter   1:  -227.77864214522765   -2.02971e-03   1.63454e-04 
   @DF-RHF iter   2:  -227.77879046954081   -1.48324e-04   6.78516e-05 DIIS
   @DF-RHF iter   3:  -227.77883221516919   -4.17456e-05   2.15592e-05 DIIS
   @DF-RHF iter   4:  -227.77883694988498   -4.73472e-06   1.28897e-05 DIIS
   @DF-RHF iter   5:  -227.77883844567168   -1.49579e-06   4.35690e-06 DIIS
   @DF-RHF iter   6:  -227.77883861764349   -1.71972e-07   1.31849e-06 DIIS
   @DF-RHF iter   7:  -227.77883863200134   -1.43579e-08   4.18530e-07 DIIS
   @DF-RHF iter   8:  -227.77883863349155   -1.49021e-09   1.29800e-07 DIIS
   @DF-RHF iter   9:  -227.77883863361302   -1.21474e-10   4.03630e-08 DIIS
   @DF-RHF iter  10:  -227.77883863362183   -8.81073e-12   1.15012e-08 DIIS
   @DF-RHF iter  11:  -227.77883863362206   -2.27374e-13   4.04118e-09 DIIS

  ==> Post-Iterations <==

    Orbital Energies (a.u.)
    -----------------------

    Doubly Occupied:                                                      

       1A    -20.616729     2A    -20.558271     3A    -11.382307  
       4A    -11.304688     5A     -1.476744     6A     -1.382998  
       7A     -0.993508     8A     -0.849273     9A     -0.738234  
      10A     -0.686343    11A     -0.681358    12A     -0.606224  
      13A     -0.571045    14A     -0.540728    15A     -0.461446  
      16A     -0.453730  

    Virtual:                                                              

      17A      0.181858    18A      0.230403    19A      0.279464  
      20A      0.298921    21A      0.301696    22A      0.318764  
      23A      0.450630    24A      0.520345    25A      0.689077  
      26A      0.735553    27A      0.745199    28A      0.778994  
      29A      0.828354    30A      0.951703    31A      0.993312  
      32A      1.084000    33A      1.106082    34A      1.116297  
      35A      1.123354    36A      1.192543    37A      1.204336  
      38A      1.277180    39A      1.307245    40A      1.341785  
      41A      1.413971    42A      1.495711    43A      1.648574  
      44A      1.699821    45A      1.742097    46A      1.853421  
      47A      1.866567    48A      1.961214    49A      2.097024  
      50A      2.148288    51A      2.217368    52A      2.323510  
      53A      2.363904    54A      2.439428    55A      2.499520  
      56A      2.543839    57A      2.601398    58A      2.807574  
      59A      2.925471    60A      2.987257    61A      3.019284  
      62A      3.189208    63A      3.356560    64A      3.502950  
      65A      4.270056    66A      4.364522    67A      4.659196  
      68A      4.677815  

    Final Occupation by Irrep:
              A 
    DOCC [    16 ]

  Energy converged.

  @DF-RHF Final Energy:  -227.77883863362206

   => Energetics <=

    Nuclear Repulsion Energy =            121.1996270116931100
    One-Electron Energy =                -551.3496777868672325
    Two-Electron Energy =                 202.3712121415521210
    DFT Exchange-Correlation Energy =       0.0000000000000000
    Empirical Dispersion Energy =           0.0000000000000000
    PCM Polarization Energy =               0.0000000000000000
    EFP Energy =                            0.0000000000000000
    Total Energy =                       -227.7788386336220015

    Alert: EFP and PCM quantities not currently incorporated into SCF psivars.

Properties will be evaluated at   0.000000,   0.000000,   0.000000 Bohr
  ==> Properties <==


Properties computed using the SCF density matrix

  Nuclear Dipole Moment: (a.u.)
     X:     5.5000      Y:     2.0650      Z:    -0.4144

  Electronic Dipole Moment: (a.u.)
     X:    -3.9291      Y:    -1.1980      Z:     0.3529

  Dipole Moment: (a.u.)
     X:     1.5709      Y:     0.8670      Z:    -0.0616     Total:     1.7954

  Dipole Moment: (Debye)
     X:     3.9929      Y:     2.2038      Z:    -0.1565     Total:     4.5633


  Saving occupied orbitals to File 180.

*** tstop() called on cx1-5-5-2.cx1.hpc.ic.ac.uk at Fri Sep  2 12:01:08 2016
Module time:
	user time   =       5.52 seconds =       0.09 minutes
	system time =       0.08 seconds =       0.00 minutes
	total time  =          2 seconds =       0.03 minutes
Total time:
	user time   =      29.91 seconds =       0.50 minutes
	system time =       0.60 seconds =       0.01 minutes
	total time  =         11 seconds =       0.18 minutes

*** tstart() called on cx1-5-5-2.cx1.hpc.ic.ac.uk
*** at Fri Sep  2 12:01:08 2016


         ------------------------------------------------------------
                                   SCF GRAD                          
                          Rob Parrish, Justin Turney,                
                       Andy Simmonett, and Alex Sokolov              
         ------------------------------------------------------------

  ==> Geometry <==

    Molecular point group: c1
    Full point group: C1

    Geometry (in Angstrom), charge = 0, multiplicity = 1:

       Center              X                  Y                   Z               Mass       
    ------------   -----------------  -----------------  -----------------  -----------------
           H          2.456809978101    -0.658577211680    -0.055587650481     1.007825032070
           C          1.733182021296     0.133827752963    -0.157909626873    12.000000000000
           O          0.465231134776    -0.459198419819     0.021833811728    15.994914619560
           H          1.816957318711     0.570453727176    -1.145241483853     1.007825032070
           H          1.922898467545     0.891874229669     0.594026879003     1.007825032070
           C         -0.584523608252     0.345584236506     0.084598804112    12.000000000000
           O         -1.697065126518    -0.039430457101     0.061047799357    15.994914619560
           H         -0.323445335700     1.401574950112     0.164310348992     1.007825032070

  Nuclear repulsion =  121.199627011693110

  ==> Basis Set <==

  Basis Set: 6-31G*
    Number of shells: 32
    Number of basis function: 68
    Number of Cartesian functions: 68
    Spherical Harmonics?: false
    Max angular momentum: 2

  ==> DFJKGrad: Density-Fitted SCF Gradients <==

    Gradient:                    1
    J tasked:                  Yes
    K tasked:                  Yes
    wK tasked:                  No
    OpenMP threads:              4
    Integrals threads:           4
    Memory (MB):              1430
    Schwarz Cutoff:          0E+00
    Fitting Condition:       1E-12

   => Auxiliary Basis Set <=

  Basis Set: 
    Number of shells: 132
    Number of basis function: 424
    Number of Cartesian functions: 424
    Spherical Harmonics?: false
    Max angular momentum: 3


  -Total Gradient:
     Atom            X                  Y                   Z
    ------   -----------------  -----------------  -----------------
       1       -0.000117201332    -0.000053424157    -0.000141605017
       2       -0.000321010369     0.000183987823    -0.001410128666
       3        0.000595922525    -0.000487600691     0.001253194375
       4       -0.000036516581    -0.000152281577     0.000206250124
       5        0.000073196170     0.000308535521     0.000194305432
       6        0.000097885468    -0.000184886082     0.001009914699
       7       -0.000308343470     0.000281863240    -0.001338636977
       8        0.000016067590     0.000103805924     0.000226706030


*** tstop() called on cx1-5-5-2.cx1.hpc.ic.ac.uk at Fri Sep  2 12:01:10 2016
Module time:
	user time   =       6.11 seconds =       0.10 minutes
	system time =       0.11 seconds =       0.00 minutes
	total time  =          2 seconds =       0.03 minutes
Total time:
	user time   =      36.05 seconds =       0.60 minutes
	system time =       0.71 seconds =       0.01 minutes
	total time  =         13 seconds =       0.22 minutes
CURRENT ENERGY: -227.7788386336

			-----------------------------------------
			 OPTKING 2.0: for geometry optimizations 
			  - R.A. King,  Bethel University        
			-----------------------------------------

	Previous internal coordinate definitions found.
	---Fragment 1 Geometry and Gradient---
	 H           4.6426980192       -1.2445305674       -0.1050454358
	 C           3.2752393587        0.2528978021       -0.2984059485
	 O           0.8791594332       -0.8677592541        0.0412599246
	 H           3.4335517275        1.0780013158       -2.1641927605
	 H           3.6337514850        1.6853980391        1.1225481169
	 C          -1.1045895378        0.6530595628        0.1598685709
	 O          -3.2069883188       -0.0745127652        0.1153636218
	 H          -0.6112231034        2.6485928104        0.3105015604
	            -0.0001172013       -0.0000534242       -0.0001416050
	            -0.0003210104        0.0001839878       -0.0014101287
	             0.0005959225       -0.0004876007        0.0012531944
	            -0.0000365166       -0.0001522816        0.0002062501
	             0.0000731962        0.0003085355        0.0001943054
	             0.0000978855       -0.0001848861        0.0010099147
	            -0.0003083435        0.0002818632       -0.0013386370
	             0.0000160676        0.0001038059        0.0002267060

	---Fragment 1 Intrafragment Coordinates---
	 - Coordinate -           - BOHR/RAD -       - ANG/DEG -
	 R(1,2)           =         2.037062	       1.077967
	 R(2,3)           =         2.666917	       1.411272
	 R(2,4)           =         2.046221	       1.082813
	 R(2,5)           =         2.049317	       1.084452
	 R(3,6)           =         2.502442	       1.324236
	 R(6,7)           =         2.225179	       1.177514
	 R(6,8)           =         2.061129	       1.090703
	 B(1,2,3)         =         1.856817	     106.387787
	 B(1,2,4)         =         1.908189	     109.331185
	 B(1,2,5)         =         1.907721	     109.304347
	 B(2,3,6)         =         2.052041	     117.573310
	 B(3,2,4)         =         1.933801	     110.798620
	 B(3,2,5)         =         1.941848	     111.259703
	 B(3,6,7)         =         2.152352	     123.320657
	 B(3,6,8)         =         1.984610	     113.709785
	 B(4,2,5)         =         1.914353	     109.684323
	 B(7,6,8)         =         2.146217	     122.969156
	 D(1,2,3,6)       =         3.016785	     172.849024
	*D(2,3,6,7)       =         2.967060	     170.000015
	 D(2,3,6,8)       =        -0.178454	     -10.224662
	 D(4,2,3,6)       =        -1.194035	     -68.413149
	 D(5,2,3,6)       =         0.940576	      53.891034

	Current energy   :      -227.7788386336

	Energy change for the previous step:
		Projected    :        -0.0000858089
		Actual       :        -0.0000340206

	Performing BFGS update.
	Previous computed or guess Hessian on step 1.
	Steps to be used in Hessian update: 2 1
	Taking RFO optimization step.
	Going to follow RFO solution 1.
	Using RFO vector 1.
	Norm of target step-size    0.03870
	Projected energy change by RFO approximation:         0.0000145095

	Back-transformation to cartesian coordinates...
	Successfully converged to displaced geometry.

	Back-transformation to cartesian coordinates to adjust frozen coordinates...
	Successfully converged to displaced geometry.
	First geometry is closer to target in internal coordinates, so am using that one.
	First geometry has RMS(Delta(q)) = 9.47e-17

	--- Internal Coordinate Step in ANG or DEG, aJ/ANG or AJ/DEG ---
	 ---------------------------------------------------------------------------
	   Coordinate                Previous        Force       Change         New 
	   ----------                --------       ------       ------       ------
	    1 R(1,2)          =      1.077967     0.000435     0.000073     1.078040
	    2 R(2,3)          =      1.411272     0.000771     0.000091     1.411362
	    3 R(2,4)          =      1.082813     0.002079     0.000302     1.083116
	    4 R(2,5)          =      1.084452    -0.002992    -0.000445     1.084006
	    5 R(3,6)          =      1.324236    -0.002235    -0.000150     1.324086
	    6 R(6,7)          =      1.177514    -0.001861    -0.000098     1.177416
	    7 R(6,8)          =      1.090703    -0.000996    -0.000163     1.090540
	    8 B(1,2,3)        =    106.387787     0.000012     0.062414   106.450202
	    9 B(1,2,4)        =    109.331185     0.000004     0.048194   109.379379
	   10 B(1,2,5)        =    109.304347    -0.000011    -0.071340   109.233007
	   11 B(2,3,6)        =    117.573310     0.000073     0.201488   117.774798
	   12 B(3,2,4)        =    110.798620     0.000007     0.011771   110.810391
	   13 B(3,2,5)        =    111.259703    -0.000011    -0.041877   111.217825
	   14 B(3,6,7)        =    123.320657    -0.000030    -0.089179   123.231478
	   15 B(3,6,8)        =    113.709785     0.000014     0.039573   113.749358
	   16 B(4,2,5)        =    109.684323     0.000000    -0.007276   109.677047
	   17 B(7,6,8)        =    122.969156     0.000016     0.049977   123.019133
	   18 D(1,2,3,6)      =    172.849024    -0.000003    -1.324445   171.524579
	   19 *D(2,3,6,7)     =    170.000015     0.000000    -0.000000   170.000015
	   20 D(2,3,6,8)      =    -10.224662     0.000007     0.161886   -10.062776
	   21 D(4,2,3,6)      =    -68.413149     0.000001    -1.223003   -69.636152
	   22 D(5,2,3,6)      =     53.891034     0.000000    -1.253174    52.637861
	 ---------------------------------------------------------------------------

  ==> Convergence Check <==

  Measures of convergence in internal coordinates in au.
  Criteria marked as inactive (o), active & met (*), and active & unmet ( ).
  ---------------------------------------------------------------------------------------------
   Step     Total Energy     Delta E     MAX Force     RMS Force      MAX Disp      RMS Disp   
  ---------------------------------------------------------------------------------------------
    Convergence Criteria    1.00e-06 *    3.00e-04 *             o    1.20e-03 *             o
  ---------------------------------------------------------------------------------------------
      3    -227.77883863   -3.40e-05      9.63e-04      2.84e-04 o    2.31e-02      8.25e-03 o  ~
  ---------------------------------------------------------------------------------------------

	Writing optimization data to binary file.
	Structure for next step:
	Cartesian Geometry (in Angstrom)
	    H     2.4569558714  -0.6579054628  -0.0466133801
	    C     1.7338720922   0.1334403918  -0.1610319044
	    O     0.4639257117  -0.4574225590   0.0123493863
	    H     1.8260253389   0.5641830360  -1.1505310547
	    H     1.9173725776   0.8957831090   0.5874536708
	    C    -0.5855616972   0.3464143647   0.0873551567
	    O    -1.6974704991  -0.0398681204   0.0599101910
	    H    -0.3250741034   1.4014842156   0.1781867833
			--------------------------
			 OPTKING Finished Execution 
			--------------------------

    Structure for next step:
    Molecular point group: c1
    Full point group: C1

    Geometry (in Angstrom), charge = 0, multiplicity = 1:

    H            2.457446592155    -0.658320646778    -0.043894072496
    C            1.734362868179     0.133025147430    -0.158312588003
    O            0.464416584620    -0.457837758294     0.015068689481
    H            1.826516107814     0.563767758713    -1.147811662750
    H            1.917863339566     0.895367806374     0.590172930027
    C           -0.585070744062     0.345999104060     0.090074454134
    O           -1.696979461110    -0.040283351535     0.062629490542
    H           -0.324583170189     1.401068874439     0.180906073750

gradient() will perform analytic gradient computation.

*** tstart() called on cx1-5-5-2.cx1.hpc.ic.ac.uk
*** at Fri Sep  2 12:01:10 2016


         ---------------------------------------------------------
                                   SCF
            by Justin Turney, Rob Parrish, and Andy Simmonett
                              RHF Reference
                        4 Threads,   2000 MiB Core
         ---------------------------------------------------------

  ==> Geometry <==

    Molecular point group: c1
    Full point group: C1

    Geometry (in Angstrom), charge = 0, multiplicity = 1:

       Center              X                  Y                   Z               Mass       
    ------------   -----------------  -----------------  -----------------  -----------------
           H          2.457446592155    -0.658320646778    -0.043894072496     1.007825032070
           C          1.734362868179     0.133025147430    -0.158312588003    12.000000000000
           O          0.464416584620    -0.457837758294     0.015068689481    15.994914619560
           H          1.826516107814     0.563767758713    -1.147811662750     1.007825032070
           H          1.917863339566     0.895367806374     0.590172930027     1.007825032070
           C         -0.585070744062     0.345999104060     0.090074454134    12.000000000000
           O         -1.696979461110    -0.040283351535     0.062629490542    15.994914619560
           H         -0.324583170189     1.401068874439     0.180906073750     1.007825032070

  Running in c1 symmetry.

  Rotational constants: A =      1.63760  B =      0.16029  C =      0.15053 [cm^-1]
  Rotational constants: A =  49094.02870  B =   4805.25643  C =   4512.89316 [MHz]
  Nuclear repulsion =  121.191409464185583

  Charge       = 0
  Multiplicity = 1
  Electrons    = 32
  Nalpha       = 16
  Nbeta        = 16

  ==> Algorithm <==

  SCF Algorithm Type is DF.
  DIIS enabled.
  MOM disabled.
  Fractional occupation disabled.
  Guess Type is READ.
  Energy threshold   = 1.00e-08
  Density threshold  = 1.00e-08
  Integral threshold = 0.00e+00

  ==> Primary Basis <==

  Basis Set: 6-31G*
    Number of shells: 32
    Number of basis function: 68
    Number of Cartesian functions: 68
    Spherical Harmonics?: false
    Max angular momentum: 2

  ==> Pre-Iterations <==

   -------------------------------------------------------
    Irrep   Nso     Nmo     Nalpha   Nbeta   Ndocc  Nsocc
   -------------------------------------------------------
     A         68      68       0       0       0       0
   -------------------------------------------------------
    Total      68      68      16      16      16       0
   -------------------------------------------------------

 OEINTS: Overlap, kinetic, potential, dipole, and quadrupole integrals
         stored in file 35.

  ==> Integral Setup <==

  ==> DFJK: Density-Fitted J/K Matrices <==

    J tasked:                  Yes
    K tasked:                  Yes
    wK tasked:                  No
    OpenMP threads:              4
    Integrals threads:           4
    Memory (MB):              1430
    Algorithm:                Core
    Integral Cache:           NONE
    Schwarz Cutoff:          1E-12
    Fitting Condition:       1E-12

   => Auxiliary Basis Set <=

  Basis Set: 
    Number of shells: 132
    Number of basis function: 424
    Number of Cartesian functions: 424
    Spherical Harmonics?: false
    Max angular momentum: 3

  Minimum eigenvalue in the overlap matrix is 4.9366445594E-03.
  Using Symmetric Orthogonalization.
  SCF Guess: Reading in previously saved MOs, projecting if necessary.

  Using orbitals from previous SCF, no projection.
  Recomputing DOCC and SOCC from number of alpha and beta electrons from previous calculation.
              A 
    DOCC [    16 ]

  ==> Iterations <==

                           Total Energy        Delta E     RMS |[F,P]|

   @DF-RHF iter   0:  -227.77905243070285   -2.27779e+02   2.74021e-04 
   @DF-RHF iter   1:  -227.77882841961713    2.24011e-04   4.74781e-05 
   @DF-RHF iter   2:  -227.77884014305852   -1.17234e-05   1.88629e-05 DIIS
   @DF-RHF iter   3:  -227.77884296453811   -2.82148e-06   7.22633e-06 DIIS
   @DF-RHF iter   4:  -227.77884325917910   -2.94641e-07   3.71856e-06 DIIS
   @DF-RHF iter   5:  -227.77884343977638   -1.80597e-07   1.07307e-06 DIIS
   @DF-RHF iter   6:  -227.77884345363321   -1.38568e-08   3.80942e-07 DIIS
   @DF-RHF iter   7:  -227.77884345430851   -6.75300e-10   1.41438e-07 DIIS
   @DF-RHF iter   8:  -227.77884345440390   -9.53833e-11   5.08050e-08 DIIS
   @DF-RHF iter   9:  -227.77884345442243   -1.85310e-11   1.31424e-08 DIIS
   @DF-RHF iter  10:  -227.77884345442345   -1.02318e-12   2.82862e-09 DIIS

  ==> Post-Iterations <==

    Orbital Energies (a.u.)
    -----------------------

    Doubly Occupied:                                                      

       1A    -20.616587     2A    -20.558119     3A    -11.382262  
       4A    -11.304700     5A     -1.476686     6A     -1.382838  
       7A     -0.993635     8A     -0.849175     9A     -0.738325  
      10A     -0.686238    11A     -0.681257    12A     -0.606313  
      13A     -0.571137    14A     -0.540363    15A     -0.461325  
      16A     -0.453693  

    Virtual:                                                              

      17A      0.182104    18A      0.230370    19A      0.279529  
      20A      0.298625    21A      0.301703    22A      0.318968  
      23A      0.450520    24A      0.520465    25A      0.688285  
      26A      0.734698    27A      0.744814    28A      0.779759  
      29A      0.828367    30A      0.952153    31A      0.993506  
      32A      1.083831    33A      1.106358    34A      1.116875  
      35A      1.122676    36A      1.192484    37A      1.203922  
      38A      1.277277    39A      1.307080    40A      1.342064  
      41A      1.414127    42A      1.496066    43A      1.647488  
      44A      1.699249    45A      1.742318    46A      1.854048  
      47A      1.866603    48A      1.960939    49A      2.097726  
      50A      2.148356    51A      2.217860    52A      2.322841  
      53A      2.363669    54A      2.439446    55A      2.497404  
      56A      2.543863    57A      2.603151    58A      2.808074  
      59A      2.924521    60A      2.986945    61A      3.019171  
      62A      3.190241    63A      3.356520    64A      3.503478  
      65A      4.269152    66A      4.364543    67A      4.658218  
      68A      4.677778  

    Final Occupation by Irrep:
              A 
    DOCC [    16 ]

  Energy converged.

  @DF-RHF Final Energy:  -227.77884345442345

   => Energetics <=

    Nuclear Repulsion Energy =            121.1914094641855826
    One-Electron Energy =                -551.3351970555756907
    Two-Electron Energy =                 202.3649441369665851
    DFT Exchange-Correlation Energy =       0.0000000000000000
    Empirical Dispersion Energy =           0.0000000000000000
    PCM Polarization Energy =               0.0000000000000000
    EFP Energy =                            0.0000000000000000
    Total Energy =                       -227.7788434544235088

    Alert: EFP and PCM quantities not currently incorporated into SCF psivars.

Properties will be evaluated at   0.000000,   0.000000,   0.000000 Bohr
  ==> Properties <==


Properties computed using the SCF density matrix

  Nuclear Dipole Moment: (a.u.)
     X:     5.5038      Y:     2.0618      Z:    -0.3940

  Electronic Dipole Moment: (a.u.)
     X:    -3.9316      Y:    -1.1938      Z:     0.3430

  Dipole Moment: (a.u.)
     X:     1.5722      Y:     0.8680      Z:    -0.0510     Total:     1.7966

  Dipole Moment: (Debye)
     X:     3.9962      Y:     2.2062      Z:    -0.1296     Total:     4.5666


  Saving occupied orbitals to File 180.

*** tstop() called on cx1-5-5-2.cx1.hpc.ic.ac.uk at Fri Sep  2 12:01:12 2016
Module time:
	user time   =       6.00 seconds =       0.10 minutes
	system time =       0.11 seconds =       0.00 minutes
	total time  =          2 seconds =       0.03 minutes
Total time:
	user time   =      42.57 seconds =       0.71 minutes
	system time =       0.84 seconds =       0.01 minutes
	total time  =         15 seconds =       0.25 minutes

*** tstart() called on cx1-5-5-2.cx1.hpc.ic.ac.uk
*** at Fri Sep  2 12:01:12 2016


         ------------------------------------------------------------
                                   SCF GRAD                          
                          Rob Parrish, Justin Turney,                
                       Andy Simmonett, and Alex Sokolov              
         ------------------------------------------------------------

  ==> Geometry <==

    Molecular point group: c1
    Full point group: C1

    Geometry (in Angstrom), charge = 0, multiplicity = 1:

       Center              X                  Y                   Z               Mass       
    ------------   -----------------  -----------------  -----------------  -----------------
           H          2.457446592155    -0.658320646778    -0.043894072496     1.007825032070
           C          1.734362868179     0.133025147430    -0.158312588003    12.000000000000
           O          0.464416584620    -0.457837758294     0.015068689481    15.994914619560
           H          1.826516107814     0.563767758713    -1.147811662750     1.007825032070
           H          1.917863339566     0.895367806374     0.590172930027     1.007825032070
           C         -0.585070744062     0.345999104060     0.090074454134    12.000000000000
           O         -1.696979461110    -0.040283351535     0.062629490542    15.994914619560
           H         -0.324583170189     1.401068874439     0.180906073750     1.007825032070

  Nuclear repulsion =  121.191409464185583

  ==> Basis Set <==

  Basis Set: 6-31G*
    Number of shells: 32
    Number of basis function: 68
    Number of Cartesian functions: 68
    Spherical Harmonics?: false
    Max angular momentum: 2

  ==> DFJKGrad: Density-Fitted SCF Gradients <==

    Gradient:                    1
    J tasked:                  Yes
    K tasked:                  Yes
    wK tasked:                  No
    OpenMP threads:              4
    Integrals threads:           4
    Memory (MB):              1430
    Schwarz Cutoff:          0E+00
    Fitting Condition:       1E-12

   => Auxiliary Basis Set <=

  Basis Set: 
    Number of shells: 132
    Number of basis function: 424
    Number of Cartesian functions: 424
    Spherical Harmonics?: false
    Max angular momentum: 3


  -Total Gradient:
     Atom            X                  Y                   Z
    ------   -----------------  -----------------  -----------------
       1        0.000021937929     0.000018484177    -0.000012396204
       2       -0.000043694830     0.000027479981    -0.001299319215
       3        0.000173131127    -0.000186224184     0.001160645742
       4        0.000043528681     0.000012058063     0.000010298076
       5       -0.000028029621    -0.000004256920     0.000015411449
       6       -0.000198400291    -0.000020593495     0.001609500640
       7        0.000047050864     0.000127659080    -0.001516191890
       8       -0.000015523859     0.000025393300     0.000032051402


*** tstop() called on cx1-5-5-2.cx1.hpc.ic.ac.uk at Fri Sep  2 12:01:14 2016
Module time:
	user time   =       6.64 seconds =       0.11 minutes
	system time =       0.14 seconds =       0.00 minutes
	total time  =          2 seconds =       0.03 minutes
Total time:
	user time   =      49.23 seconds =       0.82 minutes
	system time =       0.98 seconds =       0.02 minutes
	total time  =         17 seconds =       0.28 minutes
CURRENT ENERGY: -227.7788434544

			-----------------------------------------
			 OPTKING 2.0: for geometry optimizations 
			  - R.A. King,  Bethel University        
			-----------------------------------------

	Previous internal coordinate definitions found.
	---Fragment 1 Geometry and Gradient---
	 H           4.6439010454       -1.2440457300       -0.0829477759
	 C           3.2774708359        0.2513810974       -0.2991674347
	 O           0.8776201565       -0.8651879765        0.0284756963
	 H           3.4516152211        1.0653666665       -2.1690496947
	 H           3.6242364721        1.6919999423        1.1152652088
	 C          -1.1056234746        0.6538435489        0.1702160499
	 O          -3.2068264346       -0.0761245021        0.1183525850
	 H          -0.6133732990        2.6476364660        0.3418629352
	             0.0000219379        0.0000184842       -0.0000123962
	            -0.0000436948        0.0000274800       -0.0012993192
	             0.0001731311       -0.0001862242        0.0011606457
	             0.0000435287        0.0000120581        0.0000102981
	            -0.0000280296       -0.0000042569        0.0000154114
	            -0.0001984003       -0.0000205935        0.0016095006
	             0.0000470509        0.0001276591       -0.0015161919
	            -0.0000155239        0.0000253933        0.0000320514

	---Fragment 1 Intrafragment Coordinates---
	 - Coordinate -           - BOHR/RAD -       - ANG/DEG -
	 R(1,2)           =         2.037200	       1.078040
	 R(2,3)           =         2.667088	       1.411362
	 R(2,4)           =         2.046792	       1.083116
	 R(2,5)           =         2.048475	       1.084006
	 R(3,6)           =         2.502160	       1.324086
	 R(6,7)           =         2.224994	       1.177416
	 R(6,8)           =         2.060821	       1.090540
	 B(1,2,3)         =         1.857907	     106.450202
	 B(1,2,4)         =         1.909030	     109.379379
	 B(1,2,5)         =         1.906476	     109.233007
	 B(2,3,6)         =         2.055558	     117.774798
	 B(3,2,4)         =         1.934006	     110.810391
	 B(3,2,5)         =         1.941117	     111.217825
	 B(3,6,7)         =         2.150795	     123.231478
	 B(3,6,8)         =         1.985301	     113.749358
	 B(4,2,5)         =         1.914226	     109.677047
	 B(7,6,8)         =         2.147089	     123.019133
	 D(1,2,3,6)       =         2.993669	     171.524579
	*D(2,3,6,7)       =         2.967060	     170.000015
	 D(2,3,6,8)       =        -0.175629	     -10.062776
	 D(4,2,3,6)       =        -1.215380	     -69.636152
	 D(5,2,3,6)       =         0.918704	      52.637861

	Current energy   :      -227.7788434544

	Energy change for the previous step:
		Projected    :         0.0000145095
		Actual       :        -0.0000048208

	Performing BFGS update.
	Previous computed or guess Hessian on step 1.
	Steps to be used in Hessian update: 3 2
	Taking RFO optimization step.
	Going to follow RFO solution 1.
	Using RFO vector 1.
	Norm of target step-size    0.01103
	Projected energy change by RFO approximation:        -0.0000001554

	Back-transformation to cartesian coordinates...
	Successfully converged to displaced geometry.

	Back-transformation to cartesian coordinates to adjust frozen coordinates...
	Successfully converged to displaced geometry.
	First geometry is closer to target in internal coordinates, so am using that one.
	First geometry has RMS(Delta(q)) = 9.47e-17

	--- Internal Coordinate Step in ANG or DEG, aJ/ANG or AJ/DEG ---
	 ---------------------------------------------------------------------------
	   Coordinate                Previous        Force       Change         New 
	   ----------                --------       ------       ------       ------
	    1 R(1,2)          =      1.078040     0.000001     0.000005     1.078045
	    2 R(2,3)          =      1.411362    -0.001441    -0.000238     1.411125
	    3 R(2,4)          =      1.083116     0.000007     0.000009     1.083125
	    4 R(2,5)          =      1.084006    -0.000024    -0.000019     1.083988
	    5 R(3,6)          =      1.324086    -0.001811    -0.000208     1.323878
	    6 R(6,7)          =      1.177416     0.000420     0.000019     1.177435
	    7 R(6,8)          =      1.090540    -0.000194    -0.000049     1.090491
	    8 B(1,2,3)        =    106.450202    -0.000003    -0.012547   106.437654
	    9 B(1,2,4)        =    109.379379     0.000003     0.013777   109.393156
	   10 B(1,2,5)        =    109.233007     0.000000    -0.001732   109.231275
	   11 B(2,3,6)        =    117.774798     0.000016     0.065412   117.840210
	   12 B(3,2,4)        =    110.810391    -0.000006    -0.037565   110.772826
	   13 B(3,2,5)        =    111.217825     0.000006     0.033530   111.251355
	   14 B(3,6,7)        =    123.231478     0.000004     0.009698   123.241176
	   15 B(3,6,8)        =    113.749358    -0.000003    -0.014599   113.734759
	   16 B(4,2,5)        =    109.677047     0.000001     0.004409   109.681456
	   17 B(7,6,8)        =    123.019133    -0.000000     0.004924   123.024057
	   18 D(1,2,3,6)      =    171.524579     0.000000    -0.353598   171.170982
	   19 *D(2,3,6,7)     =    170.000015     0.000000     0.000000   170.000015
	   20 D(2,3,6,8)      =    -10.062776     0.000001     0.029862   -10.032914
	   21 D(4,2,3,6)      =    -69.636152    -0.000000    -0.365038   -70.001190
	   22 D(5,2,3,6)      =     52.637861    -0.000000    -0.362389    52.275472
	 ---------------------------------------------------------------------------

  ==> Convergence Check <==

  Measures of convergence in internal coordinates in au.
  Criteria marked as inactive (o), active & met (*), and active & unmet ( ).
  ---------------------------------------------------------------------------------------------
   Step     Total Energy     Delta E     MAX Force     RMS Force      MAX Disp      RMS Disp   
  ---------------------------------------------------------------------------------------------
    Convergence Criteria    1.00e-06 *    3.00e-04 *             o    1.20e-03 *             o
  ---------------------------------------------------------------------------------------------
      4    -227.77884345   -4.82e-06      2.20e-04 *    8.14e-05 o    6.37e-03      2.35e-03 o  ~
  ---------------------------------------------------------------------------------------------

	Writing optimization data to binary file.
	Structure for next step:
	Cartesian Geometry (in Angstrom)
	    H     2.4570280821  -0.6582552130  -0.0413712839
	    C     1.7344968021   0.1331372024  -0.1589636749
	    O     0.4642711361  -0.4571683642   0.0123213429
	    H     1.8285271777   0.5617650055  -1.1492138533
	    H     1.9167763326   0.8969616833   0.5882817250
	    C    -0.5852402176   0.3459723221   0.0906982343
	    O    -1.6971398359  -0.0403015290   0.0619740405
	    H    -0.3247469178   1.4006759940   0.1851067528
			--------------------------
			 OPTKING Finished Execution 
[...]
    Number of shells: 32
    Number of basis function: 68
    Number of Cartesian functions: 68
    Spherical Harmonics?: false
    Max angular momentum: 2

  ==> Pre-Iterations <==

   -------------------------------------------------------
    Irrep   Nso     Nmo     Nalpha   Nbeta   Ndocc  Nsocc
   -------------------------------------------------------
     A         68      68       0       0       0       0
   -------------------------------------------------------
    Total      68      68      16      16      16       0
   -------------------------------------------------------

 OEINTS: Overlap, kinetic, potential, dipole, and quadrupole integrals
         stored in file 35.

  ==> Integral Setup <==

  ==> DFJK: Density-Fitted J/K Matrices <==

    J tasked:                  Yes
    K tasked:                  Yes
    wK tasked:                  No
    OpenMP threads:              4
    Integrals threads:           4
    Memory (MB):              1430
    Algorithm:                Core
    Integral Cache:           NONE
    Schwarz Cutoff:          1E-12
    Fitting Condition:       1E-12

   => Auxiliary Basis Set <=

  Basis Set: 
    Number of shells: 132
    Number of basis function: 424
    Number of Cartesian functions: 424
    Spherical Harmonics?: false
    Max angular momentum: 3

  Minimum eigenvalue in the overlap matrix is 4.9393140896E-03.
  Using Symmetric Orthogonalization.
  SCF Guess: Reading in previously saved MOs, projecting if necessary.

  Using orbitals from previous SCF, no projection.
  Recomputing DOCC and SOCC from number of alpha and beta electrons from previous calculation.
              A 
    DOCC [    16 ]

  ==> Iterations <==

                           Total Energy        Delta E     RMS |[F,P]|

   @DF-RHF iter   0:  -227.77908945233477   -2.27779e+02   8.01234e-05 
   @DF-RHF iter   1:  -227.77884246511260    2.46987e-04   1.38401e-05 
   @DF-RHF iter   2:  -227.77884347362644   -1.00851e-06   5.53280e-06 DIIS
   @DF-RHF iter   3:  -227.77884372434002   -2.50714e-07   2.13645e-06 DIIS
   @DF-RHF iter   4:  -227.77884375066341   -2.63234e-08   1.16734e-06 DIIS
   @DF-RHF iter   5:  -227.77884376583845   -1.51750e-08   4.28383e-07 DIIS
   @DF-RHF iter   6:  -227.77884376789390   -2.05546e-09   1.20643e-07 DIIS
   @DF-RHF iter   7:  -227.77884376801805   -1.24146e-10   3.80588e-08 DIIS
   @DF-RHF iter   8:  -227.77884376802794   -9.89075e-12   1.60268e-08 DIIS
   @DF-RHF iter   9:  -227.77884376802970   -1.76215e-12   5.36436e-09 DIIS

  ==> Post-Iterations <==

    Orbital Energies (a.u.)
    -----------------------

    Doubly Occupied:                                                      

       1A    -20.616581     2A    -20.558074     3A    -11.382251  
       4A    -11.304705     5A     -1.476764     6A     -1.382848  
       7A     -0.993757     8A     -0.849169     9A     -0.738382  
      10A     -0.686304    11A     -0.681273    12A     -0.606334  
      13A     -0.571154    14A     -0.540305    15A     -0.461292  
      16A     -0.453667  

    Virtual:                                                              

      17A      0.182187    18A      0.230362    19A      0.279572  
      20A      0.298526    21A      0.301742    22A      0.319077  
      23A      0.450524    24A      0.520564    25A      0.688026  
      26A      0.734549    27A      0.744791    28A      0.780039  
      29A      0.828347    30A      0.952133    31A      0.993543  
      32A      1.083767    33A      1.106398    34A      1.117097  
      35A      1.122549    36A      1.192430    37A      1.203853  
      38A      1.277247    39A      1.307124    40A      1.342119  
      41A      1.414118    42A      1.496261    43A      1.647215  
      44A      1.699143    45A      1.742494    46A      1.854130  
      47A      1.866751    48A      1.960879    49A      2.097738  
      50A      2.148413    51A      2.218005    52A      2.322819  
      53A      2.363917    54A      2.439550    55A      2.496777  
      56A      2.543959    57A      2.603470    58A      2.808332  
      59A      2.924653    60A      2.986911    61A      3.019337  
      62A      3.190830    63A      3.356499    64A      3.503772  
      65A      4.269170    66A      4.364662    67A      4.658108  
      68A      4.677785  

    Final Occupation by Irrep:
              A 
    DOCC [    16 ]

  Energy converged.

  @DF-RHF Final Energy:  -227.77884376802970

   => Energetics <=

    Nuclear Repulsion Energy =            121.1954709746622996
    One-Electron Energy =                -551.3429077686452047
    Two-Electron Energy =                 202.3685930259531460
    DFT Exchange-Correlation Energy =       0.0000000000000000
    Empirical Dispersion Energy =           0.0000000000000000
    PCM Polarization Energy =               0.0000000000000000
    EFP Energy =                            0.0000000000000000
    Total Energy =                       -227.7788437680297875

    Alert: EFP and PCM quantities not currently incorporated into SCF psivars.

Properties will be evaluated at   0.000000,   0.000000,   0.000000 Bohr
  ==> Properties <==


Properties computed using the SCF density matrix

  Nuclear Dipole Moment: (a.u.)
     X:     5.5044      Y:     2.0604      Z:    -0.3875

  Electronic Dipole Moment: (a.u.)
     X:    -3.9316      Y:    -1.1930      Z:     0.3398

  Dipole Moment: (a.u.)
     X:     1.5728      Y:     0.8675      Z:    -0.0477     Total:     1.7968

  Dipole Moment: (Debye)
     X:     3.9977      Y:     2.2049      Z:    -0.1213     Total:     4.5670


  Saving occupied orbitals to File 180.

*** tstop() called on cx1-5-5-2.cx1.hpc.ic.ac.uk at Fri Sep  2 12:01:17 2016
Module time:
	user time   =       5.01 seconds =       0.08 minutes
	system time =       0.09 seconds =       0.00 minutes
	total time  =          2 seconds =       0.03 minutes
Total time:
	user time   =      54.66 seconds =       0.91 minutes
	system time =       1.07 seconds =       0.02 minutes
	total time  =         20 seconds =       0.33 minutes

*** tstart() called on cx1-5-5-2.cx1.hpc.ic.ac.uk
*** at Fri Sep  2 12:01:17 2016


         ------------------------------------------------------------
                                   SCF GRAD                          
                          Rob Parrish, Justin Turney,                
                       Andy Simmonett, and Alex Sokolov              
         ------------------------------------------------------------

  ==> Geometry <==

    Molecular point group: c1
    Full point group: C1

    Geometry (in Angstrom), charge = 0, multiplicity = 1:

       Center              X                  Y                   Z               Mass       
    ------------   -----------------  -----------------  -----------------  -----------------
           H          2.457110758885    -0.658433389076    -0.040516611646     1.007825032070
           C          1.734579534024     0.132958965941    -0.158108993627    12.000000000000
           O          0.464353964981    -0.457346555630     0.013176011101    15.994914619560
           H          1.828609902446     0.561586736275    -1.148359096452     1.007825032070
           H          1.916859050613     0.896783388492     0.589136349214     1.007825032070
           C         -0.585157308562     0.345794069337     0.091552896495    12.000000000000
           O         -1.697056841900    -0.040479752224     0.062828704857    15.994914619560
           H         -0.324664028602     1.400497660745     0.185961407758     1.007825032070

  Nuclear repulsion =  121.195470974662300

  ==> Basis Set <==

  Basis Set: 6-31G*
    Number of shells: 32
    Number of basis function: 68
    Number of Cartesian functions: 68
    Spherical Harmonics?: false
    Max angular momentum: 2

  ==> DFJKGrad: Density-Fitted SCF Gradients <==

    Gradient:                    1
    J tasked:                  Yes
    K tasked:                  Yes
    wK tasked:                  No
    OpenMP threads:              4
    Integrals threads:           4
    Memory (MB):              1430
    Schwarz Cutoff:          0E+00
    Fitting Condition:       1E-12

   => Auxiliary Basis Set <=

  Basis Set: 
    Number of shells: 132
    Number of basis function: 424
    Number of Cartesian functions: 424
    Spherical Harmonics?: false
    Max angular momentum: 3


  -Total Gradient:
     Atom            X                  Y                   Z
    ------   -----------------  -----------------  -----------------
       1       -0.000012215878    -0.000009689296     0.000007302367
       2       -0.000093436614    -0.000005855506    -0.001173703491
       3        0.000246355099     0.000096867802     0.001033922749
       4       -0.000022934776    -0.000007020465    -0.000013926088
       5        0.000010935735    -0.000014138562    -0.000009764472
       6       -0.000159030244    -0.000179736889     0.001708078753
       7        0.000021571287     0.000146570175    -0.001542809526
       8        0.000008755393    -0.000026997258    -0.000009100291


*** tstop() called on cx1-5-5-2.cx1.hpc.ic.ac.uk at Fri Sep  2 12:01:18 2016
Module time:
	user time   =       6.24 seconds =       0.10 minutes
	system time =       0.11 seconds =       0.00 minutes
	total time  =          1 seconds =       0.02 minutes
Total time:
	user time   =      60.93 seconds =       1.02 minutes
	system time =       1.18 seconds =       0.02 minutes
	total time  =         21 seconds =       0.35 minutes
CURRENT ENERGY: -227.7788437680

			-----------------------------------------
			 OPTKING 2.0: for geometry optimizations 
			  - R.A. King,  Bethel University        
			-----------------------------------------

	Previous internal coordinate definitions found.
	---Fragment 1 Geometry and Gradient---
	 H           4.6432664125       -1.2442587821       -0.0765652998
	 C           3.2778802750        0.2512560325       -0.2987826971
	 O           0.8775018225       -0.8642597380        0.0248990525
	 H           3.4555719195        1.0612451314       -2.1700841945
	 H           3.6223386410        1.6946750048        1.1133063549
	 C          -1.1057870578        0.6534560894        0.1730099010
	 O          -3.2069726631       -0.0764956456        0.1187290455
	 H          -0.6135260993        2.6465570286        0.3514161319
	            -0.0000122159       -0.0000096893        0.0000073024
	            -0.0000934366       -0.0000058555       -0.0011737035
	             0.0002463551        0.0000968678        0.0010339227
	            -0.0000229348       -0.0000070205       -0.0000139261
	             0.0000109357       -0.0000141386       -0.0000097645
	            -0.0001590302       -0.0001797369        0.0017080788
	             0.0000215713        0.0001465702       -0.0015428095
	             0.0000087554       -0.0000269973       -0.0000091003

	---Fragment 1 Intrafragment Coordinates---
	 - Coordinate -           - BOHR/RAD -       - ANG/DEG -
	 R(1,2)           =         2.037210	       1.078045
	 R(2,3)           =         2.666639	       1.411125
	 R(2,4)           =         2.046809	       1.083125
	 R(2,5)           =         2.048440	       1.083988
	 R(3,6)           =         2.501766	       1.323878
	 R(6,7)           =         2.225030	       1.177435
	 R(6,8)           =         2.060728	       1.090491
	 B(1,2,3)         =         1.857688	     106.437654
	 B(1,2,4)         =         1.909271	     109.393156
	 B(1,2,5)         =         1.906445	     109.231275
	 B(2,3,6)         =         2.056700	     117.840210
	 B(3,2,4)         =         1.933351	     110.772826
	 B(3,2,5)         =         1.941702	     111.251355
	 B(3,6,7)         =         2.150964	     123.241176
	 B(3,6,8)         =         1.985046	     113.734759
	 B(4,2,5)         =         1.914303	     109.681456
	 B(7,6,8)         =         2.147175	     123.024057
	 D(1,2,3,6)       =         2.987497	     171.170982
	*D(2,3,6,7)       =         2.967060	     170.000015
	 D(2,3,6,8)       =        -0.175107	     -10.032914
	 D(4,2,3,6)       =        -1.221751	     -70.001190
	 D(5,2,3,6)       =         0.912379	      52.275472

	Current energy   :      -227.7788437680

	Energy change for the previous step:
		Projected    :        -0.0000001554
		Actual       :        -0.0000003136
	Energy ratio indicates good step: Trust radius increased to 3.750e-01.


	Performing BFGS update.
	Previous computed or guess Hessian on step 1.
	Steps to be used in Hessian update: 4 3
	Taking RFO optimization step.
	Going to follow RFO solution 1.
	Using RFO vector 1.
	Norm of target step-size    0.00058
	Projected energy change by RFO approximation:        -0.0000000613

	Back-transformation to cartesian coordinates...
	Successfully converged to displaced geometry.

	Back-transformation to cartesian coordinates to adjust frozen coordinates...
	Successfully converged to displaced geometry.

	--- Internal Coordinate Step in ANG or DEG, aJ/ANG or AJ/DEG ---
	 ---------------------------------------------------------------------------
	   Coordinate                Previous        Force       Change         New 
	   ----------                --------       ------       ------       ------
	    1 R(1,2)          =      1.078045     0.000002    -0.000000     1.078045
	    2 R(2,3)          =      1.411125    -0.000191    -0.000042     1.411082
	    3 R(2,4)          =      1.083125    -0.000066    -0.000014     1.083110
	    4 R(2,5)          =      1.083988     0.000122     0.000025     1.084013
	    5 R(3,6)          =      1.323878    -0.000616    -0.000073     1.323804
	    6 R(6,7)          =      1.177435     0.000254     0.000016     1.177451
	    7 R(6,8)          =      1.090491     0.000204     0.000035     1.090526
	    8 B(1,2,3)        =    106.437654     0.000002     0.008149   106.445804
	    9 B(1,2,4)        =    109.393156    -0.000001    -0.003827   109.389329
	   10 B(1,2,5)        =    109.231275     0.000000     0.000709   109.231984
	   11 B(2,3,6)        =    117.840210    -0.000000     0.001655   117.841865
	   12 B(3,2,4)        =    110.772826     0.000003     0.010900   110.783726
	   13 B(3,2,5)        =    111.251355    -0.000002    -0.009256   111.242099
	   14 B(3,6,7)        =    123.241176    -0.000000     0.000086   123.241262
	   15 B(3,6,8)        =    113.734759     0.000001     0.004763   113.739522
	   16 B(4,2,5)        =    109.681456    -0.000001    -0.006338   109.675118
	   17 B(7,6,8)        =    123.024057    -0.000001    -0.004853   123.019204
	   18 D(1,2,3,6)      =    171.170982    -0.000000    -0.015570   171.155412
	   19 *D(2,3,6,7)     =    170.000015     0.000000     0.000000   170.000015
	   20 D(2,3,6,8)      =    -10.032914    -0.000000    -0.006451   -10.039366
	   21 D(4,2,3,6)      =    -70.001190     0.000000    -0.009363   -70.010554
	   22 D(5,2,3,6)      =     52.275472    -0.000000    -0.016265    52.259206
	 ---------------------------------------------------------------------------

  ==> Convergence Check <==

  Measures of convergence in internal coordinates in au.
  Criteria marked as inactive (o), active & met (*), and active & unmet ( ).
  ---------------------------------------------------------------------------------------------
   Step     Total Energy     Delta E     MAX Force     RMS Force      MAX Disp      RMS Disp   
  ---------------------------------------------------------------------------------------------
    Convergence Criteria    1.00e-06 *    3.00e-04 *             o    1.20e-03 *             o
  ---------------------------------------------------------------------------------------------
      5    -227.77884377   -3.14e-07 *    7.48e-05 *    2.37e-05 o    2.84e-04 *    1.25e-04 o  ~
  ---------------------------------------------------------------------------------------------


  **** Optimization is complete! (in 5 steps) ****

  ==> Optimization Summary <==

  Measures of convergence in internal coordinates in au.
  --------------------------------------------------------------------------------------------------------------- ~
   Step         Total Energy             Delta E       MAX Force       RMS Force        MAX Disp        RMS Disp  ~
  --------------------------------------------------------------------------------------------------------------- ~
      1    -227.778797557439   -227.778797557439      0.00038229      0.00018036      0.05633075      0.02110541  ~
      2    -227.778804613023     -0.000007055584      0.00209125      0.00045378      0.07148613      0.02665002  ~
      3    -227.778838633622     -0.000034020599      0.00096293      0.00028439      0.02311592      0.00825089  ~
      4    -227.778843454423     -0.000004820801      0.00021978      0.00008142      0.00637111      0.00235112  ~
      5    -227.778843768030     -0.000000313606      0.00007478      0.00002369      0.00028389      0.00012468  ~
  --------------------------------------------------------------------------------------------------------------- ~

	Writing optimization data to binary file.
	Final energy is   -227.7788437680297
	Final (previous) structure:
	Cartesian Geometry (in Angstrom)
	    H     2.4571109465  -0.6584334394  -0.0405166147
	    C     1.7345796665   0.1329589761  -0.1581090057
	    O     0.4643540004  -0.4573465906   0.0131760121
	    H     1.8286100421   0.5615867792  -1.1483591841
	    H     1.9168591970   0.8967834570   0.5891363942
	    C    -0.5851573532   0.3457940957   0.0915529035
	    O    -1.6970569715  -0.0404797553   0.0628287097
	    H    -0.3246640534   1.4004977677   0.1859614220
	Saving final (previous) structure.
			--------------------------
			 OPTKING Finished Execution 
			--------------------------

    Final optimized geometry and variables:
    Molecular point group: c1
    Full point group: C1

    Geometry (in Angstrom), charge = 0, multiplicity = 1:

    H            2.457110758885    -0.658433389076    -0.040516611646
    C            1.734579534024     0.132958965941    -0.158108993627
    O            0.464353964981    -0.457346555630     0.013176011101
    H            1.828609902446     0.561586736275    -1.148359096452
    H            1.916859050613     0.896783388492     0.589136349214
    C           -0.585157308562     0.345794069337     0.091552896495
    O           -1.697056841900    -0.040479752224     0.062828704857
    H           -0.324664028602     1.400497660745     0.185961407758

	Cleaning optimization helper files.


Properties will be evaluated at   0.000000,   0.000000,   0.000000 Bohr

Properties computed using the  density matrix

  Nuclear Dipole Moment: (a.u.)
     X:     5.5044      Y:     2.0604      Z:    -0.3875

  Electronic Dipole Moment: (a.u.)
     X:    -3.9316      Y:    -1.1930      Z:     0.3398

  Dipole Moment: (a.u.)
     X:     1.5728      Y:     0.8675      Z:    -0.0477     Total:     1.7968

  Dipole Moment: (Debye)
     X:     3.9977      Y:     2.2049      Z:    -0.1213     Total:     4.5670

  Quadrupole Moment: (Debye Ang)
    XX:   -25.3315     YY:   -23.1220     ZZ:   -22.7480
    XY:    -0.3396     XZ:    -0.2459     YZ:     0.1030

  Traceless Quadrupole Moment: (Debye Ang)
    XX:    -1.5977     YY:     0.6118     ZZ:     0.9858
    XY:    -0.3396     XZ:    -0.2459     YZ:     0.1030

  Mulliken Charges: (a.u.)
   Center  Symbol    Alpha    Beta     Spin     Total
       1     H     0.39629  0.39629  0.00000  0.20742
       2     C     3.10062  3.10062  0.00000 -0.20124
       3     O     4.27701  4.27701  0.00000 -0.55402
       4     H     0.41133  0.41133  0.00000  0.17735
       5     H     0.41511  0.41511  0.00000  0.16977
       6     C     2.72045  2.72045  0.00000  0.55911
       7     O     4.24725  4.24725  0.00000 -0.49449
       8     H     0.43194  0.43194  0.00000  0.13611

   Total alpha = 16.00000, Total beta = 16.00000, Total charge = -0.00000


*** PSI4 exiting successfully. Buy a developer a beer!
