    -----------------------------------------------------------------------
          Psi4: An Open-Source Ab Initio Electronic Structure Package
                              Psi4 (no tag) Driver

                          Git: Rev {detached?}  

    J. M. Turney, A. C. Simmonett, R. M. Parrish, E. G. Hohenstein,
    F. A. Evangelista, J. T. Fermann, B. J. Mintz, L. A. Burns, J. J. Wilke,
    M. L. Abrams, N. J. Russ, M. L. Leininger, C. L. Janssen, E. T. Seidl,
    W. D. Allen, H. F. Schaefer, R. A. King, E. F. Valeev, C. D. Sherrill,
    and T. D. Crawford, WIREs Comput. Mol. Sci. 2, 556-565 (2012)
    (doi: 10.1002/wcms.93)

                         Additional Contributions by
    A. E. DePrince, M. Saitow, U. Bozkaya, A. Yu. Sokolov
    -----------------------------------------------------------------------


    Psi4 started on: Fri Sep  9 21:29:19 2016

    Process ID:  24173
    PSI4DATADIR: /export131/home/mjharvey/miniconda3/share
    Memory level set to 256.000 MB

  ==> Input File <==

--------------------------------------------------------------------------
set {
	reference rhf
	basis cc-pvtz
}


set_num_threads( 4 )
memory 2 gb

molecule MOL {
0 1

H	 -2.936868	 2.271351	 -0.327168
O	 -2.246329	 1.679911	 -0.562858
C	 -2.302264	 0.528872	 0.237390
C	 -1.175688	 -0.398187	 -0.171891
H	 -2.203055	 0.790948	 1.288697
H	 -3.259113	 0.025768	 0.114279
C	 0.196029	 0.106276	 0.266738
H	 -1.201873	 -0.515469	 -1.250677
H	 -1.365975	 -1.378728	 0.252664
C	 1.330220	 -0.826136	 -0.155230
H	 0.359542	 1.097229	 -0.145561
H	 0.212134	 0.218135	 1.348778
C	 2.719700	 -0.407669	 0.328325
H	 1.339388	 -0.911200	 -1.239363
H	 1.119001	 -1.821953	 0.224128
C	 3.241564	 0.893452	 -0.276737
H	 3.418299	 -1.204729	 0.093035
H	 2.711776	 -0.323368	 1.411960
H	 3.254204	 0.841071	 -1.360784
H	 2.634460	 1.745075	 0.005842
H	 4.254264	 1.092401	 0.054971

	symmetry c1
}
set optking {
	frozen_dihedral = ("
		2 3 4 8
	")
}

ee = optimize('scf')
oeprop('DIPOLE', 'QUADRUPOLE', 'MULLIKEN_CHARGES')
f=open( 'psi4out.xyz', 'w' )
f.write( "21  " )
f.write( str(ee) + "\n" )
f.write( MOL.save_string_xyz() )
f.close()
--------------------------------------------------------------------------

  Memory set to   2.000 GiB by Python script.
gradient() will perform analytic gradient computation.

*** tstart() called on cx1-27-1-3
*** at Fri Sep  9 21:29:19 2016


         ---------------------------------------------------------
                                   SCF
            by Justin Turney, Rob Parrish, and Andy Simmonett
                              RHF Reference
                        4 Threads,   2000 MiB Core
         ---------------------------------------------------------

  ==> Geometry <==

    Molecular point group: c1
    Full point group: C1

    Geometry (in Angstrom), charge = 0, multiplicity = 1:

       Center              X                  Y                   Z               Mass       
    ------------   -----------------  -----------------  -----------------  -----------------
           H         -3.138488040131     2.001324266479    -0.270507984044     1.007825032070
           O         -2.447949040131     1.409884266479    -0.506197984044    15.994914619560
           C         -2.503884040131     0.258845266479     0.294050015956    12.000000000000
           C         -1.377308040131    -0.668213733521    -0.115230984044    12.000000000000
           H         -2.404675040131     0.520921266479     1.345357015956     1.007825032070
           H         -3.460733040131    -0.244258733521     0.170939015956     1.007825032070
           C         -0.005591040131    -0.163750733521     0.323398015956    12.000000000000
           H         -1.403493040131    -0.785495733521    -1.194016984044     1.007825032070
           H         -1.567595040131    -1.648754733521     0.309324015956     1.007825032070
           C          1.128599959869    -1.096162733521    -0.098569984044    12.000000000000
           H          0.157921959869     0.827202266479    -0.088900984044     1.007825032070
           H          0.010513959869    -0.051891733521     1.405438015956     1.007825032070
           C          2.518079959869    -0.677695733521     0.384985015956    12.000000000000
           H          1.137767959869    -1.181226733521    -1.182702984044     1.007825032070
           H          0.917380959869    -2.091979733521     0.280788015956     1.007825032070
           C          3.039943959869     0.623425266479    -0.220076984044    12.000000000000
           H          3.216678959869    -1.474755733521     0.149695015956     1.007825032070
           H          2.510155959869    -0.593394733521     1.468620015956     1.007825032070
           H          3.052583959869     0.571044266479    -1.304123984044     1.007825032070
           H          2.432839959869     1.475048266479     0.062502015956     1.007825032070
           H          4.052643959869     0.822374266479     0.111631015956     1.007825032070

  Running in c1 symmetry.

  Rotational constants: A =      0.18554  B =      0.03318  C =      0.02983 [cm^-1]
  Rotational constants: A =   5562.38300  B =    994.76073  C =    894.21281 [MHz]
  Nuclear repulsion =  317.562609166061520

  Charge       = 0
  Multiplicity = 1
  Electrons    = 58
  Nalpha       = 29
  Nbeta        = 29

  ==> Algorithm <==

  SCF Algorithm Type is DF.
  DIIS enabled.
  MOM disabled.
  Fractional occupation disabled.
  Guess Type is CORE.
  Energy threshold   = 1.00e-08
  Density threshold  = 1.00e-08
  Integral threshold = 0.00e+00

  ==> Primary Basis <==

  Basis Set: CC-PVTZ
    Number of shells: 154
    Number of basis function: 406
    Number of Cartesian functions: 455
    Spherical Harmonics?: true
    Max angular momentum: 3

  ==> Pre-Iterations <==

   -------------------------------------------------------
    Irrep   Nso     Nmo     Nalpha   Nbeta   Ndocc  Nsocc
   -------------------------------------------------------
     A        406     406       0       0       0       0
   -------------------------------------------------------
    Total     406     406      29      29      29       0
   -------------------------------------------------------

 OEINTS: Overlap, kinetic, potential, dipole, and quadrupole integrals
         stored in file 35.

  ==> Integral Setup <==

  ==> DFJK: Density-Fitted J/K Matrices <==

    J tasked:                  Yes
    K tasked:                  Yes
    wK tasked:                  No
    OpenMP threads:              4
    Integrals threads:           4
    Memory (MB):              1430
    Algorithm:                Core
    Integral Cache:           NONE
    Schwarz Cutoff:          1E-12
    Fitting Condition:       1E-12

   => Auxiliary Basis Set <=

  Basis Set: 
    Number of shells: 315
    Number of basis function: 973
    Number of Cartesian functions: 1162
    Spherical Harmonics?: true
    Max angular momentum: 4

  Minimum eigenvalue in the overlap matrix is 3.1042878000E-04.
  Using Symmetric Orthogonalization.
  SCF Guess: Core (One-Electron) Hamiltonian.

  ==> Iterations <==

                           Total Energy        Delta E     RMS |[F,P]|

   @DF-RHF iter   1:  -214.08727439072254   -2.14087e+02   3.62337e-02 
   @DF-RHF iter   2:   -76.88181610094534    1.37205e+02   3.67928e-02 DIIS
   @DF-RHF iter   3:  -204.72331914392362   -1.27842e+02   2.35206e-02 DIIS
   @DF-RHF iter   4:  -186.99037379704851    1.77329e+01   2.74955e-02 DIIS
   @DF-RHF iter   5:  -297.73055243864530   -1.10740e+02   1.05947e-02 DIIS
   @DF-RHF iter   6:  -293.54609197061234    4.18446e+00   1.04725e-02 DIIS
   @DF-RHF iter   7:  -309.83267395948849   -1.62866e+01   2.31550e-03 DIIS
   @DF-RHF iter   8:  -310.28562611107145   -4.52952e-01   7.53811e-04 DIIS
   @DF-RHF iter   9:  -310.32235720475830   -3.67311e-02   2.98722e-04 DIIS
   @DF-RHF iter  10:  -310.33187662176886   -9.51942e-03   7.85636e-05 DIIS
   @DF-RHF iter  11:  -310.33260073299891   -7.24111e-04   2.19906e-05 DIIS
   @DF-RHF iter  12:  -310.33266347794938   -6.27450e-05   6.43180e-06 DIIS
   @DF-RHF iter  13:  -310.33266953814859   -6.06020e-06   1.89568e-06 DIIS
   @DF-RHF iter  14:  -310.33267015332240   -6.15174e-07   3.50827e-07 DIIS
   @DF-RHF iter  15:  -310.33267017542073   -2.20983e-08   9.61297e-08 DIIS
   @DF-RHF iter  16:  -310.33267017681601   -1.39528e-09   2.91956e-08 DIIS
   @DF-RHF iter  17:  -310.33267017695709   -1.41085e-10   7.08116e-09 DIIS

  ==> Post-Iterations <==

    Orbital Energies (a.u.)
    -----------------------

    Doubly Occupied:                                                      

       1A    -20.546265     2A    -11.265316     3A    -11.209677  
       4A    -11.209473     5A    -11.206936     6A    -11.205212  
       7A    -11.201789     8A     -1.364503     9A     -1.082822  
      10A     -1.031595    11A     -0.953968    12A     -0.875229  
      13A     -0.803316    14A     -0.774166    15A     -0.709258  
      16A     -0.640319    17A     -0.628818    18A     -0.600868  
      19A     -0.590367    20A     -0.563504    21A     -0.541414  
      22A     -0.518695    23A     -0.503110    24A     -0.496873  
      25A     -0.476760    26A     -0.456386    27A     -0.455994  
      28A     -0.442424    29A     -0.428697  

    Virtual:                                                              

      30A      0.141966    31A      0.149742    32A      0.166541  
      33A      0.170946    34A      0.182934    35A      0.194826  
      36A      0.207999    37A      0.215384    38A      0.227000  
      39A      0.236414    40A      0.255822    41A      0.269415  
      42A      0.270138    43A      0.270920    44A      0.309096  
      45A      0.337856    46A      0.346117    47A      0.347699  
      48A      0.362919    49A      0.388541    50A      0.405132  
      51A      0.422078    52A      0.431914    53A      0.457620  
      54A      0.462108    55A      0.480832    56A      0.484176  
      57A      0.523376    58A      0.546630    59A      0.552378  
      60A      0.566118    61A      0.575626    62A      0.591276  
      63A      0.594295    64A      0.601318    65A      0.618004  
      66A      0.627414    67A      0.636737    68A      0.643333  
      69A      0.652807    70A      0.658122    71A      0.664716  
      72A      0.670345    73A      0.678087    74A      0.684417  
      75A      0.688704    76A      0.696588    77A      0.704488  
      78A      0.717388    79A      0.731202    80A      0.742128  
      81A      0.761746    82A      0.771100    83A      0.790454  
      84A      0.815238    85A      0.837836    86A      0.846902  
      87A      0.863635    88A      0.886563    89A      0.909372  
      90A      0.920252    91A      0.938965    92A      0.952180  
      93A      0.965529    94A      0.990032    95A      1.004545  
      96A      1.017786    97A      1.036520    98A      1.047581  
      99A      1.064529   100A      1.089763   101A      1.113356  
     102A      1.129137   103A      1.137921   104A      1.173628  
     105A      1.184925   106A      1.208633   107A      1.216613  
     108A      1.233306   109A      1.242152   110A      1.260407  
     111A      1.263901   112A      1.276519   113A      1.297976  
     114A      1.303046   115A      1.314017   116A      1.324899  
     117A      1.333684   118A      1.349949   119A      1.365623  
     120A      1.371297   121A      1.385006   122A      1.390959  
     123A      1.400877   124A      1.407272   125A      1.418259  
     126A      1.423852   127A      1.442692   128A      1.458625  
     129A      1.471645   130A      1.474687   131A      1.482171  
     132A      1.494261   133A      1.506177   134A      1.517751  
     135A      1.520673   136A      1.530219   137A      1.551734  
     138A      1.556540   139A      1.574046   140A      1.590921  
     141A      1.619088   142A      1.627826   143A      1.641377  
     144A      1.673075   145A      1.685359   146A      1.686584  
     147A      1.704156   148A      1.715704   149A      1.735110  
     150A      1.746700   151A      1.766733   152A      1.799541  
     153A      1.810724   154A      1.829227   155A      1.838719  
     156A      1.844095   157A      1.867682   158A      1.872947  
     159A      1.931507   160A      1.971451   161A      1.993905  
     162A      2.038198   163A      2.073967   164A      2.145891  
     165A      2.290750   166A      2.322878   167A      2.383358  
     168A      2.410360   169A      2.525722   170A      2.574837  
     171A      2.581848   172A      2.640819   173A      2.657876  
     174A      2.681726   175A      2.705044   176A      2.717541  
     177A      2.732770   178A      2.736009   179A      2.748904  
     180A      2.777234   181A      2.787459   182A      2.791747  
     183A      2.815370   184A      2.839005   185A      2.859545  
     186A      2.864342   187A      2.888410   188A      2.905453  
     189A      2.931884   190A      2.934055   191A      2.953185  
     192A      2.983690   193A      2.993676   194A      3.003806  
     195A      3.025980   196A      3.042667   197A      3.056503  
     198A      3.061803   199A      3.089693   200A      3.118117  
     201A      3.144680   202A      3.151458   203A      3.163489  
     204A      3.179763   205A      3.207658   206A      3.232883  
     207A      3.246955   208A      3.253452   209A      3.268574  
     210A      3.273018   211A      3.298045   212A      3.308947  
     213A      3.321339   214A      3.329212   215A      3.335968  
     216A      3.362558   217A      3.363975   218A      3.383374  
     219A      3.394761   220A      3.407760   221A      3.417562  
     222A      3.427184   223A      3.439848   224A      3.440804  
     225A      3.447341   226A      3.459540   227A      3.463358  
     228A      3.478941   229A      3.493429   230A      3.495245  
     231A      3.506660   232A      3.517365   233A      3.531112  
     234A      3.547584   235A      3.553358   236A      3.562230  
     237A      3.579989   238A      3.588012   239A      3.614970  
     240A      3.620441   241A      3.649384   242A      3.671663  
     243A      3.686867   244A      3.706204   245A      3.722457  
     246A      3.749534   247A      3.759280   248A      3.764038  
     249A      3.774028   250A      3.792751   251A      3.827504  
     252A      3.839033   253A      3.848215   254A      3.859224  
     255A      3.863713   256A      3.869677   257A      3.884123  
     258A      3.907238   259A      3.920665   260A      3.925482  
     261A      3.947303   262A      3.962548   263A      3.974532  
     264A      3.987942   265A      4.017016   266A      4.026099  
     267A      4.041293   268A      4.065254   269A      4.092826  
     270A      4.114824   271A      4.127944   272A      4.135226  
     273A      4.142055   274A      4.144057   275A      4.154031  
     276A      4.159391   277A      4.172834   278A      4.179635  
     279A      4.188860   280A      4.214037   281A      4.223497  
     282A      4.236735   283A      4.251887   284A      4.267389  
     285A      4.273337   286A      4.288213   287A      4.294799  
     288A      4.303011   289A      4.315588   290A      4.342947  
     291A      4.349774   292A      4.372823   293A      4.380512  
     294A      4.387309   295A      4.414654   296A      4.426191  
     297A      4.436035   298A      4.441290   299A      4.463872  
     300A      4.476187   301A      4.483473   302A      4.496071  
     303A      4.506112   304A      4.521120   305A      4.531406  
     306A      4.541685   307A      4.559667   308A      4.564259  
     309A      4.589047   310A      4.599276   311A      4.628365  
     312A      4.632080   313A      4.661661   314A      4.675109  
     315A      4.683659   316A      4.699239   317A      4.711989  
     318A      4.734134   319A      4.755789   320A      4.764468  
     321A      4.778151   322A      4.801953   323A      4.818416  
     324A      4.836136   325A      4.863153   326A      4.882184  
     327A      4.943670   328A      4.963931   329A      4.984221  
     330A      5.033700   331A      5.037163   332A      5.065864  
     333A      5.089527   334A      5.113180   335A      5.119605  
     336A      5.129793   337A      5.144473   338A      5.165045  
     339A      5.192402   340A      5.226650   341A      5.239902  
     342A      5.252448   343A      5.262251   344A      5.271565  
     345A      5.302635   346A      5.321180   347A      5.349056  
     348A      5.368732   349A      5.393770   350A      5.397360  
     351A      5.408338   352A      5.427850   353A      5.457990  
     354A      5.498351   355A      5.522384   356A      5.534164  
     357A      5.547583   358A      5.576051   359A      5.627423  
     360A      5.637387   361A      5.647729   362A      5.734500  
     363A      5.755546   364A      5.762069   365A      5.786946  
     366A      5.796553   367A      5.815251   368A      5.824988  
     369A      5.853253   370A      5.861932   371A      5.887905  
     372A      5.895425   373A      5.924311   374A      5.946145  
     375A      5.953497   376A      5.967891   377A      5.991854  
     378A      6.022867   379A      6.062927   380A      6.085194  
     381A      6.127435   382A      6.257360   383A      6.313922  
     384A      6.343223   385A      6.353745   386A      6.392353  
     387A      6.429426   388A      6.460343   389A      6.489475  
     390A      6.522150   391A      6.688207   392A      7.083737  
     393A      7.174345   394A      7.245888   395A      7.296339  
     396A      7.443911   397A      7.548405   398A      7.752710  
     399A      8.053447   400A     12.741460   401A     13.137299  
     402A     13.353647   403A     13.585873   404A     13.775285  
     405A     13.975259   406A     14.270107  

    Final Occupation by Irrep:
              A 
    DOCC [    29 ]

  Energy converged.

  @DF-RHF Final Energy:  -310.33267017695709

   => Energetics <=

    Nuclear Repulsion Energy =            317.5626091660615202
    One-Electron Energy =               -1050.2230516217223339
    Two-Electron Energy =                 422.3277722787040602
    DFT Exchange-Correlation Energy =       0.0000000000000000
    Empirical Dispersion Energy =           0.0000000000000000
    PCM Polarization Energy =               0.0000000000000000
    EFP Energy =                            0.0000000000000000
    Total Energy =                       -310.3326701769567535

    Alert: EFP and PCM quantities not currently incorporated into SCF psivars.

Properties will be evaluated at   0.000000,   0.000000,   0.000000 Bohr
  ==> Properties <==


Properties computed using the SCF density matrix

  Nuclear Dipole Moment: (a.u.)
     X:     5.1570      Y:    -1.7311      Z:     1.1826

  Electronic Dipole Moment: (a.u.)
     X:    -5.5880      Y:     1.6495      Z:    -0.7555

  Dipole Moment: (a.u.)
     X:    -0.4310      Y:    -0.0816      Z:     0.4270     Total:     0.6122

  Dipole Moment: (Debye)
     X:    -1.0955      Y:    -0.2074      Z:     1.0854     Total:     1.5560


  Saving occupied orbitals to File 180.

*** tstop() called on cx1-27-1-3 at Fri Sep  9 21:29:43 2016
Module time:
	user time   =      79.85 seconds =       1.33 minutes
	system time =       1.18 seconds =       0.02 minutes
	total time  =         24 seconds =       0.40 minutes
Total time:
	user time   =      79.85 seconds =       1.33 minutes
	system time =       1.18 seconds =       0.02 minutes
	total time  =         24 seconds =       0.40 minutes

*** tstart() called on cx1-27-1-3
*** at Fri Sep  9 21:29:43 2016


         ------------------------------------------------------------
                                   SCF GRAD                          
                          Rob Parrish, Justin Turney,                
                       Andy Simmonett, and Alex Sokolov              
         ------------------------------------------------------------

  ==> Geometry <==

    Molecular point group: c1
    Full point group: C1

    Geometry (in Angstrom), charge = 0, multiplicity = 1:

       Center              X                  Y                   Z               Mass       
    ------------   -----------------  -----------------  -----------------  -----------------
           H         -3.138488040131     2.001324266479    -0.270507984044     1.007825032070
           O         -2.447949040131     1.409884266479    -0.506197984044    15.994914619560
           C         -2.503884040131     0.258845266479     0.294050015956    12.000000000000
           C         -1.377308040131    -0.668213733521    -0.115230984044    12.000000000000
           H         -2.404675040131     0.520921266479     1.345357015956     1.007825032070
           H         -3.460733040131    -0.244258733521     0.170939015956     1.007825032070
           C         -0.005591040131    -0.163750733521     0.323398015956    12.000000000000
           H         -1.403493040131    -0.785495733521    -1.194016984044     1.007825032070
           H         -1.567595040131    -1.648754733521     0.309324015956     1.007825032070
           C          1.128599959869    -1.096162733521    -0.098569984044    12.000000000000
           H          0.157921959869     0.827202266479    -0.088900984044     1.007825032070
           H          0.010513959869    -0.051891733521     1.405438015956     1.007825032070
           C          2.518079959869    -0.677695733521     0.384985015956    12.000000000000
           H          1.137767959869    -1.181226733521    -1.182702984044     1.007825032070
           H          0.917380959869    -2.091979733521     0.280788015956     1.007825032070
           C          3.039943959869     0.623425266479    -0.220076984044    12.000000000000
           H          3.216678959869    -1.474755733521     0.149695015956     1.007825032070
           H          2.510155959869    -0.593394733521     1.468620015956     1.007825032070
           H          3.052583959869     0.571044266479    -1.304123984044     1.007825032070
           H          2.432839959869     1.475048266479     0.062502015956     1.007825032070
           H          4.052643959869     0.822374266479     0.111631015956     1.007825032070

  Nuclear repulsion =  317.562609166061520

  ==> Basis Set <==

  Basis Set: CC-PVTZ
    Number of shells: 154
    Number of basis function: 406
    Number of Cartesian functions: 455
    Spherical Harmonics?: true
    Max angular momentum: 3

  ==> DFJKGrad: Density-Fitted SCF Gradients <==

    Gradient:                    1
    J tasked:                  Yes
    K tasked:                  Yes
    wK tasked:                  No
    OpenMP threads:              4
    Integrals threads:           4
    Memory (MB):              1430
    Schwarz Cutoff:          0E+00
    Fitting Condition:       1E-12

   => Auxiliary Basis Set <=

  Basis Set: 
    Number of shells: 315
    Number of basis function: 973
    Number of Cartesian functions: 1162
    Spherical Harmonics?: true
    Max angular momentum: 4


  -Total Gradient:
     Atom            X                  Y                   Z
    ------   -----------------  -----------------  -----------------
       1       -0.000304710228    -0.000260443668    -0.000039951249
       2        0.000727567462    -0.001547982097    -0.000143353030
       3        0.001861866264     0.001364643252     0.001052387209
       4       -0.000685836926    -0.001066609502    -0.001558183463
       5        0.000363955203     0.000262735311    -0.000135480661
       6       -0.000411816759    -0.000678625211     0.000781985632
       7       -0.003470935842    -0.001116487248     0.002374462622
       8        0.000396106212    -0.000254208746    -0.000126078802
       9       -0.000712789237     0.000591619266    -0.001401850260
      10        0.000403348762    -0.000203538910    -0.000228233455
      11        0.001507930549     0.001624917551    -0.000494406545
      12        0.000689945469     0.000589787746    -0.000157598468
      13       -0.000016875735     0.000087944501     0.000125918195
      14       -0.000099508899    -0.000054736165     0.000093828836
      15       -0.000248656321     0.000583861672    -0.000072269189
      16        0.000130790640    -0.000181046143    -0.000046507006
      17       -0.000138876269     0.000047366280    -0.000018723253
      18        0.000022373099    -0.000025306829    -0.000043066494
      19        0.000064966260    -0.000015256693    -0.000064719845
      20        0.000030975139     0.000177074671     0.000138464961
      21       -0.000109818847     0.000074290961    -0.000036625737


*** tstop() called on cx1-27-1-3 at Fri Sep  9 21:30:22 2016
Module time:
	user time   =     148.61 seconds =       2.48 minutes
	system time =       0.84 seconds =       0.01 minutes
	total time  =         39 seconds =       0.65 minutes
Total time:
	user time   =     228.50 seconds =       3.81 minutes
	system time =       2.02 seconds =       0.03 minutes
	total time  =         63 seconds =       1.05 minutes
CURRENT ENERGY: -310.3326701770

			-----------------------------------------
			 OPTKING 2.0: for geometry optimizations 
			  - R.A. King,  Bethel University        
			-----------------------------------------

	Internal coordinates to be generated automatically.
	Detected frag with atoms:  1 2 3 4 5 6 7 8 9 10 11 12 13 14 15 16 17 18 19 20
	 21
	---Fragment 1 Bond Connectivity---
	 1 : 2
	 2 : 1 3
	 3 : 2 4 5 6
	 4 : 3 7 8 9
	 5 : 3
	 6 : 3
	 7 : 4 10 11 12
	 8 : 4
	 9 : 4
	 10 : 7 13 14 15
	 11 : 7
	 12 : 7
	 13 : 10 16 17 18
	 14 : 10
	 15 : 10
	 16 : 13 19 20 21
	 17 : 13
	 18 : 13
	 19 : 16
	 20 : 16
	 21 : 16

	Assuming in current code that numbering for constraints corresponds to unified fragment.
	Frozen dihedral atom list: 
	     2     3     4     8
	---Fragment 1 Geometry and Gradient---
	 H          -5.9308828672        3.7819547667       -0.5111860066
	 O          -4.6259532731        2.6642951427       -0.9565755589
	 C          -4.7316551044        0.4891466644        0.5556739995
	 C          -2.6027349965       -1.2627409546       -0.2177550019
	 H          -4.5441772644        0.9843985304        2.5423563111
	 H          -6.5398376649       -0.4615821119        0.3230279256
	 C          -0.0105655346       -0.3094440404        0.6111336821
	 H          -2.6522174753       -1.4843718149       -2.2563650979
	 H          -2.9623253131       -3.1156949067        0.5845376765
	 C           2.1327448377       -2.0714473634       -0.1862702748
	 H           0.2984292545        1.5631857401       -0.1679985128
	 H           0.0198685047       -0.0980611649        2.6558929469
	 C           4.7584815049       -1.2806593378        0.7275162454
	 H           2.1500698469       -2.2321950272       -2.2349847364
	 H           1.7335987737       -3.9532687719        0.5306124516
	 C           5.7446615435        1.1781030180       -0.4158852280
	 H           6.0786422916       -2.7868844493        0.2828825836
	 H           4.7435073150       -1.1213535351        2.7752896234
	 H           5.7685476818        1.0791172734       -2.4644371732
	 H           4.5974012493        2.7874372564        0.1181116929
	 H           7.6583871982        1.5540621424        0.2109520481
	            -0.0003047102       -0.0002604437       -0.0000399512
	             0.0007275675       -0.0015479821       -0.0001433530
	             0.0018618663        0.0013646433        0.0010523872
	            -0.0006858369       -0.0010666095       -0.0015581835
	             0.0003639552        0.0002627353       -0.0001354807
	            -0.0004118168       -0.0006786252        0.0007819856
	            -0.0034709358       -0.0011164872        0.0023744626
	             0.0003961062       -0.0002542087       -0.0001260788
	            -0.0007127892        0.0005916193       -0.0014018503
	             0.0004033488       -0.0002035389       -0.0002282335
	             0.0015079305        0.0016249176       -0.0004944065
	             0.0006899455        0.0005897877       -0.0001575985
	            -0.0000168757        0.0000879445        0.0001259182
	            -0.0000995089       -0.0000547362        0.0000938288
	            -0.0002486563        0.0005838617       -0.0000722692
	             0.0001307906       -0.0001810461       -0.0000465070
	            -0.0001388763        0.0000473663       -0.0000187233
	             0.0000223731       -0.0000253068       -0.0000430665
	             0.0000649663       -0.0000152567       -0.0000647198
	             0.0000309751        0.0001770747        0.0001384650
	            -0.0001098188        0.0000742910       -0.0000366257

	Previous optimization step data not found.  Starting new optimization.

	---Fragment 1 Intrafragment Coordinates---
	 - Coordinate -           - BOHR/RAD -       - ANG/DEG -
	 R(1,2)           =         1.774930	       0.939253
	 R(2,3)           =         2.651291	       1.403003
	 R(3,4)           =         2.863495	       1.515296
	 R(3,5)           =         2.056047	       1.088013
	 R(3,6)           =         2.056097	       1.088040
	 R(4,7)           =         2.883604	       1.525938
	 R(4,8)           =         2.051219	       1.085458
	 R(4,9)           =         2.050955	       1.085319
	 R(7,10)          =         2.886917	       1.527691
	 R(7,11)          =         2.051650	       1.085686
	 R(7,12)          =         2.055882	       1.087926
	 R(10,13)         =         2.890475	       1.529574
	 R(10,14)         =         2.055084	       1.087504
	 R(10,15)         =         2.052922	       1.086360
	 R(13,16)         =         2.885382	       1.526879
	 R(13,17)         =         2.051643	       1.085683
	 R(13,18)         =         2.054015	       1.086938
	 R(16,19)         =         2.051081	       1.085385
	 R(16,20)         =         2.047270	       1.083369
	 R(16,21)         =         2.048564	       1.084054
	 B(1,2,3)         =         1.922148	     110.130980
	 B(2,3,4)         =         1.894655	     108.555746
	 B(2,3,5)         =         1.928247	     110.480404
	 B(2,3,6)         =         1.928236	     110.479764
	 B(3,4,7)         =         1.969727	     112.857049
	 B(3,4,8)         =         1.892948	     108.457934
	 B(3,4,9)         =         1.893074	     108.465161
	 B(4,3,5)         =         1.918312	     109.911180
	 B(4,3,6)         =         1.918107	     109.899428
	 B(4,7,10)        =         1.967323	     112.719327
	 B(4,7,11)        =         1.904951	     109.145677
	 B(4,7,12)        =         1.910483	     109.462633
	 B(5,3,6)         =         1.876434	     107.511726
	 B(7,4,8)         =         1.920998	     110.065073
	 B(7,4,9)         =         1.921800	     110.111042
	 B(7,10,13)       =         2.004377	     114.842345
	 B(7,10,14)       =         1.906418	     109.229711
	 B(7,10,15)       =         1.895123	     108.582530
	 B(8,4,9)         =         1.861815	     106.674166
	 B(10,7,11)       =         1.918113	     109.899760
	 B(10,7,12)       =         1.903376	     109.055429
	 B(10,13,16)      =         2.002410	     114.729650
	 B(10,13,17)      =         1.891425	     108.370687
	 B(10,13,18)      =         1.906859	     109.254979
	 B(11,7,12)       =         1.856287	     106.357383
	 B(13,10,14)      =         1.905934	     109.201947
	 B(13,10,15)      =         1.893369	     108.482040
	 B(13,16,19)      =         1.937608	     111.016744
	 B(13,16,20)      =         1.955158	     112.022309
	 B(13,16,21)      =         1.933091	     110.757979
	 B(14,10,15)      =         1.852568	     106.144307
	 B(16,13,17)      =         1.896314	     108.650780
	 B(16,13,18)      =         1.908658	     109.358053
	 B(17,13,18)      =         1.852188	     106.122567
	 B(19,16,20)      =         1.880708	     107.756651
	 B(19,16,21)      =         1.879254	     107.673296
	 B(20,16,21)      =         1.874884	     107.422933
	 D(1,2,3,4)       =         3.141541	     179.997061
	 D(1,2,3,5)       =        -1.036998	     -59.415620
	 D(1,2,3,6)       =         1.037155	      59.424584
	 D(2,3,4,7)       =         1.260528	      72.222922
	*D(2,3,4,8)       =        -0.872664	     -49.999992
	 D(2,3,4,9)       =        -2.888356	    -165.490632
	 D(3,4,7,10)      =        -3.135192	    -179.633268
	 D(3,4,7,11)      =        -0.998731	     -57.223068
	 D(3,4,7,12)      =         1.026407	      58.808771
	 D(4,7,10,13)     =        -3.083852	    -176.691724
	 D(4,7,10,14)     =         1.051739	      60.260211
	 D(4,7,10,15)     =        -0.961289	     -55.077808
	 D(5,3,4,7)       =        -0.850257	     -48.716161
	 D(5,3,4,8)       =        -2.983450	    -170.939075
	 D(5,3,4,9)       =         1.284044	      73.570285
	 D(6,3,4,7)       =        -2.912011	    -166.845927
	 D(6,3,4,8)       =         1.237982	      70.931158
	 D(6,3,4,9)       =        -0.777710	     -44.559482
	 D(7,10,13,16)    =        -1.155372	     -66.197965
	 D(7,10,13,17)    =         3.005538	     172.204654
	 D(7,10,13,18)    =         0.994735	      56.994122
	 D(8,4,7,10)      =        -1.017828	     -58.317241
	 D(8,4,7,11)      =         1.118633	      64.092959
	 D(8,4,7,12)      =        -3.139415	    -179.875202
	 D(9,4,7,10)      =         1.029893	      59.008508
	 D(9,4,7,11)      =        -3.116832	    -178.581292
	 D(9,4,7,12)      =        -1.091694	     -62.549453
	 D(10,13,16,19)   =        -0.985496	     -56.464784
	 D(10,13,16,20)   =         1.117956	      64.054150
	 D(10,13,16,21)   =        -3.072313	    -176.030593
	 D(11,7,10,13)    =         1.070283	      61.322692
	 D(11,7,10,14)    =        -1.077311	     -61.725372
	 D(11,7,10,15)    =        -3.090339	    -177.063392
	 D(12,7,10,13)    =        -0.958241	     -54.903161
	 D(12,7,10,14)    =        -3.105835	    -177.951226
	 D(12,7,10,15)    =         1.164322	      66.710755
	 D(14,10,13,16)   =         0.992481	      56.864970
	 D(14,10,13,17)   =        -1.129794	     -64.732411
	 D(14,10,13,18)   =        -3.140597	    -179.942944
	 D(15,10,13,16)   =         3.004295	     172.133451
	 D(15,10,13,17)   =         0.882021	      50.536070
	 D(15,10,13,18)   =        -1.128782	     -64.674463
	 D(17,13,16,19)   =         1.134110	      64.979693
	 D(17,13,16,20)   =        -3.045624	    -174.501373
	 D(17,13,16,21)   =        -0.952707	     -54.586117
	 D(18,13,16,19)   =        -3.134640	    -179.601616
	 D(18,13,16,20)   =        -1.031187	     -59.082681
	 D(18,13,16,21)   =         1.061729	      60.832575

	Current energy   :      -310.3326701770

	Generating empirical Hessian (Schlegel '84) for each fragment.
	Taking RFO optimization step.
	Going to follow RFO solution 1.
	Using RFO vector 1.
	Norm of target step-size    0.19477
	Projected energy change by RFO approximation:        -0.0000946361

	Back-transformation to cartesian coordinates...
	Successfully converged to displaced geometry.

	Back-transformation to cartesian coordinates to adjust frozen coordinates...
	Successfully converged to displaced geometry.

	--- Internal Coordinate Step in ANG or DEG, aJ/ANG or AJ/DEG ---
	 ---------------------------------------------------------------------------
	   Coordinate                Previous        Force       Change         New 
	   ----------                --------       ------       ------       ------
	    1 R(1,2)          =      0.939253    -0.000412    -0.000044     0.939209
	    2 R(2,3)          =      1.403003     0.011223     0.001596     1.404599
	    3 R(3,4)          =      1.515296     0.014662     0.003052     1.518348
	    4 R(3,5)          =      1.088013     0.000284     0.000052     1.088065
	    5 R(3,6)          =      1.088040    -0.004840    -0.000886     1.087153
	    6 R(4,7)          =      1.525938     0.001095     0.000236     1.526173
	    7 R(4,8)          =      1.085458    -0.001180    -0.000214     1.085244
	    8 R(4,9)          =      1.085319     0.007892     0.001432     1.086751
	    9 R(7,10)         =      1.527691     0.001885     0.000408     1.528099
	   10 R(7,11)         =      1.085686    -0.015637    -0.002841     1.082845
	   11 R(7,12)         =      1.087926     0.000708     0.000130     1.088055
	   12 R(10,13)        =      1.529574    -0.000391    -0.000085     1.529488
	   13 R(10,14)        =      1.087504     0.000742     0.000136     1.087639
	   14 R(10,15)        =      1.086360     0.004219     0.000768     1.087128
	   15 R(13,16)        =      1.526879    -0.000746    -0.000161     1.526717
	   16 R(13,17)        =      1.085683     0.000989     0.000180     1.085862
	   17 R(13,18)        =      1.086938     0.000371     0.000068     1.087006
	   18 R(16,19)        =      1.085385    -0.000545    -0.000099     1.085287
	   19 R(16,20)        =      1.083369    -0.001301    -0.000235     1.083134
	   20 R(16,21)        =      1.084054     0.000825     0.000149     1.084203
	   21 B(1,2,3)        =    110.130980     0.000032     0.148770   110.279750
	   22 B(2,3,4)        =    108.555746     0.000123     0.429878   108.985624
	   23 B(2,3,5)        =    110.480404    -0.000038     0.235656   110.716059
	   24 B(2,3,6)        =    110.479764    -0.000064    -0.653704   109.826060
	   25 B(3,4,7)        =    112.857049     0.000258     0.747601   113.604650
	   26 B(3,4,8)        =    108.457934    -0.000107    -0.646823   107.811111
	   27 B(3,4,9)        =    108.465161    -0.000037     0.433440   108.898601
	   28 B(4,3,5)        =    109.911180    -0.000023     0.156095   110.067275
	   29 B(4,3,6)        =    109.899428    -0.000015    -0.185057   109.714371
	   30 B(4,7,10)       =    112.719327     0.000054     0.139152   112.858479
	   31 B(4,7,11)       =    109.145677    -0.000075    -0.501330   108.644347
	   32 B(4,7,12)       =    109.462633    -0.000048    -0.436670   109.025963
	   33 B(5,3,6)        =    107.511726     0.000015     0.005089   107.516815
	   34 B(7,4,8)        =    110.065073    -0.000097    -0.988570   109.076503
	   35 B(7,4,9)        =    110.111042    -0.000106    -0.262535   109.848507
	   36 B(7,10,13)      =    114.842345    -0.000012    -0.043371   114.798975
	   37 B(7,10,14)      =    109.229711     0.000002    -0.027950   109.201761
	   38 B(7,10,15)      =    108.582530     0.000027     0.236057   108.818588
	   39 B(8,4,9)        =    106.674166     0.000080     0.727303   107.401468
	   40 B(10,7,11)      =    109.899760     0.000040     0.446424   110.346184
	   41 B(10,7,12)      =    109.055429     0.000000     0.103635   109.159064
	   42 B(10,13,16)     =    114.729650    -0.000018    -0.066854   114.662796
	   43 B(10,13,17)     =    108.370687     0.000012     0.085265   108.455952
	   44 B(10,13,18)     =    109.254979     0.000003    -0.024041   109.230939
	   45 B(11,7,12)      =    106.357383     0.000028     0.249328   106.606711
	   46 B(13,10,14)     =    109.201947    -0.000001    -0.098986   109.102961
	   47 B(13,10,15)     =    108.482040    -0.000013    -0.057542   108.424498
	   48 B(13,16,19)     =    111.016744    -0.000001    -0.021227   110.995517
	   49 B(13,16,20)     =    112.022309    -0.000004    -0.021337   112.000971
	   50 B(13,16,21)     =    110.757979    -0.000006    -0.007120   110.750859
	   51 B(14,10,15)     =    106.144307    -0.000003    -0.003745   106.140562
	   52 B(16,13,17)     =    108.650780     0.000002     0.019895   108.670675
	   53 B(16,13,18)     =    109.358053     0.000006    -0.015444   109.342609
	   54 B(17,13,18)     =    106.122567    -0.000003     0.007857   106.130423
	   55 B(19,16,20)     =    107.756651    -0.000002    -0.044157   107.712493
	   56 B(19,16,21)     =    107.673296     0.000004     0.022213   107.695509
	   57 B(20,16,21)     =    107.422933     0.000009     0.075260   107.498193
	   58 D(1,2,3,4)      =    179.997061     0.000003     1.779861   181.776921
	   59 D(1,2,3,5)      =    -59.415620     0.000009     2.394772   -57.020848
	   60 D(1,2,3,6)      =     59.424584    -0.000002     2.136650    61.561234
	   61 D(2,3,4,7)      =     72.222922    -0.000006    -1.223898    70.999024
	   62 *D(2,3,4,8)     =    -49.999992    -0.000000     0.000000   -49.999992
	   63 D(2,3,4,9)      =   -165.490632    -0.000004    -0.741472  -166.232104
	   64 D(3,4,7,10)     =   -179.633268     0.000006     3.651790  -175.981478
	   65 D(3,4,7,11)     =    -57.223068     0.000013     3.956340   -53.266728
	   66 D(3,4,7,12)     =     58.808771     0.000005     3.735668    62.544439
	   67 D(4,7,10,13)    =   -176.691724    -0.000001    -0.084305  -176.776029
	   68 D(4,7,10,14)    =     60.260211     0.000001     0.098463    60.358674
	   69 D(4,7,10,15)    =    -55.077808    -0.000002    -0.010992   -55.088800
	   70 D(5,3,4,7)      =    -48.716161    -0.000010    -1.882157   -50.598318
	   71 D(5,3,4,8)      =   -170.939075    -0.000003    -0.658259  -171.597334
	   72 D(5,3,4,9)      =     73.570285    -0.000008    -1.399732    72.170553
	   73 D(6,3,4,7)      =   -166.845927    -0.000009    -1.870524  -168.716451
	   74 D(6,3,4,8)      =     70.931158    -0.000002    -0.646626    70.284532
	   75 D(6,3,4,9)      =    -44.559482    -0.000007    -1.388098   -45.947580
	   76 D(7,10,13,16)   =    -66.197965     0.000002     0.012237   -66.185728
	   77 D(7,10,13,17)   =    172.204654     0.000002    -0.031899   172.172756
	   78 D(7,10,13,18)   =     56.994122     0.000001    -0.074691    56.919431
	   79 D(8,4,7,10)     =    -58.317241    -0.000001     2.622387   -55.694854
	   80 D(8,4,7,11)     =     64.092959     0.000007     2.926937    67.019897
	   81 D(8,4,7,12)     =   -179.875202    -0.000002     2.706265  -177.168937
	   82 D(9,4,7,10)     =     59.008508    -0.000007     2.765324    61.773831
	   83 D(9,4,7,11)     =   -178.581292     0.000001     3.069874  -175.511418
	   84 D(9,4,7,12)     =    -62.549453    -0.000007     2.849201   -59.700252
	   85 D(10,13,16,19)  =    -56.464784    -0.000000    -0.312308   -56.777092
	   86 D(10,13,16,20)  =     64.054150    -0.000002    -0.398030    63.656121
	   87 D(10,13,16,21)  =   -176.030593    -0.000001    -0.321633  -176.352227
	   88 D(11,7,10,13)   =     61.322692     0.000006     0.141950    61.464642
	   89 D(11,7,10,14)   =    -61.725372     0.000008     0.324718   -61.400655
	   90 D(11,7,10,15)   =   -177.063392     0.000005     0.215263  -176.848129
	   91 D(12,7,10,13)   =    -54.903161    -0.000006    -0.474154   -55.377315
	   92 D(12,7,10,14)   =   -177.951226    -0.000005    -0.291386  -178.242612
	   93 D(12,7,10,15)   =     66.710755    -0.000007    -0.400841    66.309914
	   94 D(14,10,13,16)  =     56.864970     0.000000    -0.132343    56.732626
	   95 D(14,10,13,17)  =    -64.732411     0.000001    -0.176479   -64.908890
	   96 D(14,10,13,18)  =   -179.942944    -0.000000    -0.219271  -180.162215
	   97 D(15,10,13,16)  =    172.133451    -0.000002    -0.220625   171.912825
	   98 D(15,10,13,17)  =     50.536070    -0.000002    -0.264761    50.271309
	   99 D(15,10,13,18)  =    -64.674463    -0.000003    -0.307553   -64.982016
	  100 D(17,13,16,19)  =     64.979693     0.000001    -0.232559    64.747134
	  101 D(17,13,16,20)  =   -174.501373    -0.000001    -0.318281  -174.819654
	  102 D(17,13,16,21)  =    -54.586117     0.000001    -0.241885   -54.828001
	  103 D(18,13,16,19)  =   -179.601616     0.000001    -0.220634  -179.822249
	  104 D(18,13,16,20)  =    -59.082681    -0.000001    -0.306356   -59.389037
	  105 D(18,13,16,21)  =     60.832575     0.000001    -0.229959    60.602616
	 ---------------------------------------------------------------------------

  ==> Convergence Check <==

  Measures of convergence in internal coordinates in au.
  Criteria marked as inactive (o), active & met (*), and active & unmet ( ).
  --------------------------------------------------------------------------------------------- ~
   Step     Total Energy     Delta E     MAX Force     RMS Force      MAX Disp      RMS Disp    ~
  --------------------------------------------------------------------------------------------- ~
    Convergence Criteria    1.00e-06 *    3.00e-04 *             o    1.20e-03 *             o  ~
  --------------------------------------------------------------------------------------------- ~
      1    -310.33267018   -3.10e+02      3.39e-03      6.08e-04 o    6.91e-02      1.90e-02 o  ~
  ---------------------------------------------------------------------------------------------

	Writing optimization data to binary file.
	Structure for next step:
	Cartesian Geometry (in Angstrom)
	    H    -3.1038426337   2.0194702747  -0.3140761232
	    O    -2.4283628899   1.4071341712  -0.5396517788
	    C    -2.5084181992   0.2698668171   0.2807824269
	    C    -1.3787422983  -0.6788979274  -0.0784652469
	    H    -2.4431783724   0.5474222347   1.3308265424
	    H    -3.4646577506  -0.2255040348   0.1320684076
	    C    -0.0018000399  -0.1799347791   0.3508030760
	    H    -1.3875855390  -0.8129011540  -1.1553682414
	    H    -1.5766913986  -1.6482036769   0.3713015915
	    C     1.1310610356  -1.0988661335  -0.1044729889
	    H     0.1425106334   0.8187281208  -0.0421354265
	    H     0.0221064585  -0.0939020276   1.4351882751
	    C     2.5246281656  -0.6818284290   0.3681628074
	    H     1.1271415111  -1.1605638025  -1.1903540356
	    H     0.9327844538  -2.1050999063   0.2561202581
	    C     3.0296594645   0.6334634231  -0.2198991463
	    H     3.2254327792  -1.4699680995   0.1096945250
	    H     2.5301015483  -0.6167199216   1.4532031856
	    H     3.0322861467   0.5988343499  -1.3046299279
	    H     2.4171273647   1.4743904635   0.0814741973
	    H     4.0438351654   0.8355684678   0.1058260590
			--------------------------
			 OPTKING Finished Execution 
			--------------------------

    Structure for next step:
    Molecular point group: c1
    Full point group: C1

    Geometry (in Angstrom), charge = 0, multiplicity = 1:

    H           -3.106345596717     2.021235058342    -0.312218368238
    O           -2.430865904456     1.408899001638    -0.537794006550
    C           -2.510921207634     0.271631734380     0.282640136438
    C           -1.381245392982    -0.677132937666    -0.076607509914
    H           -2.445681385870     0.549187130792     1.332684171793
    H           -3.467160686044    -0.223739079734     0.133926128569
    C           -0.004303239781    -0.178169827503     0.352660780187
    H           -1.390088633031    -0.811136154030    -1.153510422145
    H           -1.579194478250    -1.646438613136     0.373159294142
    C            1.128557749196    -1.097101111744    -0.102615249924
    H            0.140007422482     0.820492996179    -0.040277692263
    H            0.019603256816    -0.092137082532     1.437045896527
    C            2.522124772840    -0.680063439070     0.370020510281
    H            1.124638224992    -1.158798775983    -1.188496213670
    H            0.930281182574    -2.103334807682     0.257977969552
    C            3.027156033137     0.635228312562    -0.218041398466
    H            3.222929332849    -1.468203049390     0.111552247676
    H            2.527598155054    -0.614954936573     1.455060805677
    H            3.029782715135     0.600599242088    -1.302772097300
    H            2.414623980066     1.476155288814     0.083331922076
    H            4.041331656567     0.837333341863     0.107683781928

gradient() will perform analytic gradient computation.

*** tstart() called on cx1-27-1-3
*** at Fri Sep  9 21:30:23 2016


         ---------------------------------------------------------
                                   SCF
            by Justin Turney, Rob Parrish, and Andy Simmonett
                              RHF Reference
                        4 Threads,   2000 MiB Core
         ---------------------------------------------------------

  ==> Geometry <==

    Molecular point group: c1
    Full point group: C1

    Geometry (in Angstrom), charge = 0, multiplicity = 1:

       Center              X                  Y                   Z               Mass       
    ------------   -----------------  -----------------  -----------------  -----------------
           H         -3.106345596717     2.021235058342    -0.312218368238     1.007825032070
           O         -2.430865904456     1.408899001638    -0.537794006550    15.994914619560
           C         -2.510921207634     0.271631734380     0.282640136438    12.000000000000
           C         -1.381245392982    -0.677132937666    -0.076607509914    12.000000000000
           H         -2.445681385870     0.549187130792     1.332684171793     1.007825032070
           H         -3.467160686044    -0.223739079734     0.133926128569     1.007825032070
           C         -0.004303239781    -0.178169827503     0.352660780187    12.000000000000
           H         -1.390088633031    -0.811136154030    -1.153510422145     1.007825032070
           H         -1.579194478250    -1.646438613136     0.373159294142     1.007825032070
           C          1.128557749196    -1.097101111744    -0.102615249924    12.000000000000
           H          0.140007422482     0.820492996179    -0.040277692263     1.007825032070
           H          0.019603256816    -0.092137082532     1.437045896527     1.007825032070
           C          2.522124772840    -0.680063439070     0.370020510281    12.000000000000
           H          1.124638224992    -1.158798775983    -1.188496213670     1.007825032070
           H          0.930281182574    -2.103334807682     0.257977969552     1.007825032070
           C          3.027156033137     0.635228312562    -0.218041398466    12.000000000000
           H          3.222929332849    -1.468203049390     0.111552247676     1.007825032070
           H          2.527598155054    -0.614954936573     1.455060805677     1.007825032070
           H          3.029782715135     0.600599242088    -1.302772097300     1.007825032070
           H          2.414623980066     1.476155288814     0.083331922076     1.007825032070
           H          4.041331656567     0.837333341863     0.107683781928     1.007825032070

  Running in c1 symmetry.

  Rotational constants: A =      0.18332  B =      0.03329  C =      0.02985 [cm^-1]
  Rotational constants: A =   5495.64849  B =    998.02744  C =    895.00292 [MHz]
  Nuclear repulsion =  317.398679382834018

  Charge       = 0
  Multiplicity = 1
  Electrons    = 58
  Nalpha       = 29
  Nbeta        = 29

  ==> Algorithm <==

  SCF Algorithm Type is DF.
  DIIS enabled.
  MOM disabled.
  Fractional occupation disabled.
  Guess Type is READ.
  Energy threshold   = 1.00e-08
  Density threshold  = 1.00e-08
  Integral threshold = 0.00e+00

  ==> Primary Basis <==

  Basis Set: CC-PVTZ
    Number of shells: 154
    Number of basis function: 406
    Number of Cartesian functions: 455
    Spherical Harmonics?: true
    Max angular momentum: 3

  ==> Pre-Iterations <==

   -------------------------------------------------------
    Irrep   Nso     Nmo     Nalpha   Nbeta   Ndocc  Nsocc
   -------------------------------------------------------
     A        406     406       0       0       0       0
   -------------------------------------------------------
    Total     406     406      29      29      29       0
   -------------------------------------------------------

 OEINTS: Overlap, kinetic, potential, dipole, and quadrupole integrals
         stored in file 35.

  ==> Integral Setup <==

  ==> DFJK: Density-Fitted J/K Matrices <==

    J tasked:                  Yes
    K tasked:                  Yes
    wK tasked:                  No
    OpenMP threads:              4
    Integrals threads:           4
    Memory (MB):              1430
    Algorithm:                Core
    Integral Cache:           NONE
    Schwarz Cutoff:          1E-12
    Fitting Condition:       1E-12

   => Auxiliary Basis Set <=

  Basis Set: 
    Number of shells: 315
    Number of basis function: 973
    Number of Cartesian functions: 1162
    Spherical Harmonics?: true
    Max angular momentum: 4

  Minimum eigenvalue in the overlap matrix is 3.1496585672E-04.
  Using Symmetric Orthogonalization.
  SCF Guess: Reading in previously saved MOs, projecting if necessary.

  Using orbitals from previous SCF, no projection.
  Recomputing DOCC and SOCC from number of alpha and beta electrons from previous calculation.
              A 
    DOCC [    29 ]

  ==> Iterations <==

                           Total Energy        Delta E     RMS |[F,P]|

   @DF-RHF iter   0:  -310.32780852078741   -3.10328e+02   1.51859e-04 
   @DF-RHF iter   1:  -310.33265804011768   -4.84952e-03   2.93096e-05 
   @DF-RHF iter   2:  -310.33277653232216   -1.18492e-04   9.27541e-06 DIIS
   @DF-RHF iter   3:  -310.33279163809669   -1.51058e-05   3.02313e-06 DIIS
   @DF-RHF iter   4:  -310.33279246035551   -8.22259e-07   6.76589e-07 DIIS
   @DF-RHF iter   5:  -310.33279252929077   -6.89353e-08   2.16911e-07 DIIS
   @DF-RHF iter   6:  -310.33279253784434   -8.55357e-09   6.97483e-08 DIIS
   @DF-RHF iter   7:  -310.33279253865538   -8.11042e-10   2.23131e-08 DIIS
   @DF-RHF iter   8:  -310.33279253876236   -1.06979e-10   5.57613e-09 DIIS

  ==> Post-Iterations <==

    Orbital Energies (a.u.)
    -----------------------

    Doubly Occupied:                                                      

       1A    -20.546431     2A    -11.265951     3A    -11.210208  
       4A    -11.209510     5A    -11.207359     6A    -11.204941  
       7A    -11.201676     8A     -1.363967     9A     -1.082682  
      10A     -1.031318    11A     -0.953849    12A     -0.875898  
      13A     -0.802867    14A     -0.773923    15A     -0.708926  
      16A     -0.639496    17A     -0.629304    18A     -0.601469  
      19A     -0.590539    20A     -0.564435    21A     -0.541241  
      22A     -0.518844    23A     -0.502740    24A     -0.495898  
      25A     -0.476433    26A     -0.456380    27A     -0.455979  
      28A     -0.443246    29A     -0.428584  

    Virtual:                                                              

      30A      0.141742    31A      0.149858    32A      0.166507  
      33A      0.171005    34A      0.183095    35A      0.194919  
      36A      0.207757    37A      0.215446    38A      0.227167  
      39A      0.236316    40A      0.254633    41A      0.268437  
      42A      0.269756    43A      0.272703    44A      0.308850  
      45A      0.337864    46A      0.346767    47A      0.347343  
      48A      0.363191    49A      0.388254    50A      0.405211  
      51A      0.422552    52A      0.430117    53A      0.456571  
      54A      0.461325    55A      0.478862    56A      0.484765  
      57A      0.522471    58A      0.547954    59A      0.552241  
      60A      0.566864    61A      0.574580    62A      0.592033  
      63A      0.595158    64A      0.600291    65A      0.618298  
      66A      0.627491    67A      0.636080    68A      0.643067  
      69A      0.652555    70A      0.657827    71A      0.663287  
      72A      0.671972    73A      0.677388    74A      0.684257  
      75A      0.689705    76A      0.695859    77A      0.704597  
      78A      0.716409    79A      0.730719    80A      0.741581  
      81A      0.761097    82A      0.771299    83A      0.788355  
      84A      0.818366    85A      0.836268    86A      0.846931  
      87A      0.862334    88A      0.888286    89A      0.907284  
      90A      0.921864    91A      0.939908    92A      0.949774  
      93A      0.965372    94A      0.991644    95A      1.007173  
      96A      1.016666    97A      1.033456    98A      1.049851  
      99A      1.063130   100A      1.089050   101A      1.113262  
     102A      1.127008   103A      1.139445   104A      1.173306  
     105A      1.180396   106A      1.208191   107A      1.216566  
     108A      1.232150   109A      1.241113   110A      1.258949  
     111A      1.261818   112A      1.273581   113A      1.295907  
     114A      1.305226   115A      1.314164   116A      1.325881  
     117A      1.336653   118A      1.348699   119A      1.367991  
     120A      1.372032   121A      1.385368   122A      1.390964  
     123A      1.400583   124A      1.407139   125A      1.416365  
     126A      1.420793   127A      1.442910   128A      1.457682  
     129A      1.470306   130A      1.476093   131A      1.480562  
     132A      1.494964   133A      1.505278   134A      1.517977  
     135A      1.521358   136A      1.528222   137A      1.551685  
     138A      1.557310   139A      1.574293   140A      1.592779  
     141A      1.618002   142A      1.627712   143A      1.640790  
     144A      1.673426   145A      1.682085   146A      1.688256  
     147A      1.702045   148A      1.715711   149A      1.734007  
     150A      1.744887   151A      1.767601   152A      1.797907  
     153A      1.807532   154A      1.829658   155A      1.838643  
     156A      1.843124   157A      1.867210   158A      1.871956  
     159A      1.929001   160A      1.972556   161A      1.997953  
     162A      2.038394   163A      2.068824   164A      2.144517  
     165A      2.291833   166A      2.322254   167A      2.385518  
     168A      2.410162   169A      2.525610   170A      2.575365  
     171A      2.582609   172A      2.643582   173A      2.655225  
     174A      2.681439   175A      2.703056   176A      2.715034  
     177A      2.732281   178A      2.735398   179A      2.745218  
     180A      2.776734   181A      2.788405   182A      2.789675  
     183A      2.817180   184A      2.839385   185A      2.859603  
     186A      2.863017   187A      2.887103   188A      2.903349  
     189A      2.929119   190A      2.938873   191A      2.954326  
     192A      2.985424   193A      2.994531   194A      3.002651  
     195A      3.026881   196A      3.042034   197A      3.056926  
     198A      3.061668   199A      3.089053   200A      3.118580  
     201A      3.143844   202A      3.152165   203A      3.164553  
     204A      3.177495   205A      3.208742   206A      3.235371  
     207A      3.247228   208A      3.252395   209A      3.269209  
     210A      3.273161   211A      3.296672   212A      3.309506  
     213A      3.320759   214A      3.328241   215A      3.334329  
     216A      3.361232   217A      3.363505   218A      3.382815  
     219A      3.392971   220A      3.403423   221A      3.417488  
     222A      3.426163   223A      3.438790   224A      3.442664  
     225A      3.446311   226A      3.459483   227A      3.464583  
     228A      3.480540   229A      3.491194   230A      3.495527  
     231A      3.506418   232A      3.517820   233A      3.530107  
     234A      3.547152   235A      3.551767   236A      3.562400  
     237A      3.581111   238A      3.588075   239A      3.618408  
     240A      3.620585   241A      3.648251   242A      3.670713  
     243A      3.686711   244A      3.703089   245A      3.721757  
     246A      3.748563   247A      3.756906   248A      3.763798  
     249A      3.771679   250A      3.794850   251A      3.827649  
     252A      3.831187   253A      3.848605   254A      3.861170  
     255A      3.863483   256A      3.868906   257A      3.881625  
     258A      3.905098   259A      3.922108   260A      3.928048  
     261A      3.946875   262A      3.959612   263A      3.974437  
     264A      3.989082   265A      4.018529   266A      4.027954  
     267A      4.039419   268A      4.062521   269A      4.091062  
     270A      4.113429   271A      4.127718   272A      4.134528  
     273A      4.142603   274A      4.144361   275A      4.155744  
     276A      4.157795   277A      4.171584   278A      4.180071  
     279A      4.188936   280A      4.216346   281A      4.226828  
     282A      4.234446   283A      4.251228   284A      4.264579  
     285A      4.273802   286A      4.289964   287A      4.292759  
     288A      4.301737   289A      4.317486   290A      4.341275  
     291A      4.352626   292A      4.365225   293A      4.379477  
     294A      4.385626   295A      4.413657   296A      4.428220  
     297A      4.435335   298A      4.442314   299A      4.459465  
     300A      4.477062   301A      4.483992   302A      4.494784  
     303A      4.503651   304A      4.518290   305A      4.531434  
     306A      4.541815   307A      4.558571   308A      4.568202  
     309A      4.586088   310A      4.599464   311A      4.627762  
     312A      4.631420   313A      4.663187   314A      4.676029  
     315A      4.679302   316A      4.695928   317A      4.710004  
     318A      4.733772   319A      4.756675   320A      4.765262  
     321A      4.780128   322A      4.807220   323A      4.816476  
     324A      4.834608   325A      4.862132   326A      4.882337  
     327A      4.944907   328A      4.965401   329A      4.984342  
     330A      5.028326   331A      5.039989   332A      5.066429  
     333A      5.091178   334A      5.113530   335A      5.119644  
     336A      5.126175   337A      5.148781   338A      5.165016  
     339A      5.188611   340A      5.227784   341A      5.241921  
     342A      5.252006   343A      5.263019   344A      5.269621  
     345A      5.304547   346A      5.320745   347A      5.346474  
     348A      5.366936   349A      5.389049   350A      5.398336  
     351A      5.404796   352A      5.427110   353A      5.456037  
     354A      5.499144   355A      5.518760   356A      5.531382  
     357A      5.548397   358A      5.577815   359A      5.623690  
     360A      5.636816   361A      5.647219   362A      5.736497  
     363A      5.755616   364A      5.762473   365A      5.787216  
     366A      5.794342   367A      5.811443   368A      5.829264  
     369A      5.852412   370A      5.860167   371A      5.888268  
     372A      5.893393   373A      5.925018   374A      5.947719  
     375A      5.955530   376A      5.969691   377A      5.992442  
     378A      6.023024   379A      6.060913   380A      6.088175  
     381A      6.128239   382A      6.253360   383A      6.313363  
     384A      6.342269   385A      6.349683   386A      6.388551  
     387A      6.429048   388A      6.454660   389A      6.486739  
     390A      6.517029   391A      6.688628   392A      7.082303  
     393A      7.174158   394A      7.244581   395A      7.294953  
     396A      7.442659   397A      7.546283   398A      7.748742  
     399A      8.051184   400A     12.741254   401A     13.157741  
     402A     13.381403   403A     13.570691   404A     13.747199  
     405A     13.976650   406A     14.272796  

    Final Occupation by Irrep:
              A 
    DOCC [    29 ]

  Energy converged.

  @DF-RHF Final Energy:  -310.33279253876236

   => Energetics <=

    Nuclear Repulsion Energy =            317.3986793828340183
    One-Electron Energy =               -1049.8947591706382809
    Two-Electron Energy =                 422.1632872490417867
    DFT Exchange-Correlation Energy =       0.0000000000000000
    Empirical Dispersion Energy =           0.0000000000000000
    PCM Polarization Energy =               0.0000000000000000
    EFP Energy =                            0.0000000000000000
    Total Energy =                       -310.3327925387625328

    Alert: EFP and PCM quantities not currently incorporated into SCF psivars.

Properties will be evaluated at   0.000000,   0.000000,   0.000000 Bohr
  ==> Properties <==


Properties computed using the SCF density matrix

  Nuclear Dipole Moment: (a.u.)
     X:     5.1091      Y:    -1.6936      Z:     1.2116

  Electronic Dipole Moment: (a.u.)
     X:    -5.5387      Y:     1.6301      Z:    -0.7814

  Dipole Moment: (a.u.)
     X:    -0.4296      Y:    -0.0635      Z:     0.4302     Total:     0.6113

  Dipole Moment: (Debye)
     X:    -1.0920      Y:    -0.1613      Z:     1.0934     Total:     1.5537


  Saving occupied orbitals to File 180.

*** tstop() called on cx1-27-1-3 at Fri Sep  9 21:30:41 2016
Module time:
	user time   =      55.93 seconds =       0.93 minutes
	system time =       0.74 seconds =       0.01 minutes
	total time  =         18 seconds =       0.30 minutes
Total time:
	user time   =     286.12 seconds =       4.77 minutes
	system time =       2.83 seconds =       0.05 minutes
	total time  =         82 seconds =       1.37 minutes

*** tstart() called on cx1-27-1-3
*** at Fri Sep  9 21:30:41 2016


         ------------------------------------------------------------
                                   SCF GRAD                          
                          Rob Parrish, Justin Turney,                
                       Andy Simmonett, and Alex Sokolov              
         ------------------------------------------------------------

  ==> Geometry <==

    Molecular point group: c1
    Full point group: C1

    Geometry (in Angstrom), charge = 0, multiplicity = 1:

       Center              X                  Y                   Z               Mass       
    ------------   -----------------  -----------------  -----------------  -----------------
           H         -3.106345596717     2.021235058342    -0.312218368238     1.007825032070
           O         -2.430865904456     1.408899001638    -0.537794006550    15.994914619560
           C         -2.510921207634     0.271631734380     0.282640136438    12.000000000000
           C         -1.381245392982    -0.677132937666    -0.076607509914    12.000000000000
           H         -2.445681385870     0.549187130792     1.332684171793     1.007825032070
           H         -3.467160686044    -0.223739079734     0.133926128569     1.007825032070
           C         -0.004303239781    -0.178169827503     0.352660780187    12.000000000000
           H         -1.390088633031    -0.811136154030    -1.153510422145     1.007825032070
           H         -1.579194478250    -1.646438613136     0.373159294142     1.007825032070
           C          1.128557749196    -1.097101111744    -0.102615249924    12.000000000000
           H          0.140007422482     0.820492996179    -0.040277692263     1.007825032070
           H          0.019603256816    -0.092137082532     1.437045896527     1.007825032070
           C          2.522124772840    -0.680063439070     0.370020510281    12.000000000000
           H          1.124638224992    -1.158798775983    -1.188496213670     1.007825032070
           H          0.930281182574    -2.103334807682     0.257977969552     1.007825032070
           C          3.027156033137     0.635228312562    -0.218041398466    12.000000000000
           H          3.222929332849    -1.468203049390     0.111552247676     1.007825032070
           H          2.527598155054    -0.614954936573     1.455060805677     1.007825032070
           H          3.029782715135     0.600599242088    -1.302772097300     1.007825032070
           H          2.414623980066     1.476155288814     0.083331922076     1.007825032070
           H          4.041331656567     0.837333341863     0.107683781928     1.007825032070

  Nuclear repulsion =  317.398679382834018

  ==> Basis Set <==

  Basis Set: CC-PVTZ
    Number of shells: 154
    Number of basis function: 406
    Number of Cartesian functions: 455
    Spherical Harmonics?: true
    Max angular momentum: 3

  ==> DFJKGrad: Density-Fitted SCF Gradients <==

    Gradient:                    1
    J tasked:                  Yes
    K tasked:                  Yes
    wK tasked:                  No
    OpenMP threads:              4
    Integrals threads:           4
    Memory (MB):              1430
    Schwarz Cutoff:          0E+00
    Fitting Condition:       1E-12

   => Auxiliary Basis Set <=

  Basis Set: 
    Number of shells: 315
    Number of basis function: 973
    Number of Cartesian functions: 1162
    Spherical Harmonics?: true
    Max angular momentum: 4


  -Total Gradient:
     Atom            X                  Y                   Z
    ------   -----------------  -----------------  -----------------
       1       -0.000103575698     0.000211558999    -0.000290868013
       2       -0.001586226574    -0.000457377776    -0.000674030697
       3        0.001795196604     0.001660842308     0.000555188868
       4       -0.001236703869    -0.001985600667     0.001155887588
       5       -0.000052754930    -0.000313250204     0.000024391567
       6       -0.000279786816     0.000496470440    -0.000069679976
       7       -0.000492444759    -0.000430822489    -0.000609227116
       8        0.001358543760     0.001599141735     0.000085328381
       9        0.000377180550    -0.000522408663     0.000021271396
      10        0.000502854237    -0.000121462982     0.000078294882
      11       -0.000166309819     0.000117914882     0.000138532045
      12       -0.000291333941    -0.000106002712    -0.000210986246
      13        0.000000597737    -0.000093020005    -0.000239644403
      14        0.000060416361     0.000000840592    -0.000011073217
      15        0.000122716230    -0.000053787189     0.000002913183
      16       -0.000030811566    -0.000050016108     0.000011869018
      17        0.000045481025    -0.000005796959     0.000009842339
      18       -0.000038681840     0.000014081404    -0.000008541243
      19        0.000002551065    -0.000002255451     0.000011655544
      20        0.000002043513     0.000032531104     0.000000684935
      21        0.000011048733     0.000008419742     0.000018191164


*** tstop() called on cx1-27-1-3 at Fri Sep  9 21:31:18 2016
Module time:
	user time   =     144.87 seconds =       2.41 minutes
	system time =       0.82 seconds =       0.01 minutes
	total time  =         37 seconds =       0.62 minutes
Total time:
	user time   =     431.00 seconds =       7.18 minutes
	system time =       3.65 seconds =       0.06 minutes
	total time  =        119 seconds =       1.98 minutes
CURRENT ENERGY: -310.3327925388

			-----------------------------------------
			 OPTKING 2.0: for geometry optimizations 
			  - R.A. King,  Bethel University        
			-----------------------------------------

	Previous internal coordinate definitions found.
	---Fragment 1 Geometry and Gradient---
	 H          -5.8701424519        3.8195807105       -0.5900072096
	 O          -4.5936708252        2.6624332620       -1.0162833883
	 C          -4.7449534237        0.5133095870        0.5341124520
	 C          -2.6101755150       -1.2795958077       -0.1447672135
	 H          -4.6216680276        1.0378132729        2.5184081063
	 H          -6.5519841553       -0.4228055859        0.2530837050
	 C          -0.0081319447       -0.3366921791        0.6664322924
	 H          -2.6268868169       -1.5328251876       -2.1798187893
	 H          -2.9842450745       -3.1113180734        0.7051688699
	 C           2.1326650711       -2.0732206413       -0.1939147194
	 H           0.2645756851        1.5505070567       -0.0761138076
	 H           0.0370447867       -0.1741138527        2.7156231848
	 C           4.7661250936       -1.2851336528        0.6992374280
	 H           2.1252582438       -2.1898123297       -2.2459323538
	 H           1.7579766616       -3.9747267523        0.4875077108
	 C           5.7204958641        1.2004075426       -0.4120385287
	 H           6.0904537847       -2.7745016708        0.2108031976
	 H           4.7764682870       -1.1620964142        2.7496664294
	 H           5.7254595738        1.1349680832       -2.4618824775
	 H           4.5629780362        2.7895292255        0.1574745108
	 H           7.6370100431        1.5823306981        0.2034928568
	            -0.0001035757        0.0002115590       -0.0002908680
	            -0.0015862266       -0.0004573778       -0.0006740307
	             0.0017951966        0.0016608423        0.0005551889
	            -0.0012367039       -0.0019856007        0.0011558876
	            -0.0000527549       -0.0003132502        0.0000243916
	            -0.0002797868        0.0004964704       -0.0000696800
	            -0.0004924448       -0.0004308225       -0.0006092271
	             0.0013585438        0.0015991417        0.0000853284
	             0.0003771805       -0.0005224087        0.0000212714
	             0.0005028542       -0.0001214630        0.0000782949
	            -0.0001663098        0.0001179149        0.0001385320
	            -0.0002913339       -0.0001060027       -0.0002109862
	             0.0000005977       -0.0000930200       -0.0002396444
	             0.0000604164        0.0000008406       -0.0000110732
	             0.0001227162       -0.0000537872        0.0000029132
	            -0.0000308116       -0.0000500161        0.0000118690
	             0.0000454810       -0.0000057970        0.0000098423
	            -0.0000386818        0.0000140814       -0.0000085412
	             0.0000025511       -0.0000022555        0.0000116555
	             0.0000020435        0.0000325311        0.0000006849
	             0.0000110487        0.0000084197        0.0000181912

	---Fragment 1 Intrafragment Coordinates---
	 - Coordinate -           - BOHR/RAD -       - ANG/DEG -
	 R(1,2)           =         1.774847	       0.939209
	 R(2,3)           =         2.654307	       1.404599
	 R(3,4)           =         2.869262	       1.518348
	 R(3,5)           =         2.056145	       1.088065
	 R(3,6)           =         2.054422	       1.087153
	 R(4,7)           =         2.884050	       1.526173
	 R(4,8)           =         2.050814	       1.085244
	 R(4,9)           =         2.053662	       1.086751
	 R(7,10)          =         2.887688	       1.528099
	 R(7,11)          =         2.046281	       1.082845
	 R(7,12)          =         2.056126	       1.088055
	 R(10,13)         =         2.890314	       1.529488
	 R(10,14)         =         2.055341	       1.087639
	 R(10,15)         =         2.054374	       1.087128
	 R(13,16)         =         2.885078	       1.526717
	 R(13,17)         =         2.051982	       1.085862
	 R(13,18)         =         2.054143	       1.087006
	 R(16,19)         =         2.050894	       1.085287
	 R(16,20)         =         2.046827	       1.083134
	 R(16,21)         =         2.048846	       1.084203
	 B(1,2,3)         =         1.924745	     110.279750
	 B(2,3,4)         =         1.902158	     108.985624
	 B(2,3,5)         =         1.932360	     110.716059
	 B(2,3,6)         =         1.916826	     109.826060
	 B(3,4,7)         =         1.982775	     113.604650
	 B(3,4,8)         =         1.881659	     107.811111
	 B(3,4,9)         =         1.900639	     108.898601
	 B(4,3,5)         =         1.921036	     110.067275
	 B(4,3,6)         =         1.914877	     109.714371
	 B(4,7,10)        =         1.969752	     112.858479
	 B(4,7,11)        =         1.896202	     108.644347
	 B(4,7,12)        =         1.902862	     109.025963
	 B(5,3,6)         =         1.876522	     107.516815
	 B(7,4,8)         =         1.903744	     109.076503
	 B(7,4,9)         =         1.917218	     109.848507
	 B(7,10,13)       =         2.003620	     114.798975
	 B(7,10,14)       =         1.905930	     109.201761
	 B(7,10,15)       =         1.899243	     108.818588
	 B(8,4,9)         =         1.874509	     107.401468
	 B(10,7,11)       =         1.925904	     110.346184
	 B(10,7,12)       =         1.905185	     109.159064
	 B(10,13,16)      =         2.001243	     114.662796
	 B(10,13,17)      =         1.892913	     108.455952
	 B(10,13,18)      =         1.906440	     109.230939
	 B(11,7,12)       =         1.860638	     106.606711
	 B(13,10,14)      =         1.904206	     109.102961
	 B(13,10,15)      =         1.892364	     108.424498
	 B(13,16,19)      =         1.937237	     110.995517
	 B(13,16,20)      =         1.954786	     112.000971
	 B(13,16,21)      =         1.932967	     110.750859
	 B(14,10,15)      =         1.852502	     106.140562
	 B(16,13,17)      =         1.896661	     108.670675
	 B(16,13,18)      =         1.908389	     109.342609
	 B(17,13,18)      =         1.852325	     106.130423
	 B(19,16,20)      =         1.879938	     107.712493
	 B(19,16,21)      =         1.879641	     107.695509
	 B(20,16,21)      =         1.876197	     107.498193
	 D(1,2,3,4)       =        -3.110580	    -178.223079
	 D(1,2,3,5)       =        -0.995202	     -57.020848
	 D(1,2,3,6)       =         1.074446	      61.561234
	 D(2,3,4,7)       =         1.239167	      70.999024
	*D(2,3,4,8)       =        -0.872664	     -49.999992
	 D(2,3,4,9)       =        -2.901298	    -166.232104
	 D(3,4,7,10)      =        -3.071456	    -175.981478
	 D(3,4,7,11)      =        -0.929680	     -53.266728
	 D(3,4,7,12)      =         1.091606	      62.544439
	 D(4,7,10,13)     =        -3.085324	    -176.776029
	 D(4,7,10,14)     =         1.053458	      60.358674
	 D(4,7,10,15)     =        -0.961481	     -55.088800
	 D(5,3,4,7)       =        -0.883107	     -50.598318
	 D(5,3,4,8)       =        -2.994938	    -171.597334
	 D(5,3,4,9)       =         1.259614	      72.170553
	 D(6,3,4,7)       =        -2.944658	    -168.716451
	 D(6,3,4,8)       =         1.226697	      70.284532
	 D(6,3,4,9)       =        -0.801937	     -45.947580
	 D(7,10,13,16)    =        -1.155159	     -66.185728
	 D(7,10,13,17)    =         3.004981	     172.172756
	 D(7,10,13,18)    =         0.993431	      56.919431
	 D(8,4,7,10)      =        -0.972059	     -55.694854
	 D(8,4,7,11)      =         1.169718	      67.019897
	 D(8,4,7,12)      =        -3.092181	    -177.168937
	 D(9,4,7,10)      =         1.078157	      61.773831
	 D(9,4,7,11)      =        -3.063252	    -175.511418
	 D(9,4,7,12)      =        -1.041966	     -59.700252
	 D(10,13,16,19)   =        -0.990947	     -56.777092
	 D(10,13,16,20)   =         1.111009	      63.656121
	 D(10,13,16,21)   =        -3.077927	    -176.352227
	 D(11,7,10,13)    =         1.072760	      61.464642
	 D(11,7,10,14)    =        -1.071644	     -61.400655
	 D(11,7,10,15)    =        -3.086582	    -176.848129
	 D(12,7,10,13)    =        -0.966516	     -55.377315
	 D(12,7,10,14)    =        -3.110920	    -178.242612
	 D(12,7,10,15)    =         1.157326	      66.309914
	 D(14,10,13,16)   =         0.990171	      56.732626
	 D(14,10,13,17)   =        -1.132874	     -64.908890
	 D(14,10,13,18)   =         3.138761	     179.837785
	 D(15,10,13,16)   =         3.000445	     171.912825
	 D(15,10,13,17)   =         0.877400	      50.271309
	 D(15,10,13,18)   =        -1.134150	     -64.982016
	 D(17,13,16,19)   =         1.130051	      64.747134
	 D(17,13,16,20)   =        -3.051179	    -174.819654
	 D(17,13,16,21)   =        -0.956929	     -54.828001
	 D(18,13,16,19)   =        -3.138490	    -179.822249
	 D(18,13,16,20)   =        -1.036534	     -59.389037
	 D(18,13,16,21)   =         1.057715	      60.602616

	Current energy   :      -310.3327925388

	Energy change for the previous step:
		Projected    :        -0.0000946361
		Actual       :        -0.0001223618
	Energy ratio indicates good step: Trust radius increased to 1.000e+00.


	Performing BFGS update.
	Previous computed or guess Hessian on step 1.
	Steps to be used in Hessian update: 1
	Taking RFO optimization step.
	Going to follow RFO solution 1.
	Using RFO vector 1.
	Norm of target step-size    0.09261
	Projected energy change by RFO approximation:         0.0001188943

	Back-transformation to cartesian coordinates...
	Successfully converged to displaced geometry.

	Back-transformation to cartesian coordinates to adjust frozen coordinates...
	Successfully converged to displaced geometry.

	--- Internal Coordinate Step in ANG or DEG, aJ/ANG or AJ/DEG ---
	 ---------------------------------------------------------------------------
	   Coordinate                Previous        Force       Change         New 
[...]
	 B(10,7,11)       =         1.925428	     110.318909
	 B(10,7,12)       =         1.904895	     109.142422
	 B(10,13,16)      =         2.000691	     114.631147
	 B(10,13,17)      =         1.892983	     108.459951
	 B(10,13,18)      =         1.906554	     109.237482
	 B(11,7,12)       =         1.861584	     106.660892
	 B(13,10,14)      =         1.904767	     109.135084
	 B(13,10,15)      =         1.892925	     108.456613
	 B(13,16,19)      =         1.937148	     110.990400
	 B(13,16,20)      =         1.954395	     111.978601
	 B(13,16,21)      =         1.933212	     110.764907
	 B(14,10,15)      =         1.852503	     106.140598
	 B(16,13,17)      =         1.896893	     108.683966
	 B(16,13,18)      =         1.908525	     109.350437
	 B(17,13,18)      =         1.852367	     106.132835
	 B(19,16,20)      =         1.879889	     107.709697
	 B(19,16,21)      =         1.879655	     107.696308
	 B(20,16,21)      =         1.876484	     107.514633
	 D(1,2,3,4)       =        -3.079416	    -176.437516
	 D(1,2,3,5)       =        -0.965247	     -55.304557
	 D(1,2,3,6)       =         1.108200	      63.495175
	 D(2,3,4,7)       =         1.243759	      71.262130
	*D(2,3,4,8)       =        -0.872664	     -49.999992
	 D(2,3,4,9)       =        -2.901077	    -166.219446
	 D(3,4,7,10)      =        -3.094806	    -177.319338
	 D(3,4,7,11)      =        -0.955262	     -54.732507
	 D(3,4,7,12)      =         1.068752	      61.234990
	 D(4,7,10,13)     =        -3.087694	    -176.911824
	 D(4,7,10,14)     =         1.050650	      60.197822
	 D(4,7,10,15)     =        -0.964149	     -55.241696
	 D(5,3,4,7)       =        -0.875297	     -50.150834
	 D(5,3,4,8)       =        -2.991720	    -171.412956
	 D(5,3,4,9)       =         1.263053	      72.367590
	 D(6,3,4,7)       =        -2.938879	    -168.385376
	 D(6,3,4,8)       =         1.227883	      70.352502
	 D(6,3,4,9)       =        -0.800529	     -45.866952
	 D(7,10,13,16)    =        -1.145786	     -65.648684
	 D(7,10,13,17)    =         3.014376	     172.711024
	 D(7,10,13,18)    =         1.002677	      57.449173
	 D(8,4,7,10)      =        -0.991717	     -56.821170
	 D(8,4,7,11)      =         1.147827	      65.765662
	 D(8,4,7,12)      =        -3.111343	    -178.266842
	 D(9,4,7,10)      =         1.062039	      60.850343
	 D(9,4,7,11)      =        -3.081603	    -176.562826
	 D(9,4,7,12)      =        -1.057588	     -60.595329
	 D(10,13,16,19)   =        -0.991475	     -56.807326
	 D(10,13,16,20)   =         1.110091	      63.603510
	 D(10,13,16,21)   =        -3.078575	    -176.389339
	 D(11,7,10,13)    =         1.072191	      61.431997
	 D(11,7,10,14)    =        -1.072651	     -61.458357
	 D(11,7,10,15)    =        -3.087450	    -176.897874
	 D(12,7,10,13)    =        -0.967786	     -55.450077
	 D(12,7,10,14)    =        -3.112628	    -178.340431
	 D(12,7,10,15)    =         1.155758	      66.220051
	 D(14,10,13,16)   =         0.999878	      57.288812
	 D(14,10,13,17)   =        -1.123145	     -64.351481
	 D(14,10,13,18)   =        -3.134844	    -179.613331
	 D(15,10,13,16)   =         3.010754	     172.503473
	 D(15,10,13,17)   =         0.887730	      50.863180
	 D(15,10,13,18)   =        -1.123969	     -64.398670
	 D(17,13,16,19)   =         1.129412	      64.710520
	 D(17,13,16,20)   =        -3.052208	    -174.878644
	 D(17,13,16,21)   =        -0.957688	     -54.871493
	 D(18,13,16,19)   =        -3.138878	    -179.844449
	 D(18,13,16,20)   =        -1.037312	     -59.433614
	 D(18,13,16,21)   =         1.057208	      60.573538

	Current energy   :      -310.3328164713

	Energy change for the previous step:
		Projected    :        -0.0000161269
		Actual       :         0.0000001856

	Performing BFGS update.
	Previous computed or guess Hessian on step 1.
	Steps to be used in Hessian update: 3 2
	Taking RFO optimization step.
	Going to follow RFO solution 1.
	Using RFO vector 1.
	Norm of target step-size    0.03889
	Projected energy change by RFO approximation:        -0.0000021206

	Back-transformation to cartesian coordinates...
	Successfully converged to displaced geometry.

	Back-transformation to cartesian coordinates to adjust frozen coordinates...
	Successfully converged to displaced geometry.

	--- Internal Coordinate Step in ANG or DEG, aJ/ANG or AJ/DEG ---
	 ---------------------------------------------------------------------------
	   Coordinate                Previous        Force       Change         New 
	   ----------                --------       ------       ------       ------
	    1 R(1,2)          =      0.939133     0.000148     0.000023     0.939156
	    2 R(2,3)          =      1.404661     0.000146     0.000032     1.404693
	    3 R(3,4)          =      1.517002     0.000708     0.000019     1.517021
	    4 R(3,5)          =      1.088046    -0.000272    -0.000058     1.087989
	    5 R(3,6)          =      1.087064     0.000282     0.000058     1.087122
	    6 R(4,7)          =      1.527460    -0.000887    -0.000069     1.527391
	    7 R(4,8)          =      1.085573    -0.000582    -0.000064     1.085509
	    8 R(4,9)          =      1.086262     0.000177    -0.000037     1.086225
	    9 R(7,10)         =      1.527050     0.000876     0.000110     1.527160
	   10 R(7,11)         =      1.082624     0.000392     0.000138     1.082762
	   11 R(7,12)         =      1.088375    -0.000450    -0.000046     1.088329
	   12 R(10,13)        =      1.529643     0.000655     0.000067     1.529710
	   13 R(10,14)        =      1.087640    -0.000046    -0.000006     1.087633
	   14 R(10,15)        =      1.087091    -0.000143    -0.000053     1.087038
	   15 R(13,16)        =      1.526774     0.000224     0.000032     1.526806
	   16 R(13,17)        =      1.085844    -0.000080    -0.000009     1.085835
	   17 R(13,18)        =      1.086991     0.000124    -0.000002     1.086989
	   18 R(16,19)        =      1.085300     0.000119     0.000014     1.085315
	   19 R(16,20)        =      1.083119    -0.000431    -0.000016     1.083103
	   20 R(16,21)        =      1.084176    -0.000073    -0.000015     1.084161
	   21 B(1,2,3)        =    110.159437     0.000004     0.021247   110.180684
	   22 B(2,3,4)        =    108.789052     0.000006     0.017449   108.806501
	   23 B(2,3,5)        =    110.620186     0.000000    -0.009149   110.611038
	   24 B(2,3,6)        =    110.044905    -0.000007    -0.010102   110.034804
	   25 B(3,4,7)        =    113.552131    -0.000006    -0.021842   113.530290
	   26 B(3,4,8)        =    107.901680     0.000003     0.016555   107.918234
	   27 B(3,4,9)        =    108.607228     0.000004     0.019336   108.626565
	   28 B(4,3,5)        =    110.162688    -0.000004    -0.012277   110.150411
	   29 B(4,3,6)        =    109.584056     0.000006     0.025096   109.609152
	   30 B(4,7,10)       =    112.693753     0.000004    -0.000178   112.693575
	   31 B(4,7,11)       =    108.668440     0.000000     0.022396   108.690835
	   32 B(4,7,12)       =    109.170727    -0.000004    -0.003322   109.167405
	   33 B(5,3,6)        =    107.629746    -0.000002    -0.011074   107.618672
	   34 B(7,4,8)        =    109.260638     0.000001     0.017662   109.278300
	   35 B(7,4,9)        =    109.848355     0.000002     0.014044   109.862399
	   36 B(7,10,13)      =    114.752143     0.000018     0.031586   114.783729
	   37 B(7,10,14)      =    109.222811    -0.000004     0.012591   109.235402
	   38 B(7,10,15)      =    108.783131    -0.000006    -0.024992   108.758139
	   39 B(8,4,9)        =    107.479488    -0.000005    -0.047845   107.431643
	   40 B(10,7,11)      =    110.318909     0.000000    -0.006772   110.312137
	   41 B(10,7,12)      =    109.142422    -0.000001     0.001184   109.143606
	   42 B(10,13,16)     =    114.631147     0.000015     0.022166   114.653313
	   43 B(10,13,17)     =    108.459951    -0.000006    -0.016497   108.443454
	   44 B(10,13,18)     =    109.237482    -0.000003     0.003813   109.241295
	   45 B(11,7,12)      =    106.660892     0.000000    -0.014107   106.646784
	   46 B(13,10,14)     =    109.135084    -0.000004     0.002442   109.137526
	   47 B(13,10,15)     =    108.456613    -0.000007    -0.018659   108.437954
	   48 B(13,16,19)     =    110.990400     0.000001     0.002853   110.993253
	   49 B(13,16,20)     =    111.978601     0.000004     0.006975   111.985576
	   50 B(13,16,21)     =    110.764907    -0.000002    -0.003644   110.761263
	   51 B(14,10,15)     =    106.140598     0.000003    -0.006120   106.134478
	   52 B(16,13,17)     =    108.683966    -0.000005    -0.015567   108.668399
	   53 B(16,13,18)     =    109.350437    -0.000003     0.008280   109.358718
	   54 B(17,13,18)     =    106.132835     0.000002    -0.004509   106.128326
	   55 B(19,16,20)     =    107.709697    -0.000001     0.005196   107.714893
	   56 B(19,16,21)     =    107.696308    -0.000000    -0.003634   107.692675
	   57 B(20,16,21)     =    107.514633    -0.000002    -0.008237   107.506397
	   58 D(1,2,3,4)      =   -176.437516     0.000001     0.149921  -176.287595
	   59 D(1,2,3,5)      =    -55.304557     0.000001     0.140265   -55.164293
	   60 D(1,2,3,6)      =     63.495175    -0.000001     0.114509    63.609685
	   61 D(2,3,4,7)      =     71.262130    -0.000000     0.020010    71.282140
	   62 *D(2,3,4,8)     =    -49.999992    -0.000000    -0.000000   -49.999992
	   63 D(2,3,4,9)      =   -166.219446     0.000000     0.037393  -166.182053
	   64 D(3,4,7,10)     =   -177.319338    -0.000000     0.019176  -177.300163
	   65 D(3,4,7,11)     =    -54.732507     0.000000     0.026388   -54.706118
	   66 D(3,4,7,12)     =     61.234990     0.000000     0.020123    61.255113
	   67 D(4,7,10,13)    =   -176.911824     0.000001     0.278869  -176.632955
	   68 D(4,7,10,14)    =     60.197822     0.000000     0.243348    60.441170
	   69 D(4,7,10,15)    =    -55.241696     0.000001     0.257494   -54.984201
	   70 D(5,3,4,7)      =    -50.150834    -0.000000     0.027816   -50.123018
	   71 D(5,3,4,8)      =   -171.412956    -0.000000     0.007806  -171.405149
	   72 D(5,3,4,9)      =     72.367590     0.000000     0.045199    72.412789
	   73 D(6,3,4,7)      =   -168.385376    -0.000000     0.033490  -168.351886
	   74 D(6,3,4,8)      =     70.352502    -0.000000     0.013480    70.365982
	   75 D(6,3,4,9)      =    -45.866952     0.000000     0.050872   -45.816079
	   76 D(7,10,13,16)   =    -65.648684    -0.000001    -0.692281   -66.340965
	   77 D(7,10,13,17)   =    172.711024    -0.000001    -0.674864   172.036160
	   78 D(7,10,13,18)   =     57.449173    -0.000001    -0.662588    56.786585
	   79 D(8,4,7,10)     =    -56.821170    -0.000000     0.038402   -56.782768
	   80 D(8,4,7,11)     =     65.765662     0.000001     0.045615    65.811276
	   81 D(8,4,7,12)     =   -178.266842     0.000000     0.039350  -178.227492
	   82 D(9,4,7,10)     =     60.850343    -0.000001    -0.000998    60.849344
	   83 D(9,4,7,11)     =   -176.562826    -0.000000     0.006214  -176.556611
	   84 D(9,4,7,12)     =    -60.595329    -0.000001    -0.000050   -60.595380
	   85 D(10,13,16,19)  =    -56.807326     0.000001     0.233059   -56.574267
	   86 D(10,13,16,20)  =     63.603510     0.000001     0.246423    63.849933
	   87 D(10,13,16,21)  =   -176.389339     0.000001     0.238146  -176.151193
	   88 D(11,7,10,13)   =     61.431997     0.000001     0.255054    61.687052
	   89 D(11,7,10,14)   =    -61.458357    -0.000000     0.219533   -61.238823
	   90 D(11,7,10,15)   =   -176.897874     0.000000     0.233680  -176.664194
	   91 D(12,7,10,13)   =    -55.450077     0.000001     0.275363   -55.174715
	   92 D(12,7,10,14)   =   -178.340431    -0.000000     0.239842  -178.100590
	   93 D(12,7,10,15)   =     66.220051     0.000000     0.253988    66.474039
	   94 D(14,10,13,16)  =     57.288812    -0.000001    -0.651360    56.637451
	   95 D(14,10,13,17)  =    -64.351481    -0.000000    -0.633943   -64.985424
	   96 D(14,10,13,18)  =   -179.613331     0.000000    -0.621667  -180.234999
	   97 D(15,10,13,16)  =    172.503473    -0.000001    -0.667397   171.836076
	   98 D(15,10,13,17)  =     50.863180    -0.000001    -0.649980    50.213200
	   99 D(15,10,13,18)  =    -64.398670    -0.000000    -0.637704   -65.036374
	  100 D(17,13,16,19)  =     64.710520     0.000000     0.215163    64.925684
	  101 D(17,13,16,20)  =   -174.878644     0.000000     0.228527  -174.650117
	  102 D(17,13,16,21)  =    -54.871493     0.000000     0.220250   -54.651243
	  103 D(18,13,16,19)  =   -179.844449    -0.000000     0.205721  -179.638728
	  104 D(18,13,16,20)  =    -59.433614    -0.000000     0.219085   -59.214529
	  105 D(18,13,16,21)  =     60.573538    -0.000000     0.210808    60.784345
	 ---------------------------------------------------------------------------

  ==> Convergence Check <==

  Measures of convergence in internal coordinates in au.
  Criteria marked as inactive (o), active & met (*), and active & unmet ( ).
  ---------------------------------------------------------------------------------------------
   Step     Total Energy     Delta E     MAX Force     RMS Force      MAX Disp      RMS Disp   
  ---------------------------------------------------------------------------------------------
    Convergence Criteria    1.00e-06 *    3.00e-04 *             o    1.20e-03 *             o
  ---------------------------------------------------------------------------------------------
      4    -310.33281647    1.86e-07 *    2.41e-04 *    5.34e-05 o    1.21e-02      3.80e-03 o  ~
  ---------------------------------------------------------------------------------------------


  **** Optimization is complete! (in 4 steps) ****

  ==> Optimization Summary <==

  Measures of convergence in internal coordinates in au.
  --------------------------------------------------------------------------------------------------------------- ~
   Step         Total Energy             Delta E       MAX Force       RMS Force        MAX Disp        RMS Disp  ~
  --------------------------------------------------------------------------------------------------------------- ~
      1    -310.332670176957   -310.332670176957      0.00339398      0.00060809      0.06905116      0.01900765  ~
      2    -310.332792538762     -0.000122361805      0.00106072      0.00025550      0.02921195      0.00903772  ~
      3    -310.332816656859     -0.000024118097      0.00017342      0.00004758      0.01584969      0.00586852  ~
      4    -310.332816471262      0.000000185597      0.00024079      0.00005335      0.01208258      0.00379511  ~
  --------------------------------------------------------------------------------------------------------------- ~

	Writing optimization data to binary file.
	Final energy is   -310.3328164712618
	Final (previous) structure:
	Cartesian Geometry (in Angstrom)
	    H    -3.0962886243   2.0272091861  -0.2806803755
	    O    -2.4364421423   1.4077491040  -0.5313643387
	    C    -2.5099691545   0.2658340093   0.2833112718
	    C    -1.3781626887  -0.6733429460  -0.0885175324
	    H    -2.4402626854   0.5396196936   1.3340383142
	    H    -3.4630228362  -0.2359664054   0.1363640603
	    C    -0.0017363765  -0.1715955182   0.3437248344
	    H    -1.3906387585  -0.8005688142  -1.1665369466
	    H    -1.5732634992  -1.6446679929   0.3569347312
	    C     1.1285468411  -1.0989453449  -0.0971433481
	    H     0.1476559539   0.8216275600  -0.0603341306
	    H     0.0189420529  -0.0739354982   1.4275119396
	    C     2.5218331571  -0.6798404686   0.3749914698
	    H     1.1274306766  -1.1741448021  -1.1821798899
	    H     0.9255504299  -2.0998433829   0.2753649754
	    C     3.0261725437   0.6336850554  -0.2177412783
	    H     3.2230739681  -1.4686047793   0.1197099515
	    H     2.5266756627  -0.6108279936   1.4597783195
	    H     3.0296877799   0.5947899414  -1.3023386094
	    H     2.4121637747   1.4748823601   0.0797944205
	    H     4.0398281664   0.8382471552   0.1079806091
	Saving final (previous) structure.
			--------------------------
			 OPTKING Finished Execution 
			--------------------------

    Final optimized geometry and variables:
    Molecular point group: c1
    Full point group: C1

    Geometry (in Angstrom), charge = 0, multiplicity = 1:

    H           -3.096288387862     2.027209031281    -0.280680354080
    O           -2.436441956199     1.407748996537    -0.531364298172
    C           -2.509968962818     0.265833989002     0.283311250194
    C           -1.378162583496    -0.673342894582    -0.088517525682
    H           -2.440262499076     0.539619652428     1.334038212331
    H           -3.463022571709    -0.235966387385     0.136364049880
    C           -0.001736376410    -0.171595505124     0.343724808158
    H           -1.390638652342    -0.800568753035    -1.166536857502
    H           -1.573263379057    -1.644667867277     0.356934703967
    C            1.128546754915    -1.098945261026    -0.097143340653
    H            0.147655942634     0.821627497272    -0.060334126038
    H            0.018942051455    -0.073935492584     1.427511830544
    C            2.521832964478    -0.679840416686     0.374991441168
    H            1.127430590529    -1.174144712471    -1.182179799614
    H            0.925550359193    -2.099843222595     0.275364954328
    C            3.026172312607     0.633685007040    -0.217741261688
    H            3.223073721942    -1.468604667176     0.119709942350
    H            2.526675469791    -0.610827947000     1.459778208054
    H            3.029687548565     0.594789895989    -1.302338509995
    H            2.412163590523     1.474882247511     0.079794414402
    H            4.039827857926     0.838247091232     0.107980600810

	Cleaning optimization helper files.


Properties will be evaluated at   0.000000,   0.000000,   0.000000 Bohr

Properties computed using the  density matrix

  Nuclear Dipole Moment: (a.u.)
     X:     5.1327      Y:    -1.6921      Z:     1.2212

  Electronic Dipole Moment: (a.u.)
     X:    -5.5499      Y:     1.6318      Z:    -0.7774

  Dipole Moment: (a.u.)
     X:    -0.4172      Y:    -0.0603      Z:     0.4438     Total:     0.6121

  Dipole Moment: (Debye)
     X:    -1.0605      Y:    -0.1534      Z:     1.1281     Total:     1.5559

  Quadrupole Moment: (Debye Ang)
    XX:   -41.4978     YY:   -45.8138     ZZ:   -47.5878
    XY:    -2.3986     XZ:    -2.6932     YZ:     1.4596

  Traceless Quadrupole Moment: (Debye Ang)
    XX:     3.4686     YY:    -0.8473     ZZ:    -2.6213
    XY:    -2.3986     XZ:    -2.6932     YZ:     1.4596

  Mulliken Charges: (a.u.)
   Center  Symbol    Alpha    Beta     Spin     Total
       1     H     0.39577  0.39577  0.00000  0.20846
       2     O     4.19841  4.19841  0.00000 -0.39682
       3     C     2.97339  2.97339  0.00000  0.05323
       4     C     3.09094  3.09094  0.00000 -0.18188
       5     H     0.47412  0.47412  0.00000  0.05176
       6     H     0.46514  0.46514  0.00000  0.06972
       7     C     3.09395  3.09395  0.00000 -0.18790
       8     H     0.45152  0.45152  0.00000  0.09696
       9     H     0.45256  0.45256  0.00000  0.09488
      10     C     3.09469  3.09469  0.00000 -0.18938
      11     H     0.44323  0.44323  0.00000  0.11354
      12     H     0.45882  0.45882  0.00000  0.08235
      13     C     3.08979  3.08979  0.00000 -0.17957
      14     H     0.45347  0.45347  0.00000  0.09306
      15     H     0.45169  0.45169  0.00000  0.09662
      16     C     3.15184  3.15184  0.00000 -0.30369
      17     H     0.44941  0.44941  0.00000  0.10119
      18     H     0.45579  0.45579  0.00000  0.08842
      19     H     0.45477  0.45477  0.00000  0.09045
      20     H     0.45300  0.45300  0.00000  0.09400
      21     H     0.44771  0.44771  0.00000  0.10459

   Total alpha = 29.00000, Total beta = 29.00000, Total charge = -0.00000


*** PSI4 exiting successfully. Buy a developer a beer!
