    -----------------------------------------------------------------------
          Psi4: An Open-Source Ab Initio Electronic Structure Package
                              Psi4 1.0.54 Driver

                          Git: Rev {master} 8d4cec3 dirty

    J. M. Turney, A. C. Simmonett, R. M. Parrish, E. G. Hohenstein,
    F. A. Evangelista, J. T. Fermann, B. J. Mintz, L. A. Burns, J. J. Wilke,
    M. L. Abrams, N. J. Russ, M. L. Leininger, C. L. Janssen, E. T. Seidl,
    W. D. Allen, H. F. Schaefer, R. A. King, E. F. Valeev, C. D. Sherrill,
    and T. D. Crawford, WIREs Comput. Mol. Sci. 2, 556-565 (2012)
    (doi: 10.1002/wcms.93)

                         Additional Contributions by
    A. E. DePrince, U. Bozkaya, A. Yu. Sokolov, D. G. A. Smith, R. Di Remigio,
    R. M. Richard, J. F. Gonthier, H. R. McAlexander, M. Saitow, and
    B. P. Pritchard
    -----------------------------------------------------------------------


    Psi4 started on: Sat Sep 10 15:58:38 2016

    Process ID:  37910
    PSI4DATADIR: /export131/home/mjharvey/miniconda3/share/psi4
    Memory level set to 256.000 MB

  ==> Input File <==

--------------------------------------------------------------------------
set {
	reference rhf
	basis cc-pvtz
}


set_num_threads( 4 )
memory 2 gb

molecule MOL {
0 1

H	 2.612799	 0.507749	 0.376498
O	 2.063695	 -0.083403	 -0.105237
C	 0.742924	 0.005675	 0.350750
H	 0.731380	 0.039219	 1.440080
C	 -0.064076	 -1.193495	 -0.124425
C	 -0.047832	 1.190568	 -0.194462
H	 0.194729	 -1.376165	 -1.161308
H	 0.163013	 -2.094508	 0.429933
C	 -1.533112	 -0.752002	 0.006102
H	 0.148003	 1.266545	 -1.259275
H	 0.226235	 2.136493	 0.259722
C	 -1.506634	 0.799189	 0.067162
H	 -2.124360	 -1.110499	 -0.826089
H	 -1.983103	 -1.158030	 0.903403
H	 -2.183808	 1.252169	 -0.644677
H	 -1.813926	 1.138698	 1.049457

	symmetry c1
}
set optking {
	frozen_dihedral = ("
		1 2 3 6
	")
}

ee,wfn = optimize('scf', return_wfn=True)
oeprop( wfn, 'DIPOLE', 'QUADRUPOLE', 'MULLIKEN_CHARGES')
f=open( 'psi4out.xyz', 'w' )
f.write( "16  " )
f.write( str(ee) + "\n" )
f.write( MOL.save_string_xyz() )
f.close()
--------------------------------------------------------------------------

  Memory set to   2.000 GiB by Python script.
gradient() will perform analytic gradient computation.

*** tstart() called on cx1-27-1-2
*** at Sat Sep 10 15:58:39 2016


         ---------------------------------------------------------
                                   SCF
            by Justin Turney, Rob Parrish, and Andy Simmonett
                              RHF Reference
                        4 Threads,   2000 MiB Core
         ---------------------------------------------------------

  ==> Geometry <==

    Molecular point group: c1
    Full point group: C1

    Geometry (in Angstrom), charge = 0, multiplicity = 1:

       Center              X                  Y                   Z               Mass       
    ------------   -----------------  -----------------  -----------------  -----------------
           H          2.612295939908     0.509241041907     0.374750024481     1.007825032070
           O          2.063191939908    -0.081910958093    -0.106984975519    15.994914619560
           C          0.742420939908     0.007167041907     0.349002024481    12.000000000000
           H          0.730876939908     0.040711041907     1.438332024481     1.007825032070
           C         -0.064579060092    -1.192002958093    -0.126172975519    12.000000000000
           C         -0.048335060092     1.192060041907    -0.196209975519    12.000000000000
           H          0.194225939908    -1.374672958093    -1.163055975519     1.007825032070
           H          0.162509939908    -2.093015958093     0.428185024481     1.007825032070
           C         -1.533615060092    -0.750509958093     0.004354024481    12.000000000000
           H          0.147499939908     1.268037041907    -1.261022975519     1.007825032070
           H          0.225731939908     2.137985041907     0.257974024481     1.007825032070
           C         -1.507137060092     0.800681041907     0.065414024481    12.000000000000
           H         -2.124863060092    -1.109006958093    -0.827836975519     1.007825032070
           H         -1.983606060092    -1.156537958093     0.901655024481     1.007825032070
           H         -2.184311060092     1.253661041907    -0.646424975519     1.007825032070
           H         -1.814429060092     1.140190041907     1.047709024481     1.007825032070

  Running in c1 symmetry.

  Rotational constants: A =      0.21682  B =      0.10197  C =      0.07614 [cm^-1]
  Rotational constants: A =   6500.22918  B =   3056.89840  C =   2282.53831 [MHz]
  Nuclear repulsion =  255.540055997526878

  Charge       = 0
  Multiplicity = 1
  Electrons    = 48
  Nalpha       = 24
  Nbeta        = 24

  ==> Algorithm <==

  SCF Algorithm Type is DF.
  DIIS enabled.
  MOM disabled.
  Fractional occupation disabled.
  Guess Type is SAD.
  Energy threshold   = 1.00e-08
  Density threshold  = 1.00e-08
  Integral threshold = 0.00e+00

  ==> Primary Basis <==

  Basis Set: CC-PVTZ
    Number of shells: 120
    Number of basis function: 320
    Number of Cartesian functions: 360
    Spherical Harmonics?: true
    Max angular momentum: 3

  ==> Pre-Iterations <==

   -------------------------------------------------------
    Irrep   Nso     Nmo     Nalpha   Nbeta   Ndocc  Nsocc
   -------------------------------------------------------
     A        320     320       0       0       0       0
   -------------------------------------------------------
    Total     320     320      24      24      24       0
   -------------------------------------------------------

  ==> Integral Setup <==

  ==> DFJK: Density-Fitted J/K Matrices <==

    J tasked:                  Yes
    K tasked:                  Yes
    wK tasked:                  No
    OpenMP threads:              4
    Integrals threads:           4
    Memory (MB):              1430
    Algorithm:                Core
    Integral Cache:           NONE
    Schwarz Cutoff:          1E-12
    Fitting Condition:       1E-12

   => Auxiliary Basis Set <=

  Basis Set: 
    Number of shells: 250
    Number of basis function: 774
    Number of Cartesian functions: 926
    Spherical Harmonics?: true
    Max angular momentum: 4

  Minimum eigenvalue in the overlap matrix is 1.9022271841E-04.
  Using Symmetric Orthogonalization.
  SCF Guess: Superposition of Atomic Densities via on-the-fly atomic UHF.

  ==> Iterations <==

                           Total Energy        Delta E     RMS |[F,P]|

   @DF-RHF iter   0:  -273.30628976689241   -2.73306e+02   1.55652e-02 
   @DF-RHF iter   1:  -269.96400505139309    3.34228e+00   1.45063e-03 
   @DF-RHF iter   2:  -270.09489174961186   -1.30887e-01   5.99843e-04 DIIS
   @DF-RHF iter   3:  -270.11303065476159   -1.81389e-02   2.17380e-04 DIIS
   @DF-RHF iter   4:  -270.11647723724207   -3.44658e-03   5.22135e-05 DIIS
   @DF-RHF iter   5:  -270.11668680007347   -2.09563e-04   1.76288e-05 DIIS
   @DF-RHF iter   6:  -270.11671688519436   -3.00851e-05   5.89449e-06 DIIS
   @DF-RHF iter   7:  -270.11672056963107   -3.68444e-06   1.59795e-06 DIIS
   @DF-RHF iter   8:  -270.11672094254186   -3.72911e-07   4.31059e-07 DIIS
   @DF-RHF iter   9:  -270.11672096822122   -2.56794e-08   1.39346e-07 DIIS
   @DF-RHF iter  10:  -270.11672097071346   -2.49224e-09   3.37860e-08 DIIS
   @DF-RHF iter  11:  -270.11672097085182   -1.38357e-10   9.89254e-09 DIIS

  ==> Post-Iterations <==

    Orbital Energies (a.u.)
    -----------------------

    Doubly Occupied:                                                      

       1A    -20.546076     2A    -11.267554     3A    -11.214057  
       4A    -11.212684     5A    -11.208576     6A    -11.206578  
       7A     -1.366028     8A     -1.114425     9A     -0.965666  
      10A     -0.949082    11A     -0.787099    12A     -0.776957  
      13A     -0.711549    14A     -0.656217    15A     -0.620144  
      16A     -0.585922    17A     -0.564043    18A     -0.525868  
      19A     -0.512983    20A     -0.480659    21A     -0.470218  
      22A     -0.456472    23A     -0.451282    24A     -0.418665  

    Virtual:                                                              

      25A      0.135353    26A      0.149708    27A      0.167767  
      28A      0.177518    29A      0.205573    30A      0.215227  
      31A      0.224233    32A      0.227865    33A      0.230933  
      34A      0.276031    35A      0.306837    36A      0.312042  
      37A      0.330671    38A      0.373230    39A      0.376472  
      40A      0.402235    41A      0.417777    42A      0.422316  
      43A      0.445641    44A      0.465713    45A      0.496500  
      46A      0.506873    47A      0.544271    48A      0.558983  
      49A      0.565512    50A      0.580949    51A      0.590310  
      52A      0.605154    53A      0.609415    54A      0.618082  
      55A      0.625807    56A      0.650753    57A      0.657223  
      58A      0.663381    59A      0.671773    60A      0.676899  
      61A      0.682749    62A      0.699337    63A      0.712294  
      64A      0.721081    65A      0.732975    66A      0.787099  
      67A      0.812207    68A      0.830930    69A      0.839598  
      70A      0.909720    71A      0.927084    72A      0.946054  
      73A      0.977835    74A      1.007467    75A      1.024212  
      76A      1.037200    77A      1.040055    78A      1.061815  
      79A      1.100384    80A      1.113404    81A      1.144495  
      82A      1.170662    83A      1.181215    84A      1.203525  
      85A      1.219224    86A      1.224162    87A      1.242549  
      88A      1.246064    89A      1.271209    90A      1.299572  
      91A      1.323207    92A      1.326770    93A      1.338009  
      94A      1.347992    95A      1.359017    96A      1.360601  
      97A      1.374067    98A      1.382934    99A      1.399753  
     100A      1.415745   101A      1.440943   102A      1.456139  
     103A      1.476469   104A      1.481117   105A      1.496585  
     106A      1.528177   107A      1.544358   108A      1.551855  
     109A      1.569001   110A      1.590901   111A      1.608226  
     112A      1.612301   113A      1.628357   114A      1.653489  
     115A      1.679528   116A      1.702497   117A      1.722256  
     118A      1.730589   119A      1.765974   120A      1.780696  
     121A      1.833287   122A      1.844545   123A      1.855000  
     124A      1.890517   125A      1.903725   126A      1.955789  
     127A      1.961667   128A      1.980546   129A      2.002530  
     130A      2.189041   131A      2.277784   132A      2.322023  
     133A      2.418595   134A      2.444330   135A      2.588935  
     136A      2.613430   137A      2.690578   138A      2.699845  
     139A      2.715766   140A      2.722729   141A      2.755547  
     142A      2.776441   143A      2.794000   144A      2.821399  
     145A      2.839230   146A      2.863698   147A      2.874752  
     148A      2.881482   149A      2.900910   150A      2.918605  
     151A      2.932013   152A      2.963372   153A      2.990777  
     154A      2.995736   155A      3.038427   156A      3.045730  
     157A      3.079261   158A      3.095772   159A      3.104255  
     160A      3.139222   161A      3.146775   162A      3.171467  
     163A      3.206455   164A      3.232915   165A      3.252481  
     166A      3.265188   167A      3.281795   168A      3.305580  
     169A      3.318099   170A      3.333278   171A      3.361274  
     172A      3.384975   173A      3.411002   174A      3.420335  
     175A      3.425830   176A      3.441262   177A      3.446077  
     178A      3.466899   179A      3.478063   180A      3.489433  
     181A      3.495541   182A      3.512878   183A      3.529258  
     184A      3.531680   185A      3.539672   186A      3.575081  
     187A      3.590767   188A      3.604492   189A      3.628739  
     190A      3.664438   191A      3.694809   192A      3.703072  
     193A      3.708302   194A      3.725334   195A      3.739286  
     196A      3.792695   197A      3.808719   198A      3.832971  
     199A      3.846661   200A      3.878607   201A      3.899699  
     202A      3.917469   203A      3.926351   204A      3.944379  
     205A      3.960369   206A      3.968591   207A      3.989730  
     208A      4.003339   209A      4.022150   210A      4.031047  
     211A      4.080499   212A      4.097495   213A      4.109016  
     214A      4.114497   215A      4.127280   216A      4.129225  
     217A      4.155316   218A      4.164528   219A      4.182156  
     220A      4.201776   221A      4.213488   222A      4.227767  
     223A      4.257866   224A      4.269855   225A      4.279634  
     226A      4.297440   227A      4.313085   228A      4.333870  
     229A      4.351441   230A      4.370859   231A      4.383704  
     232A      4.393695   233A      4.410933   234A      4.425429  
     235A      4.439186   236A      4.477894   237A      4.485412  
     238A      4.513637   239A      4.541633   240A      4.546507  
     241A      4.568774   242A      4.582327   243A      4.601173  
     244A      4.630125   245A      4.643606   246A      4.662304  
     247A      4.679725   248A      4.700145   249A      4.707643  
     250A      4.726053   251A      4.742038   252A      4.782312  
     253A      4.797269   254A      4.810492   255A      4.870679  
     256A      4.883208   257A      4.901551   258A      4.924794  
     259A      4.995111   260A      5.027712   261A      5.036504  
     262A      5.049963   263A      5.075675   264A      5.082729  
     265A      5.096106   266A      5.116119   267A      5.219567  
     268A      5.255234   269A      5.270778   270A      5.310371  
     271A      5.342421   272A      5.349237   273A      5.383169  
     274A      5.395327   275A      5.409754   276A      5.423481  
     277A      5.461684   278A      5.489597   279A      5.497861  
     280A      5.510661   281A      5.529918   282A      5.556892  
     283A      5.588213   284A      5.646582   285A      5.658166  
     286A      5.684008   287A      5.728317   288A      5.764284  
     289A      5.789187   290A      5.834203   291A      5.842912  
     292A      5.888600   293A      5.934093   294A      5.946493  
     295A      6.026800   296A      6.048446   297A      6.081705  
     298A      6.162314   299A      6.239222   300A      6.273522  
     301A      6.306347   302A      6.375741   303A      6.401755  
     304A      6.489269   305A      6.572914   306A      6.743199  
     307A      7.098764   308A      7.175090   309A      7.252409  
     310A      7.293521   311A      7.446947   312A      7.556340  
     313A      7.784091   314A      8.054079   315A     11.737997  
     316A     12.385640   317A     13.026020   318A     13.336784  
     319A     13.891851   320A     14.015553  

    Final Occupation by Irrep:
              A 
    DOCC [    24 ]

  Energy converged.

  @DF-RHF Final Energy:  -270.11672097085182

   => Energetics <=

    Nuclear Repulsion Energy =            255.5400559975268777
    One-Electron Energy =                -873.1759519417394131
    Two-Electron Energy =                 347.5191749733604638
    DFT Exchange-Correlation Energy =       0.0000000000000000
    Empirical Dispersion Energy =           0.0000000000000000
    PCM Polarization Energy =               0.0000000000000000
    EFP Energy =                            0.0000000000000000
    Total Energy =                       -270.1167209708520431


  Saving occupied orbitals to File 180.

*** tstop() called on cx1-27-1-2 at Sat Sep 10 15:58:46 2016
Module time:
	user time   =      24.86 seconds =       0.41 minutes
	system time =       0.56 seconds =       0.01 minutes
	total time  =          7 seconds =       0.12 minutes
Total time:
	user time   =      24.86 seconds =       0.41 minutes
	system time =       0.56 seconds =       0.01 minutes
	total time  =          7 seconds =       0.12 minutes


Properties will be evaluated at   0.000000,   0.000000,   0.000000 Bohr

Properties computed using the SCF density matrix

  Nuclear Dipole Moment: (a.u.)
     X:    -3.7719      Y:     0.5776      Z:     0.5153

  Electronic Dipole Moment: (a.u.)
     X:     3.5737      Y:    -0.1976      Z:    -0.0703

  Dipole Moment: (a.u.)
     X:    -0.1982      Y:     0.3801      Z:     0.4451     Total:     0.6179

  Dipole Moment: (Debye)
     X:    -0.5038      Y:     0.9661      Z:     1.1312     Total:     1.5706


*** tstart() called on cx1-27-1-2
*** at Sat Sep 10 15:58:46 2016


         ------------------------------------------------------------
                                   SCF GRAD                          
                          Rob Parrish, Justin Turney,                
                       Andy Simmonett, and Alex Sokolov              
         ------------------------------------------------------------

  ==> Geometry <==

    Molecular point group: c1
    Full point group: C1

    Geometry (in Angstrom), charge = 0, multiplicity = 1:

       Center              X                  Y                   Z               Mass       
    ------------   -----------------  -----------------  -----------------  -----------------
           H          2.612295939908     0.509241041907     0.374750024481     1.007825032070
           O          2.063191939908    -0.081910958093    -0.106984975519    15.994914619560
           C          0.742420939908     0.007167041907     0.349002024481    12.000000000000
           H          0.730876939908     0.040711041907     1.438332024481     1.007825032070
           C         -0.064579060092    -1.192002958093    -0.126172975519    12.000000000000
           C         -0.048335060092     1.192060041907    -0.196209975519    12.000000000000
           H          0.194225939908    -1.374672958093    -1.163055975519     1.007825032070
           H          0.162509939908    -2.093015958093     0.428185024481     1.007825032070
           C         -1.533615060092    -0.750509958093     0.004354024481    12.000000000000
           H          0.147499939908     1.268037041907    -1.261022975519     1.007825032070
           H          0.225731939908     2.137985041907     0.257974024481     1.007825032070
           C         -1.507137060092     0.800681041907     0.065414024481    12.000000000000
           H         -2.124863060092    -1.109006958093    -0.827836975519     1.007825032070
           H         -1.983606060092    -1.156537958093     0.901655024481     1.007825032070
           H         -2.184311060092     1.253661041907    -0.646424975519     1.007825032070
           H         -1.814429060092     1.140190041907     1.047709024481     1.007825032070

  Nuclear repulsion =  255.540055997526878

  ==> Basis Set <==

  Basis Set: CC-PVTZ
    Number of shells: 120
    Number of basis function: 320
    Number of Cartesian functions: 360
    Spherical Harmonics?: true
    Max angular momentum: 3

  ==> DFJKGrad: Density-Fitted SCF Gradients <==

    Gradient:                    1
    J tasked:                  Yes
    K tasked:                  Yes
    wK tasked:                  No
    OpenMP threads:              4
    Integrals threads:           4
    Memory (MB):              1430
    Schwarz Cutoff:          0E+00
    Fitting Condition:       1E-12

   => Auxiliary Basis Set <=

  Basis Set: 
    Number of shells: 250
    Number of basis function: 774
    Number of Cartesian functions: 926
    Spherical Harmonics?: true
    Max angular momentum: 4


  -Total Gradient:
     Atom            X                  Y                   Z
    ------   -----------------  -----------------  -----------------
       1        0.000234843910    -0.000296787300     0.001130307821
       2       -0.000914371333    -0.000264825482    -0.001033979834
       3        0.000333321203     0.000683831672    -0.000242248945
       4        0.000085655779     0.000166746161     0.000231984489
       5        0.000794041588    -0.000191510613    -0.000160211873
       6       -0.000082522442    -0.000477480621    -0.000201998866
       7       -0.000062991736    -0.000003890612     0.000033804988
       8       -0.000090186383     0.000010692567    -0.000006900941
       9       -0.000001373366     0.000177447993     0.000223270820
      10       -0.000129642885     0.000020227276    -0.000175180991
      11       -0.000046730843     0.000137612828     0.000160082556
      12       -0.000222730106    -0.000014668349     0.000121944726
      13        0.000050442841    -0.000026297065     0.000002884679
      14       -0.000011458640     0.000048390049    -0.000020463700
      15        0.000032883481     0.000027335633    -0.000010089561
      16        0.000030818938     0.000003175864    -0.000053205368


*** tstop() called on cx1-27-1-2 at Sat Sep 10 15:58:53 2016
Module time:
	user time   =      25.56 seconds =       0.43 minutes
	system time =       0.50 seconds =       0.01 minutes
	total time  =          7 seconds =       0.12 minutes
Total time:
	user time   =      50.50 seconds =       0.84 minutes
	system time =       1.07 seconds =       0.02 minutes
	total time  =         14 seconds =       0.23 minutes

			-----------------------------------------
			 OPTKING 2.0: for geometry optimizations 
			  - R.A. King,  Bethel University        
			-----------------------------------------

	Internal coordinates to be generated automatically.
	Detected frag 1 with atoms:  1 2 3 4 5 6 7 8 9 10 11 12 13 14 15 16
	---Fragment 1 Bond Connectivity---
	 1 : 2
	 2 : 1 3
	 3 : 2 4 5 6
	 4 : 3
	 5 : 3 7 8 9
	 6 : 3 10 11 12
	 7 : 5
	 8 : 5
	 9 : 5 12 13 14
	 10 : 6
	 11 : 6
	 12 : 6 9 15 16
	 13 : 9
	 14 : 9
	 15 : 12
	 16 : 12

	Assuming in current code that numbering for constraints corresponds to unified fragment.
	Frozen dihedral atom list: 
	     1     2     3     6
	---Fragment 1 Geometry and Gradient---
	 H           4.9365239045        0.9623261048        0.7081749146
	 O           3.8988677260       -0.1547892781       -0.2021723041
	 C           1.4029722517        0.0135437464        0.6595182461
	 H           1.3811572533        0.0769327198        2.7180536144
	 C          -0.1220367375       -2.2525591404       -0.2384323691
	 C          -0.0913400262        2.2526670132       -0.3707831183
	 H           0.3670338343       -2.5977554131       -2.1978572709
	 H           0.3070992803       -3.9552269526        0.8091524305
	 C          -2.8981124568       -1.4182582808        0.0082279138
	 H           0.2787344910        2.3962427356       -2.3829880710
	 H           0.4265715459        4.0402062054        0.4875002557
	 C          -2.8480762883        1.5130678890        0.1236145915
	 H          -4.0154092535       -2.0957194303       -1.5643851664
	 H          -3.7484722091       -2.1855400031        1.7038810626
	 H          -4.1277496926        2.3690760327       -1.2215661692
	 H          -3.4287740111        2.1546469186        1.9798831232
	             0.0002348439       -0.0002967873        0.0011303078
	            -0.0009143713       -0.0002648255       -0.0010339798
	             0.0003333212        0.0006838317       -0.0002422489
	             0.0000856558        0.0001667462        0.0002319845
	             0.0007940416       -0.0001915106       -0.0001602119
	            -0.0000825224       -0.0004774806       -0.0002019989
	            -0.0000629917       -0.0000038906        0.0000338050
	            -0.0000901864        0.0000106926       -0.0000069009
	            -0.0000013734        0.0001774480        0.0002232708
	            -0.0001296429        0.0000202273       -0.0001751810
	            -0.0000467308        0.0001376128        0.0001600826
	            -0.0002227301       -0.0000146683        0.0001219447
	             0.0000504428       -0.0000262971        0.0000028847
	            -0.0000114586        0.0000483900       -0.0000204637
	             0.0000328835        0.0000273356       -0.0000100896
	             0.0000308189        0.0000031759       -0.0000532054

	Previous optimization step data not found.  Starting new optimization.

	---Fragment 1 Intrafragment Coordinates---
	 - Coordinate -           - BOHR/RAD -       - ANG/DEG -
	 R(1,2)           =         1.775784	       0.939704
	 R(2,3)           =         2.645816	       1.400105
	 R(3,4)           =         2.059627	       1.089907
	 R(3,5)           =         2.875272	       1.521528
	 R(3,6)           =         2.882388	       1.525294
	 R(5,7)           =         2.048828	       1.084193
	 R(5,8)           =         2.044669	       1.081992
	 R(5,9)           =         2.909209	       1.539487
	 R(6,10)          =         2.050985	       1.085334
	 R(6,11)          =         2.049434	       1.084514
	 R(6,12)          =         2.896728	       1.532882
	 R(9,12)          =         2.934023	       1.552618
	 R(9,13)          =         2.044607	       1.081959
	 R(9,14)          =         2.046234	       1.082820
	 R(12,15)         =         2.044462	       1.081883
	 R(12,16)         =         2.048064	       1.083789
	 B(1,2,3)         =         1.922230	     110.135669
	 B(2,3,4)         =         1.915011	     109.722052
	 B(2,3,5)         =         1.926746	     110.394427
	 B(2,3,6)         =         2.006516	     114.964893
	 B(3,5,7)         =         1.880582	     107.749421
	 B(3,5,8)         =         1.965985	     112.642664
	 B(3,5,9)         =         1.827213	     104.691602
	 B(3,6,10)        =         1.887594	     108.151172
	 B(3,6,11)        =         1.978881	     113.381515
	 B(3,6,12)        =         1.807012	     103.534173
	 B(4,3,5)         =         1.907920	     109.315777
	 B(4,3,6)         =         1.904832	     109.138831
	 B(5,3,6)         =         1.798404	     103.040932
	 B(5,9,12)        =         1.847906	     105.877216
	 B(5,9,13)        =         1.940370	     111.175018
	 B(5,9,14)        =         1.938293	     111.056027
	 B(6,12,9)        =         1.838591	     105.343488
	 B(6,12,15)       =         1.956782	     112.115359
	 B(6,12,16)       =         1.922546	     110.153793
	 B(7,5,8)         =         1.875058	     107.432931
	 B(7,5,9)         =         1.936052	     110.927591
	 B(8,5,9)         =         1.977569	     113.306332
	 B(9,12,15)       =         1.962497	     112.442809
	 B(9,12,16)       =         1.921738	     110.107473
	 B(10,6,11)       =         1.879912	     107.711009
	 B(10,6,12)       =         1.935892	     110.918419
	 B(11,6,12)       =         1.973291	     113.061246
	 B(12,9,13)       =         1.950455	     111.752855
	 B(12,9,14)       =         1.927434	     110.433860
	 B(13,9,14)       =         1.860883	     106.620745
	 B(15,12,16)      =         1.862636	     106.721195
	 D(1,2,3,4)       =        -0.758193	     -43.441273
	 D(1,2,3,5)       =        -2.862043	    -163.983006
	*D(1,2,3,6)       =         1.396263	      79.999982
	 D(2,3,5,7)       =        -0.749296	     -42.931485
	 D(2,3,5,8)       =         1.315730	      75.385796
	 D(2,3,5,9)       =        -2.811243	    -161.072344
	 D(2,3,6,10)      =         0.772800	      44.278182
	 D(2,3,6,11)      =        -1.310696	     -75.097375
	 D(2,3,6,12)      =         2.827662	     162.013114
	 D(3,5,9,12)      =         0.336827	      19.298792
	 D(3,5,9,13)      =         2.458438	     140.858130
	 D(3,5,9,14)      =        -1.755772	    -100.598312
	 D(3,6,12,9)      =        -0.516785	     -29.609617
	 D(3,6,12,15)     =        -2.656607	    -152.212362
	 D(3,6,12,16)     =         1.555170	      89.104684
	 D(4,3,5,7)       =        -2.857386	    -163.716132
	 D(4,3,5,8)       =        -0.792359	     -45.398851
	 D(4,3,5,9)       =         1.363853	      78.143009
	 D(4,3,6,10)      =         2.932662	     168.029138
	 D(4,3,6,11)      =         0.849165	      48.653582
	 D(4,3,6,12)      =        -1.295661	     -74.235929
	 D(5,3,6,10)      =        -1.324376	     -75.881162
	 D(5,3,6,11)      =         2.875313	     164.743281
	 D(5,3,6,12)      =         0.730486	      41.853770
	 D(5,9,12,6)      =         0.111944	       6.413906
	 D(5,9,12,15)     =         2.248090	     128.806045
	 D(5,9,12,16)     =        -1.960552	    -112.331370
	 D(6,3,5,7)       =         1.401858	      80.320551
	 D(6,3,5,8)       =        -2.816301	    -161.362167
	 D(6,3,5,9)       =        -0.660089	     -37.820307
	 D(6,12,9,13)     =        -2.003164	    -114.772830
	 D(6,12,9,14)     =         2.211638	     126.717532
	 D(7,5,9,12)      =        -1.686988	     -96.657290
	 D(7,5,9,13)      =         0.434623	      24.902048
	 D(7,5,9,14)      =         2.503598	     143.445606
	 D(8,5,9,12)      =         2.485572	     142.412771
	 D(8,5,9,13)      =        -1.676003	     -96.027891
	 D(8,5,9,14)      =         0.392973	      22.515668
	 D(9,12,6,10)     =         1.504093	      86.178179
	 D(9,12,6,11)     =        -2.665306	    -152.710758
	 D(10,6,12,15)    =        -0.635729	     -36.424566
	 D(10,6,12,16)    =        -2.707137	    -155.107520
	 D(11,6,12,15)    =         1.478058	      84.686497
	 D(11,6,12,16)    =        -0.593350	     -33.996457
	 D(13,9,12,15)    =         0.132982	       7.619309
	 D(13,9,12,16)    =         2.207526	     126.481895
	 D(14,9,12,15)    =        -1.935401	    -110.890329
	 D(14,9,12,16)    =         0.139142	       7.972257

	Current energy   :      -270.1167209709

	Generating empirical Hessian (Schlegel '84) for each fragment.
	Taking RFO optimization step.
	Going to follow RFO solution 1.
	Using RFO vector 1.
	Norm of target step-size    0.02784
	Projected energy change by RFO approximation:         0.0000683383

	Back-transformation to cartesian coordinates...
	Could not converge backtransformation.
	Using first guess instead.

	Back-transformation to cartesian coordinates to adjust frozen coordinates...
	Successfully converged to displaced geometry.

	--- Internal Coordinate Step in ANG or DEG, aJ/ANG or AJ/DEG ---
	 ---------------------------------------------------------------------------
	   Coordinate                Previous        Force       Change         New 
	   ----------                --------       ------       ------       ------
	    1 R(1,2)          =      0.939704    -0.004366    -0.000444     0.939261
	    2 R(2,3)          =      1.400105     0.005245     0.000764     1.400870
	    3 R(3,4)          =      1.089907    -0.001945    -0.000355     1.089553
	    4 R(3,5)          =      1.521528     0.002178     0.000703     1.522232
	    5 R(3,6)          =      1.525294    -0.000096     0.000136     1.525431
	    6 R(5,7)          =      1.084193     0.000385     0.000075     1.084268
	    7 R(5,8)          =      1.081992     0.000258     0.000049     1.082041
	    8 R(5,9)          =      1.539487    -0.001525    -0.000296     1.539191
	    9 R(6,10)         =      1.085334    -0.001235    -0.000221     1.085113
	   10 R(6,11)         =      1.084514    -0.001444    -0.000261     1.084252
	   11 R(6,12)         =      1.532882     0.000217    -0.000130     1.532752
	   12 R(9,12)         =      1.552618     0.000541    -0.000146     1.552472
	   13 R(9,13)         =      1.081959     0.000174     0.000039     1.081998
	   14 R(9,14)         =      1.082820     0.000250     0.000053     1.082873
	   15 R(12,15)        =      1.081883     0.000021     0.000005     1.081888
	   16 R(12,16)        =      1.083789     0.000461     0.000085     1.083874
	   17 B(1,2,3)        =    110.135669     0.000045     0.211081   110.346751
	   18 B(2,3,4)        =    109.722052     0.000009     0.163247   109.885299
	   19 B(2,3,5)        =    110.394427     0.000029     0.040296   110.434724
	   20 B(2,3,6)        =    114.964893    -0.000033    -0.286006   114.678886
	   21 B(3,5,7)        =    107.749421    -0.000005    -0.070984   107.678437
	   22 B(3,5,8)        =    112.642664    -0.000011    -0.039818   112.602846
	   23 B(3,5,9)        =    104.691602     0.000017     0.142447   104.834049
	   24 B(3,6,10)       =    108.151172    -0.000005    -0.093025   108.058146
	   25 B(3,6,11)       =    113.381515    -0.000003    -0.010886   113.370630
	   26 B(3,6,12)       =    103.534173     0.000001     0.076117   103.610290
	   27 B(4,3,5)        =    109.315777    -0.000008     0.005040   109.320817
	   28 B(4,3,6)        =    109.138831     0.000015     0.146612   109.285443
	   29 B(5,3,6)        =    103.040932    -0.000014    -0.075123   102.965809
	   30 B(5,9,12)       =    105.877216    -0.000013    -0.040634   105.836582
	   31 B(5,9,13)       =    111.175018     0.000006     0.046588   111.221606
	   32 B(5,9,14)       =    111.056027     0.000002    -0.024645   111.031382
	   33 B(6,12,9)       =    105.343488     0.000009     0.016310   105.359798
	   34 B(6,12,15)      =    112.115359     0.000001     0.011567   112.126927
	   35 B(6,12,16)      =    110.153793    -0.000003     0.011972   110.165765
	   36 B(7,5,8)        =    107.432931     0.000002    -0.037843   107.395088
	   37 B(7,5,9)        =    110.927591    -0.000010    -0.029416   110.898175
	   38 B(8,5,9)        =    113.306332     0.000006     0.031300   113.337632
	   39 B(9,12,15)      =    112.442809    -0.000007    -0.021028   112.421781
	   40 B(9,12,16)      =    110.107473    -0.000001    -0.013039   110.094434
	   41 B(10,6,11)      =    107.711009    -0.000003    -0.058543   107.652466
	   42 B(10,6,12)      =    110.918419     0.000005     0.035774   110.954192
	   43 B(11,6,12)      =    113.061246     0.000004     0.049662   113.110908
	   44 B(12,9,13)      =    111.752855    -0.000000     0.004323   111.757178
	   45 B(12,9,14)      =    110.433860     0.000008     0.012074   110.445934
	   46 B(13,9,14)      =    106.620745    -0.000003     0.002518   106.623263
	   47 B(15,12,16)     =    106.721195     0.000001    -0.005625   106.715570
	   48 D(1,2,3,4)      =    -43.441273    -0.000001    -0.112817   -43.554090
	   49 D(1,2,3,5)      =   -163.983006    -0.000004    -0.250193  -164.233199
	   50 *D(1,2,3,6)     =     79.999982    -0.000000     0.000000    79.999982
	   51 D(2,3,5,7)      =    -42.931485     0.000006     0.583946   -42.347539
	   52 D(2,3,5,8)      =     75.385796     0.000004     0.468195    75.853990
	   53 D(2,3,5,9)      =   -161.072344     0.000007     0.579439  -160.492905
	   54 D(2,3,6,10)     =     44.278182    -0.000001    -0.321644    43.956538
	   55 D(2,3,6,11)     =    -75.097375     0.000001    -0.178431   -75.275805
	   56 D(2,3,6,12)     =    162.013114     0.000000    -0.284372   161.728743
	   57 D(3,5,9,12)     =     19.298792     0.000001    -0.215170    19.083622
	   58 D(3,5,9,13)     =    140.858130    -0.000000    -0.208872   140.649258
	   59 D(3,5,9,14)     =   -100.598312     0.000000    -0.191518  -100.789830
	   60 D(3,6,12,9)     =    -29.609617    -0.000001    -0.069039   -29.678656
	   61 D(3,6,12,15)    =   -152.212362    -0.000000    -0.060722  -152.273084
	   62 D(3,6,12,16)    =     89.104684    -0.000000    -0.069026    89.035658
	   63 D(4,3,5,7)      =   -163.716132    -0.000000     0.352874  -163.363259
	   64 D(4,3,5,8)      =    -45.398851    -0.000002     0.237122   -45.161729
	   65 D(4,3,5,9)      =     78.143009     0.000001     0.348366    78.491375
	   66 D(4,3,6,10)     =    168.029138    -0.000000    -0.198675   167.830463
	   67 D(4,3,6,11)     =     48.653582     0.000002    -0.055462    48.598120
	   68 D(4,3,6,12)     =    -74.235929     0.000001    -0.161403   -74.397332
	   69 D(5,3,6,10)     =    -75.881162    -0.000003    -0.167833   -76.048995
	   70 D(5,3,6,11)     =    164.743281    -0.000001    -0.024620   164.718661
	   71 D(5,3,6,12)     =     41.853770    -0.000001    -0.130561    41.723209
	   72 D(5,9,12,6)     =      6.413906    -0.000000     0.166598     6.580503
	   73 D(5,9,12,15)    =    128.806045     0.000000     0.179306   128.985351
	   74 D(5,9,12,16)    =   -112.331370    -0.000001     0.149878  -112.181492
	   75 D(6,3,5,7)      =     80.320551    -0.000002     0.220930    80.541482
	   76 D(6,3,5,8)      =   -161.362167    -0.000003     0.105179  -161.256988
	   77 D(6,3,5,9)      =    -37.820307    -0.000001     0.216423   -37.603884
	   78 D(6,12,9,13)    =   -114.772830    -0.000000     0.133227  -114.639603
	   79 D(6,12,9,14)    =    126.717532    -0.000001     0.119372   126.836905
	   80 D(7,5,9,12)     =    -96.657290     0.000001    -0.196629   -96.853919
	   81 D(7,5,9,13)     =     24.902048    -0.000000    -0.190331    24.711717
	   82 D(7,5,9,14)     =    143.445606     0.000000    -0.172978   143.272629
	   83 D(8,5,9,12)     =    142.412771     0.000001    -0.148078   142.264694
	   84 D(8,5,9,13)     =    -96.027891    -0.000000    -0.141779   -96.169670
	   85 D(8,5,9,14)     =     22.515668     0.000000    -0.124426    22.391242
	   86 D(9,12,6,10)    =     86.178179    -0.000001    -0.119778    86.058400
	   87 D(9,12,6,11)    =   -152.710758    -0.000001    -0.134569  -152.845328
	   88 D(10,6,12,15)   =    -36.424566    -0.000001    -0.111461   -36.536028
	   89 D(10,6,12,16)   =   -155.107520    -0.000001    -0.119766  -155.227286
	   90 D(11,6,12,15)   =     84.686497    -0.000000    -0.126252    84.560245
	   91 D(11,6,12,16)   =    -33.996457    -0.000000    -0.134557   -34.131013
	   92 D(13,9,12,15)   =      7.619309     0.000000     0.145935     7.765244
	   93 D(13,9,12,16)   =    126.481895    -0.000000     0.116507   126.598402
	   94 D(14,9,12,15)   =   -110.890329     0.000000     0.132081  -110.758248
	   95 D(14,9,12,16)   =      7.972257    -0.000001     0.102653     8.074910
	 ---------------------------------------------------------------------------
	Successfully symmetrized geometry.

  ==> Convergence Check <==

  Measures of convergence in internal coordinates in au.
  Criteria marked as inactive (o), active & met (*), and active & unmet ( ).
  --------------------------------------------------------------------------------------------- ~
   Step     Total Energy     Delta E     MAX Force     RMS Force      MAX Disp      RMS Disp    ~
  --------------------------------------------------------------------------------------------- ~
    Convergence Criteria    1.00e-06 *    3.00e-04 *             o    1.20e-03 *             o  ~
  --------------------------------------------------------------------------------------------- ~
      1    -270.11672097   -2.70e+02      6.37e-04      1.58e-04 o    1.02e-02      2.86e-03 o  ~
  ---------------------------------------------------------------------------------------------

	Writing optimization data to binary file.
	Structure for next step:
	Cartesian Geometry (in Angstrom)
	    H     2.6147765618   0.5129961974   0.3645521347
	    O     2.0622519875  -0.0787768392  -0.1116112493
	    C     0.7430831170   0.0067859656   0.3519714044
	    H     0.7343420027   0.0391728773   1.4410078116
	    C    -0.0658934631  -1.1921250527  -0.1227476106
	    C    -0.0481947511   1.1913146159  -0.1936564542
	    H     0.1957929257  -1.3765784235  -1.1586700568
	    H     0.1598149620  -2.0925741296   0.4331830919
	    C    -1.5350878572  -0.7505648077   0.0021590884
	    H     0.1502243865   1.2668574102  -1.2577965231
	    H     0.2259403879   2.1372306716   0.2598804789
	    C    -1.5074255856   0.8003700806   0.0654514680
	    H    -2.1236448530  -1.1074645803  -0.8326723980
	    H    -1.9884685143  -1.1576575351   0.8973327416
	    H    -2.1835765834   1.2545526813  -0.6466010525
	    H    -1.8160566848   1.1385365387   1.0478835166
			--------------------------
			 OPTKING Finished Execution 
			--------------------------

    Structure for next step:
    Molecular point group: c1
    Full point group: C1

    Geometry (in Angstrom), charge = 0, multiplicity = 1:

    H            2.615230536072     0.512656655234     0.364490431520
    O            2.062705961726    -0.079116381326    -0.111672952574
    C            0.743537091187     0.006446423491     0.351909701131
    H            0.734795976948     0.038833335136     1.440946108416
    C           -0.065439488868    -1.192464594873    -0.122809313779
    C           -0.047740776896     1.190975073710    -0.193718157408
    H            0.196246899941    -1.376917965679    -1.158731759988
    H            0.160268936195    -2.092913671753     0.433121388649
    C           -1.534633882959    -0.750904349825     0.002097385205
    H            0.150678360690     1.266517868059    -1.257858226348
    H            0.226394362134     2.136891129487     0.259818775689
    C           -1.506971611402     0.800030538430     0.065389764786
    H           -2.123190878740    -1.107804122469    -0.832734101224
    H           -1.988014540112    -1.157997077201     0.897271038372
    H           -2.183122609160     1.254213139199    -0.646662755736
    H           -1.815602710554     1.138196996550     1.047821813381

gradient() will perform analytic gradient computation.

*** tstart() called on cx1-27-1-2
*** at Sat Sep 10 15:58:54 2016


         ---------------------------------------------------------
                                   SCF
            by Justin Turney, Rob Parrish, and Andy Simmonett
                              RHF Reference
                        4 Threads,   2000 MiB Core
         ---------------------------------------------------------

  ==> Geometry <==

    Molecular point group: c1
    Full point group: C1

    Geometry (in Angstrom), charge = 0, multiplicity = 1:

       Center              X                  Y                   Z               Mass       
    ------------   -----------------  -----------------  -----------------  -----------------
           H          2.615230536072     0.512656655234     0.364490431520     1.007825032070
           O          2.062705961726    -0.079116381326    -0.111672952574    15.994914619560
           C          0.743537091187     0.006446423491     0.351909701131    12.000000000000
           H          0.734795976948     0.038833335136     1.440946108416     1.007825032070
           C         -0.065439488868    -1.192464594873    -0.122809313779    12.000000000000
           C         -0.047740776896     1.190975073710    -0.193718157408    12.000000000000
           H          0.196246899941    -1.376917965679    -1.158731759988     1.007825032070
           H          0.160268936195    -2.092913671753     0.433121388649     1.007825032070
           C         -1.534633882959    -0.750904349825     0.002097385205    12.000000000000
           H          0.150678360690     1.266517868059    -1.257858226348     1.007825032070
           H          0.226394362134     2.136891129487     0.259818775689     1.007825032070
           C         -1.506971611402     0.800030538430     0.065389764786    12.000000000000
           H         -2.123190878740    -1.107804122469    -0.832734101224     1.007825032070
           H         -1.988014540112    -1.157997077201     0.897271038372     1.007825032070
           H         -2.183122609160     1.254213139199    -0.646662755736     1.007825032070
           H         -1.815602710554     1.138196996550     1.047821813381     1.007825032070

  Running in c1 symmetry.

  Rotational constants: A =      0.21688  B =      0.10193  C =      0.07613 [cm^-1]
  Rotational constants: A =   6501.87806  B =   3055.92630  C =   2282.33120 [MHz]
  Nuclear repulsion =  255.521663885953103

  Charge       = 0
  Multiplicity = 1
  Electrons    = 48
  Nalpha       = 24
  Nbeta        = 24

  ==> Algorithm <==

  SCF Algorithm Type is DF.
  DIIS enabled.
  MOM disabled.
  Fractional occupation disabled.
  Guess Type is READ.
  Energy threshold   = 1.00e-08
  Density threshold  = 1.00e-08
  Integral threshold = 0.00e+00

  ==> Primary Basis <==

  Basis Set: CC-PVTZ
    Number of shells: 120
    Number of basis function: 320
    Number of Cartesian functions: 360
    Spherical Harmonics?: true
    Max angular momentum: 3

  ==> Pre-Iterations <==

   -------------------------------------------------------
    Irrep   Nso     Nmo     Nalpha   Nbeta   Ndocc  Nsocc
   -------------------------------------------------------
     A        320     320       0       0       0       0
   -------------------------------------------------------
    Total     320     320      24      24      24       0
   -------------------------------------------------------

  ==> Integral Setup <==

  ==> DFJK: Density-Fitted J/K Matrices <==

    J tasked:                  Yes
    K tasked:                  Yes
    wK tasked:                  No
    OpenMP threads:              4
    Integrals threads:           4
    Memory (MB):              1430
    Algorithm:                Core
    Integral Cache:           NONE
    Schwarz Cutoff:          1E-12
    Fitting Condition:       1E-12

   => Auxiliary Basis Set <=

  Basis Set: 
    Number of shells: 250
    Number of basis function: 774
    Number of Cartesian functions: 926
    Spherical Harmonics?: true
    Max angular momentum: 4

  Minimum eigenvalue in the overlap matrix is 1.9030639559E-04.
  Using Symmetric Orthogonalization.
  SCF Guess: Reading in previously saved MOs, projecting if necessary.

  Using orbitals from previous SCF, no projection.
  Recomputing DOCC and SOCC from number of alpha and beta electrons from previous calculation.
              A 
    DOCC [    24 ]

  ==> Iterations <==

                           Total Energy        Delta E     RMS |[F,P]|

   @DF-RHF iter   0:  -270.11654405467289   -2.70117e+02   3.48531e-05 
   @DF-RHF iter   1:  -270.11672584297935   -1.81788e-04   5.94839e-06 
   @DF-RHF iter   2:  -270.11672884380050   -3.00082e-06   2.23882e-06 DIIS
   @DF-RHF iter   3:  -270.11672930311545   -4.59315e-07   1.13137e-06 DIIS
   @DF-RHF iter   4:  -270.11672938253355   -7.94181e-08   2.25822e-07 DIIS
   @DF-RHF iter   5:  -270.11672938818595   -5.65240e-09   7.91513e-08 DIIS
   @DF-RHF iter   6:  -270.11672938896254   -7.76595e-10   2.49755e-08 DIIS
   @DF-RHF iter   7:  -270.11672938903212   -6.95763e-11   6.34239e-09 DIIS

  ==> Post-Iterations <==

    Orbital Energies (a.u.)
    -----------------------

    Doubly Occupied:                                                      

       1A    -20.545932     2A    -11.267646     3A    -11.213994  
       4A    -11.212692     5A    -11.208400     6A    -11.206624  
       7A     -1.365709     8A     -1.114318     9A     -0.965573  
      10A     -0.949237    11A     -0.787177    12A     -0.776878  
      13A     -0.711623    14A     -0.656119    15A     -0.620052  
      16A     -0.585600    17A     -0.564115    18A     -0.525970  
      19A     -0.512730    20A     -0.480541    21A     -0.470201  
      22A     -0.456474    23A     -0.451279    24A     -0.418698  

    Virtual:                                                              

      25A      0.135432    26A      0.149762    27A      0.167800  
      28A      0.177557    29A      0.205639    30A      0.215065  
      31A      0.224144    32A      0.227940    33A      0.230991  
      34A      0.276065    35A      0.306694    36A      0.312115  
      37A      0.330582    38A      0.373262    39A      0.376150  
      40A      0.402273    41A      0.417848    42A      0.422162  
      43A      0.445918    44A      0.465571    45A      0.496514  
      46A      0.507105    47A      0.544138    48A      0.558968  
      49A      0.565493    50A      0.581175    51A      0.590397  
      52A      0.605166    53A      0.609330    54A      0.618046  
      55A      0.625771    56A      0.650895    57A      0.657377  
      58A      0.663135    59A      0.671967    60A      0.676770  
      61A      0.682758    62A      0.699460    63A      0.712520  
      64A      0.721138    65A      0.732896    66A      0.787469  
      67A      0.811379    68A      0.830374    69A      0.839954  
      70A      0.909426    71A      0.927213    72A      0.945861  
      73A      0.977232    74A      1.007790    75A      1.024362  
      76A      1.038189    77A      1.040141    78A      1.061765  
      79A      1.100328    80A      1.114609    81A      1.144432  
      82A      1.170571    83A      1.181245    84A      1.203546  
      85A      1.219143    86A      1.224099    87A      1.242442  
      88A      1.245741    89A      1.270833    90A      1.299718  
      91A      1.322882    92A      1.326940    93A      1.338428  
      94A      1.348006    95A      1.359331    96A      1.359964  
      97A      1.374323    98A      1.383231    99A      1.399736  
     100A      1.415855   101A      1.441533   102A      1.455847  
     103A      1.476531   104A      1.480847   105A      1.496541  
     106A      1.528350   107A      1.545032   108A      1.551961  
     109A      1.569169   110A      1.590278   111A      1.607406  
     112A      1.611538   113A      1.627789   114A      1.654036  
     115A      1.680254   116A      1.702140   117A      1.722661  
     118A      1.730521   119A      1.765949   120A      1.780540  
     121A      1.833120   122A      1.844772   123A      1.855217  
     124A      1.890059   125A      1.903356   126A      1.956195  
     127A      1.961470   128A      1.980959   129A      2.003035  
     130A      2.189452   131A      2.277334   132A      2.321112  
     133A      2.418504   134A      2.444024   135A      2.588597  
     136A      2.613537   137A      2.689159   138A      2.699664  
     139A      2.715950   140A      2.722518   141A      2.755964  
     142A      2.776441   143A      2.793195   144A      2.821361  
     145A      2.839488   146A      2.863577   147A      2.874668  
     148A      2.880493   149A      2.900534   150A      2.918695  
     151A      2.932314   152A      2.963444   153A      2.990756  
     154A      2.996328   155A      3.038329   156A      3.045565  
     157A      3.079113   158A      3.096430   159A      3.104186  
     160A      3.139292   161A      3.146902   162A      3.170772  
     163A      3.205948   164A      3.232873   165A      3.252580  
     166A      3.265245   167A      3.281833   168A      3.305944  
     169A      3.318591   170A      3.333965   171A      3.361392  
     172A      3.384889   173A      3.410551   174A      3.420609  
     175A      3.426305   176A      3.441463   177A      3.445986  
     178A      3.467002   179A      3.478293   180A      3.489609  
     181A      3.495932   182A      3.512568   183A      3.529398  
     184A      3.531266   185A      3.539271   186A      3.574704  
     187A      3.590491   188A      3.604253   189A      3.629187  
     190A      3.664624   191A      3.695321   192A      3.702004  
     193A      3.709382   194A      3.725663   195A      3.739428  
     196A      3.792720   197A      3.808979   198A      3.833313  
     199A      3.846500   200A      3.878767   201A      3.899997  
     202A      3.917409   203A      3.926102   204A      3.944425  
     205A      3.960621   206A      3.969345   207A      3.989520  
     208A      4.003372   209A      4.022117   210A      4.029542  
     211A      4.080476   212A      4.096855   213A      4.108741  
     214A      4.114547   215A      4.127360   216A      4.129015  
     217A      4.154375   218A      4.163610   219A      4.182314  
     220A      4.201498   221A      4.212714   222A      4.227259  
     223A      4.258095   224A      4.269845   225A      4.279458  
     226A      4.297849   227A      4.313509   228A      4.333796  
     229A      4.351444   230A      4.370856   231A      4.384249  
     232A      4.394858   233A      4.411820   234A      4.425519  
     235A      4.438886   236A      4.477666   237A      4.486184  
     238A      4.513668   239A      4.541994   240A      4.546653  
     241A      4.567854   242A      4.582829   243A      4.601581  
     244A      4.629867   245A      4.643832   246A      4.662778  
     247A      4.680686   248A      4.700292   249A      4.707128  
     250A      4.725666   251A      4.742139   252A      4.781964  
     253A      4.797664   254A      4.810362   255A      4.870423  
     256A      4.883857   257A      4.900768   258A      4.924239  
     259A      4.995543   260A      5.028396   261A      5.036897  
     262A      5.049735   263A      5.075517   264A      5.082511  
     265A      5.096096   266A      5.115277   267A      5.221362  
     268A      5.253653   269A      5.270172   270A      5.310612  
     271A      5.342363   272A      5.349448   273A      5.382140  
     274A      5.394441   275A      5.409872   276A      5.422756  
     277A      5.461187   278A      5.489340   279A      5.497615  
     280A      5.511363   281A      5.530764   282A      5.555774  
     283A      5.588382   284A      5.646737   285A      5.657962  
     286A      5.684353   287A      5.727728   288A      5.764951  
     289A      5.789873   290A      5.834149   291A      5.843015  
     292A      5.888227   293A      5.933378   294A      5.947831  
     295A      6.027119   296A      6.048666   297A      6.079125  
     298A      6.161844   299A      6.239152   300A      6.270580  
     301A      6.305441   302A      6.376129   303A      6.402153  
     304A      6.488725   305A      6.572859   306A      6.744038  
     307A      7.099894   308A      7.175741   309A      7.251869  
     310A      7.294692   311A      7.446764   312A      7.554286  
     313A      7.783897   314A      8.054861   315A     11.733342  
     316A     12.386886   317A     13.026970   318A     13.336547  
     319A     13.891190   320A     14.016015  

    Final Occupation by Irrep:
              A 
    DOCC [    24 ]

  Energy converged.

  @DF-RHF Final Energy:  -270.11672938903212

   => Energetics <=

    Nuclear Repulsion Energy =            255.5216638859531031
    One-Electron Energy =                -873.1416210073681441
    Two-Electron Energy =                 347.5032277323829248
    DFT Exchange-Correlation Energy =       0.0000000000000000
    Empirical Dispersion Energy =           0.0000000000000000
    PCM Polarization Energy =               0.0000000000000000
    EFP Energy =                            0.0000000000000000
    Total Energy =                       -270.1167293890321162


  Saving occupied orbitals to File 180.

*** tstop() called on cx1-27-1-2 at Sat Sep 10 15:59:00 2016
Module time:
	user time   =      19.19 seconds =       0.32 minutes
	system time =       0.39 seconds =       0.01 minutes
	total time  =          6 seconds =       0.10 minutes
Total time:
	user time   =      71.66 seconds =       1.19 minutes
	system time =       1.58 seconds =       0.03 minutes
	total time  =         21 seconds =       0.35 minutes


Properties will be evaluated at   0.000000,   0.000000,   0.000000 Bohr

Properties computed using the SCF density matrix

  Nuclear Dipole Moment: (a.u.)
     X:    -3.7646      Y:     0.5730      Z:     0.5127

  Electronic Dipole Moment: (a.u.)
     X:     3.5689      Y:    -0.1936      Z:    -0.0679

  Dipole Moment: (a.u.)
     X:    -0.1958      Y:     0.3794      Z:     0.4448     Total:     0.6166

  Dipole Moment: (Debye)
     X:    -0.4976      Y:     0.9644      Z:     1.1306     Total:     1.5671


*** tstart() called on cx1-27-1-2
*** at Sat Sep 10 15:59:00 2016


         ------------------------------------------------------------
                                   SCF GRAD                          
                          Rob Parrish, Justin Turney,                
                       Andy Simmonett, and Alex Sokolov              
         ------------------------------------------------------------

  ==> Geometry <==

    Molecular point group: c1
    Full point group: C1

    Geometry (in Angstrom), charge = 0, multiplicity = 1:

       Center              X                  Y                   Z               Mass       
    ------------   -----------------  -----------------  -----------------  -----------------
           H          2.615230536072     0.512656655234     0.364490431520     1.007825032070
           O          2.062705961726    -0.079116381326    -0.111672952574    15.994914619560
           C          0.743537091187     0.006446423491     0.351909701131    12.000000000000
           H          0.734795976948     0.038833335136     1.440946108416     1.007825032070
           C         -0.065439488868    -1.192464594873    -0.122809313779    12.000000000000
           C         -0.047740776896     1.190975073710    -0.193718157408    12.000000000000
           H          0.196246899941    -1.376917965679    -1.158731759988     1.007825032070
           H          0.160268936195    -2.092913671753     0.433121388649     1.007825032070
           C         -1.534633882959    -0.750904349825     0.002097385205    12.000000000000
           H          0.150678360690     1.266517868059    -1.257858226348     1.007825032070
           H          0.226394362134     2.136891129487     0.259818775689     1.007825032070
           C         -1.506971611402     0.800030538430     0.065389764786    12.000000000000
           H         -2.123190878740    -1.107804122469    -0.832734101224     1.007825032070
           H         -1.988014540112    -1.157997077201     0.897271038372     1.007825032070
           H         -2.183122609160     1.254213139199    -0.646662755736     1.007825032070
           H         -1.815602710554     1.138196996550     1.047821813381     1.007825032070

  Nuclear repulsion =  255.521663885953132

  ==> Basis Set <==

  Basis Set: CC-PVTZ
    Number of shells: 120
    Number of basis function: 320
    Number of Cartesian functions: 360
    Spherical Harmonics?: true
    Max angular momentum: 3

  ==> DFJKGrad: Density-Fitted SCF Gradients <==

    Gradient:                    1
    J tasked:                  Yes
    K tasked:                  Yes
    wK tasked:                  No
    OpenMP threads:              4
    Integrals threads:           4
    Memory (MB):              1430
    Schwarz Cutoff:          0E+00
    Fitting Condition:       1E-12

   => Auxiliary Basis Set <=

  Basis Set: 
    Number of shells: 250
    Number of basis function: 774
    Number of Cartesian functions: 926
    Spherical Harmonics?: true
    Max angular momentum: 4


  -Total Gradient:
     Atom            X                  Y                   Z
    ------   -----------------  -----------------  -----------------
       1        0.000296978721    -0.000695539152     0.000604046372
       2       -0.000315932708     0.000833322422    -0.001024662625
       3        0.000449694574     0.000170568887     0.000735928103
       4       -0.000189857124     0.000021387529     0.000121656029
       5       -0.000016252636     0.000159388448     0.000177052308
       6        0.000045727597    -0.000375531871    -0.000497727682
       7       -0.000045230464     0.000012659579    -0.000015017693
       8        0.000004974769     0.000033637571    -0.000004237447
       9       -0.000136313903    -0.000020601420    -0.000149384857
      10       -0.000039057138     0.000073538790    -0.000024617182
      11        0.000012327968    -0.000037906210    -0.000008742262
      12       -0.000063338498    -0.000138363647     0.000084520719
      13       -0.000074133951    -0.000004557475     0.000008950698
      14        0.000051134376    -0.000004255267     0.000021768004
      15        0.000028535528    -0.000017055036    -0.000012101720
      16       -0.000009257112    -0.000010693147    -0.000017430765


*** tstop() called on cx1-27-1-2 at Sat Sep 10 15:59:06 2016
Module time:
	user time   =      24.17 seconds =       0.40 minutes
	system time =       0.54 seconds =       0.01 minutes
	total time  =          6 seconds =       0.10 minutes
Total time:
	user time   =      95.91 seconds =       1.60 minutes
	system time =       2.12 seconds =       0.04 minutes
	total time  =         27 seconds =       0.45 minutes

			-----------------------------------------
			 OPTKING 2.0: for geometry optimizations 
			  - R.A. King,  Bethel University        
			-----------------------------------------

	Previous internal coordinate definitions found.
	---Fragment 1 Geometry and Gradient---
	 H           4.9420694875        0.9687806786        0.6887870936
	 O           3.8979493603       -0.1495082933       -0.2110312968
	 C           1.4050814720        0.0121819749        0.6650129586
	 H           1.3885631600        0.0733843682        2.7229935172
	 C          -0.1236627122       -2.2534315075       -0.2320759696
	 C          -0.0902169937        2.2506167204       -0.3660742645
	 H           0.3708528953       -2.6019978626       -2.1896856879
	 H           0.3028643970       -3.9550336594        0.8184808068
	 C          -2.9000377530       -1.4190035732        0.0039634836
	 H           0.2847408359        2.3933719130       -2.3770075618
	 H           0.4278233425        4.0381390105        0.4909863302
	 C          -2.8477636356        1.5118386156        0.1235687473
	 H          -4.0122492887       -2.0934464003       -1.5736393928
	 H          -3.7568030290       -2.1882973386        1.6955965295
	 H          -4.1255038458        2.3701193454       -1.2220155087
	 H          -3.4309918891        2.1508806088        1.9800962634
	             0.0002969787       -0.0006955392        0.0006040464
	            -0.0003159327        0.0008333224       -0.0010246626
	             0.0004496946        0.0001705689        0.0007359281
	            -0.0001898571        0.0000213875        0.0001216560
	            -0.0000162526        0.0001593884        0.0001770523
	             0.0000457276       -0.0003755319       -0.0004977277
	            -0.0000452305        0.0000126596       -0.0000150177
	             0.0000049748        0.0000336376       -0.0000042374
	            -0.0001363139       -0.0000206014       -0.0001493849
	            -0.0000390571        0.0000735388       -0.0000246172
	             0.0000123280       -0.0000379062       -0.0000087423
	            -0.0000633385       -0.0001383636        0.0000845207
	            -0.0000741340       -0.0000045575        0.0000089507
	             0.0000511344       -0.0000042553        0.0000217680
	             0.0000285355       -0.0000170550       -0.0000121017
	            -0.0000092571       -0.0000106931       -0.0000174308

	---Fragment 1 Intrafragment Coordinates---
	 - Coordinate -           - BOHR/RAD -       - ANG/DEG -
	 R(1,2)           =         1.774945	       0.939261
	 R(2,3)           =         2.647260	       1.400870
	 R(3,4)           =         2.058957	       1.089553
	 R(3,5)           =         2.876601	       1.522232
	 R(3,6)           =         2.882646	       1.525431
	 R(5,7)           =         2.048970	       1.084268
	 R(5,8)           =         2.044760	       1.082041
	 R(5,9)           =         2.908650	       1.539191
	 R(6,10)          =         2.050567	       1.085113
	 R(6,11)          =         2.048940	       1.084252
	 R(6,12)          =         2.896482	       1.532752
	 R(9,12)          =         2.933747	       1.552472
	 R(9,13)          =         2.044681	       1.081998
	 R(9,14)          =         2.046334	       1.082873
	 R(12,15)         =         2.044471	       1.081888
	 R(12,16)         =         2.048225	       1.083874
	 B(1,2,3)         =         1.925914	     110.346751
	 B(2,3,4)         =         1.917860	     109.885299
	 B(2,3,5)         =         1.927450	     110.434724
	 B(2,3,6)         =         2.001524	     114.678886
	 B(3,5,7)         =         1.879343	     107.678437
	 B(3,5,8)         =         1.965290	     112.602846
	 B(3,5,9)         =         1.829699	     104.834049
	 B(3,6,10)        =         1.885970	     108.058146
	 B(3,6,11)        =         1.978691	     113.370630
	 B(3,6,12)        =         1.808341	     103.610290
	 B(4,3,5)         =         1.908008	     109.320817
	 B(4,3,6)         =         1.907391	     109.285443
	 B(5,3,6)         =         1.797092	     102.965809
	 B(5,9,12)        =         1.847197	     105.836582
	 B(5,9,13)        =         1.941183	     111.221606
	 B(5,9,14)        =         1.937863	     111.031382
	 B(6,12,9)        =         1.838875	     105.359798
	 B(6,12,15)       =         1.956984	     112.126927
	 B(6,12,16)       =         1.922755	     110.165765
	 B(7,5,8)         =         1.874398	     107.395088
	 B(7,5,9)         =         1.935538	     110.898175
	 B(8,5,9)         =         1.978115	     113.337632
	 B(9,12,15)       =         1.962130	     112.421781
	 B(9,12,16)       =         1.921510	     110.094434
	 B(10,6,11)       =         1.878890	     107.652466
	 B(10,6,12)       =         1.936516	     110.954192
	 B(11,6,12)       =         1.974158	     113.110908
	 B(12,9,13)       =         1.950531	     111.757178
	 B(12,9,14)       =         1.927645	     110.445934
	 B(13,9,14)       =         1.860927	     106.623263
	 B(15,12,16)      =         1.862538	     106.715570
	 D(1,2,3,4)       =        -0.760162	     -43.554090
	 D(1,2,3,5)       =        -2.866410	    -164.233199
	*D(1,2,3,6)       =         1.396263	      79.999982
	 D(2,3,5,7)       =        -0.739104	     -42.347539
	 D(2,3,5,8)       =         1.323902	      75.853990
	 D(2,3,5,9)       =        -2.801130	    -160.492905
	 D(2,3,6,10)      =         0.767186	      43.956538
	 D(2,3,6,11)      =        -1.313811	     -75.275805
	 D(2,3,6,12)      =         2.822699	     161.728743
	 D(3,5,9,12)      =         0.333072	      19.083622
	 D(3,5,9,13)      =         2.454793	     140.649258
	 D(3,5,9,14)      =        -1.759114	    -100.789830
	 D(3,6,12,9)      =        -0.517990	     -29.678656
	 D(3,6,12,15)     =        -2.657667	    -152.273084
	 D(3,6,12,16)     =         1.553965	      89.035658
	 D(4,3,5,7)       =        -2.851227	    -163.363259
	 D(4,3,5,8)       =        -0.788221	     -45.161729
	 D(4,3,5,9)       =         1.369933	      78.491375
	 D(4,3,6,10)      =         2.929194	     167.830463
	 D(4,3,6,11)      =         0.848197	      48.598120
	 D(4,3,6,12)      =        -1.298478	     -74.397332
	 D(5,3,6,10)      =        -1.327305	     -76.048995
	 D(5,3,6,11)      =         2.874883	     164.718661
	 D(5,3,6,12)      =         0.728207	      41.723209
	 D(5,9,12,6)      =         0.114851	       6.580503
	 D(5,9,12,15)     =         2.251219	     128.985351
	 D(5,9,12,16)     =        -1.957936	    -112.181492
	 D(6,3,5,7)       =         1.405714	      80.541482
	 D(6,3,5,8)       =        -2.814465	    -161.256988
	 D(6,3,5,9)       =        -0.656312	     -37.603884
	 D(6,12,9,13)     =        -2.000839	    -114.639603
	 D(6,12,9,14)     =         2.213722	     126.836905
	 D(7,5,9,12)      =        -1.690420	     -96.853919
	 D(7,5,9,13)      =         0.431301	      24.711717
	 D(7,5,9,14)      =         2.500579	     143.272629
	 D(8,5,9,12)      =         2.482987	     142.264694
	 D(8,5,9,13)      =        -1.678477	     -96.169670
	 D(8,5,9,14)      =         0.390801	      22.391242
	 D(9,12,6,10)     =         1.502002	      86.058400
	 D(9,12,6,11)     =        -2.667654	    -152.845328
	 D(10,6,12,15)    =        -0.637674	     -36.536028
	 D(10,6,12,16)    =        -2.709227	    -155.227286
	 D(11,6,12,15)    =         1.475855	      84.560245
	 D(11,6,12,16)    =        -0.595699	     -34.131013
	 D(13,9,12,15)    =         0.135529	       7.765244
	 D(13,9,12,16)    =         2.209559	     126.598402
	 D(14,9,12,15)    =        -1.933096	    -110.758248
	 D(14,9,12,16)    =         0.140934	       8.074910

	Current energy   :      -270.1167293890

	Energy change for the previous step:
		Projected    :         0.0000683383
		Actual       :        -0.0000084182

	Performing BFGS update.
	Previous computed or guess Hessian on step 1.
	Steps to be used in Hessian update: 1
	Taking RFO optimization step.
	Going to follow RFO solution 1.
	Using RFO vector 1.
	Norm of target step-size    0.01032
	Projected energy change by RFO approximation:        -0.0000036317

	Back-transformation to cartesian coordinates...
	Successfully converged to displaced geometry.

	Back-transformation to cartesian coordinates to adjust frozen coordinates...
	Successfully converged to displaced geometry.

	--- Internal Coordinate Step in ANG or DEG, aJ/ANG or AJ/DEG ---
	 ---------------------------------------------------------------------------
	   Coordinate                Previous        Force       Change         New 
	   ----------                --------       ------       ------       ------
	    1 R(1,2)          =      0.939261    -0.000352    -0.000073     0.939187
	    2 R(2,3)          =      1.400870    -0.000930    -0.000058     1.400812
	    3 R(3,4)          =      1.089553    -0.001020    -0.000201     1.089352
	    4 R(3,5)          =      1.522232     0.000282     0.000115     1.522347
	    5 R(3,6)          =      1.525431     0.000697     0.000152     1.525583
	    6 R(5,7)          =      1.084268    -0.000011     0.000004     1.084272
	    7 R(5,8)          =      1.082041     0.000240     0.000043     1.082084
	    8 R(5,9)          =      1.539191    -0.000181    -0.000039     1.539152
	    9 R(6,10)         =      1.085113    -0.000182    -0.000049     1.085065
	   10 R(6,11)         =      1.084252     0.000277     0.000024     1.084276
	   11 R(6,12)         =      1.532752    -0.001306    -0.000300     1.532452
	   12 R(9,12)         =      1.552472     0.000642     0.000122     1.552594
	   13 R(9,13)         =      1.081998    -0.000288    -0.000044     1.081954
	   14 R(9,14)         =      1.082873     0.000015     0.000006     1.082879
	   15 R(12,15)        =      1.081888     0.000140     0.000023     1.081911
	   16 R(12,16)        =      1.083874     0.000136     0.000029     1.083903
	   17 B(1,2,3)        =    110.346751    -0.000015    -0.048758   110.297993
	   18 B(2,3,4)        =    109.885299    -0.000006    -0.061873   109.823427
	   19 B(2,3,5)        =    110.434724    -0.000007    -0.033537   110.401187
	   20 B(2,3,6)        =    114.678886     0.000006    -0.004209   114.674677
	   21 B(3,5,7)        =    107.678437     0.000002    -0.013431   107.665006
	   22 B(3,5,8)        =    112.602846     0.000003     0.010785   112.613631
	   23 B(3,5,9)        =    104.834049    -0.000010    -0.016956   104.817093
	   24 B(3,6,10)       =    108.058146    -0.000005    -0.054728   108.003419
	   25 B(3,6,11)       =    113.370630     0.000001     0.019917   113.390547
	   26 B(3,6,12)       =    103.610290     0.000003     0.010189   103.620479
	   27 B(4,3,5)        =    109.320817     0.000004     0.038194   109.359011
	   28 B(4,3,6)        =    109.285443     0.000001     0.055914   109.341357
	   29 B(5,3,6)        =    102.965809     0.000002     0.013962   102.979771
	   30 B(5,9,12)       =    105.836582     0.000009     0.032095   105.868677
	   31 B(5,9,13)       =    111.221606    -0.000006    -0.043366   111.178240
	   32 B(5,9,14)       =    111.031382     0.000000     0.026711   111.058093
	   33 B(6,12,9)       =    105.359798    -0.000006    -0.020523   105.339275
	   34 B(6,12,15)      =    112.126927     0.000002     0.015936   112.142862
	   35 B(6,12,16)      =    110.165765     0.000001    -0.005267   110.160497
	   36 B(7,5,8)        =    107.395088    -0.000002    -0.007413   107.387675
	   37 B(7,5,9)        =    110.898175     0.000004     0.022408   110.920583
	   38 B(8,5,9)        =    113.337632     0.000003     0.004519   113.342151
	   39 B(9,12,15)      =    112.421781     0.000002     0.011530   112.433311
	   40 B(9,12,16)      =    110.094434     0.000002     0.000249   110.094683
	   41 B(10,6,11)      =    107.652466     0.000002     0.006685   107.659151
	   42 B(10,6,12)      =    110.954192     0.000001     0.006802   110.960994
	   43 B(11,6,12)      =    113.110908    -0.000002     0.007979   113.118887
	   44 B(12,9,13)      =    111.757178    -0.000003    -0.016058   111.741119
	   45 B(12,9,14)      =    110.445934    -0.000002     0.005569   110.451503
	   46 B(13,9,14)      =    106.623263     0.000002    -0.004780   106.618483
	   47 B(15,12,16)     =    106.715570    -0.000001    -0.002083   106.713487
	   48 D(1,2,3,4)      =    -43.554090    -0.000000    -0.022047   -43.576137
	   49 D(1,2,3,5)      =   -164.233199     0.000000    -0.008068  -164.241267
	   50 *D(1,2,3,6)     =     79.999982    -0.000000    -0.000000    79.999982
	   51 D(2,3,5,7)      =    -42.347539    -0.000001     0.082306   -42.265233
	   52 D(2,3,5,8)      =     75.853990    -0.000001     0.070847    75.924837
	   53 D(2,3,5,9)      =   -160.492905    -0.000001     0.071382  -160.421524
	   54 D(2,3,6,10)     =     43.956538    -0.000000    -0.024697    43.931841
	   55 D(2,3,6,11)     =    -75.275805    -0.000000    -0.008229   -75.284034
	   56 D(2,3,6,12)     =    161.728743    -0.000000    -0.036242   161.692501
	   57 D(3,5,9,12)     =     19.083622     0.000000    -0.070116    19.013506
	   58 D(3,5,9,13)     =    140.649258     0.000000    -0.094207   140.555052
	   59 D(3,5,9,14)     =   -100.789830    -0.000000    -0.110961  -100.900791
	   60 D(3,6,12,9)     =    -29.678656     0.000000    -0.029591   -29.708248
	   61 D(3,6,12,15)    =   -152.273084     0.000000    -0.039580  -152.312664
	   62 D(3,6,12,16)    =     89.035658     0.000000    -0.043682    88.991976
	   63 D(4,3,5,7)      =   -163.363259     0.000001     0.155658  -163.207601
	   64 D(4,3,5,8)      =    -45.161729     0.000001     0.144199   -45.017530
	   65 D(4,3,5,9)      =     78.491375     0.000001     0.144734    78.636109
	   66 D(4,3,6,10)     =    167.830463    -0.000001    -0.065408   167.765055
	   67 D(4,3,6,11)     =     48.598120    -0.000001    -0.048940    48.549180
	   68 D(4,3,6,12)     =    -74.397332    -0.000001    -0.076953   -74.474285
	   69 D(5,3,6,10)     =    -76.048995     0.000001     0.009257   -76.039738
	   70 D(5,3,6,11)     =    164.718661     0.000001     0.025726   164.744387
	   71 D(5,3,6,12)     =     41.723209     0.000001    -0.002287    41.720922
	   72 D(5,9,12,6)     =      6.580503    -0.000001     0.060758     6.641261
	   73 D(5,9,12,15)    =    128.985351    -0.000001     0.073534   129.058884
	   74 D(5,9,12,16)    =   -112.181492    -0.000000     0.078513  -112.102979
	   75 D(6,3,5,7)      =     80.541482     0.000000     0.068316    80.609798
	   76 D(6,3,5,8)      =   -161.256988     0.000000     0.056857  -161.200131
	   77 D(6,3,5,9)      =    -37.603884     0.000000     0.057392   -37.546492
	   78 D(6,12,9,13)    =   -114.639603     0.000000     0.102383  -114.537221
	   79 D(6,12,9,14)    =    126.836905     0.000001     0.115010   126.951915
	   80 D(7,5,9,12)     =    -96.853919     0.000001    -0.055731   -96.909650
	   81 D(7,5,9,13)     =     24.711717     0.000000    -0.079822    24.631896
	   82 D(7,5,9,14)     =    143.272629    -0.000000    -0.096576   143.176053
	   83 D(8,5,9,12)     =    142.264694     0.000000    -0.065686   142.199008
	   84 D(8,5,9,13)     =    -96.169670    -0.000000    -0.089776   -96.259446
	   85 D(8,5,9,14)     =     22.391242    -0.000000    -0.106531    22.284711
	   86 D(9,12,6,10)    =     86.058400    -0.000000    -0.084627    85.973774
	   87 D(9,12,6,11)    =   -152.845328    -0.000000    -0.065376  -152.910704
	   88 D(10,6,12,15)   =    -36.536028    -0.000000    -0.094615   -36.630643
	   89 D(10,6,12,16)   =   -155.227286    -0.000001    -0.098717  -155.326003
	   90 D(11,6,12,15)   =     84.560245    -0.000000    -0.075365    84.484880
	   91 D(11,6,12,16)   =    -34.131013    -0.000000    -0.079467   -34.210480
	   92 D(13,9,12,15)   =      7.765244     0.000000     0.115158     7.880403
	   93 D(13,9,12,16)   =    126.598402     0.000000     0.120137   126.718539
	   94 D(14,9,12,15)   =   -110.758248     0.000001     0.127786  -110.630462
	   95 D(14,9,12,16)   =      8.074910     0.000001     0.132765     8.207675
	 ---------------------------------------------------------------------------
	Successfully symmetrized geometry.

  ==> Convergence Check <==

  Measures of convergence in internal coordinates in au.
  Criteria marked as inactive (o), active & met (*), and active & unmet ( ).
  ---------------------------------------------------------------------------------------------
   Step     Total Energy     Delta E     MAX Force     RMS Force      MAX Disp      RMS Disp   
  ---------------------------------------------------------------------------------------------
    Convergence Criteria    1.00e-06 *    3.00e-04 *             o    1.20e-03 *             o
  ---------------------------------------------------------------------------------------------
      2    -270.11672939   -8.42e-06      2.03e-04 *    5.14e-05 o    2.72e-03      1.06e-03 o  ~
  ---------------------------------------------------------------------------------------------

	Writing optimization data to binary file.
	Structure for next step:
	Cartesian Geometry (in Angstrom)
	    H     2.6145013799   0.5127030450   0.3630955989
	    O     2.0621576214  -0.0793492019  -0.1127861799
	    C     0.7434665350   0.0065029884   0.3519256198
	    H     0.7368538647   0.0387672732   1.4407798191
	    C    -0.0654616756  -1.1927750799  -0.1223186720
	    C    -0.0481539850   1.1911008408  -0.1934805884
	    H     0.1969260934  -1.3778852662  -1.1579506894
	    H     0.1598519502  -2.0929955501   0.4342258256
	    C    -1.5345042023  -0.7506406804   0.0018601188
	    H     0.1503363570   1.2656960885  -1.2576245293
	    H     0.2261786611   2.1373001464   0.2594027167
	    C    -1.5070659909   0.8003854567   0.0659909657
	    H    -2.1219052502  -1.1068634277  -0.8340164028
	    H    -1.9892799244  -1.1583246191   0.8960639491
	    H    -2.1836896271   1.2550497797  -0.6453400455
	    H    -1.8150701810   1.1379712028   1.0488516337
			--------------------------
			 OPTKING Finished Execution 
			--------------------------

    Structure for next step:
    Molecular point group: c1
    Full point group: C1

    Geometry (in Angstrom), charge = 0, multiplicity = 1:

    H            2.614656962593     0.512680951686     0.363147926550
    O            2.062313204020    -0.079371295197    -0.112733852276
    C            0.743622117689     0.006480895127     0.351977947417
    H            0.737009447339     0.038745179866     1.440832146686
    C           -0.065306092987    -1.192797173251    -0.122266344326
    C           -0.047998402316     1.191078747451    -0.193428260772
    H            0.197081676010    -1.377907359558    -1.157898361807
    H            0.160007532850    -2.093017643423     0.434278153247
    C           -1.534348619643    -0.750662773686     0.001912446433
    H            0.150491939671     1.265673995180    -1.257572201629
    H            0.226334243809     2.137278053107     0.259455044288
    C           -1.506910408254     0.800363363419     0.066043293307
    H           -2.121749667518    -1.106885521040    -0.833964075155
    H           -1.989124341702    -1.158346712404     0.896116276715
    H           -2.183534044461     1.255027686399    -0.645287717902
    H           -1.814914598352     1.137949109477     1.048903961343

gradient() will perform analytic gradient computation.

*** tstart() called on cx1-27-1-2
*** at Sat Sep 10 15:59:07 2016


         ---------------------------------------------------------
                                   SCF
            by Justin Turney, Rob Parrish, and Andy Simmonett
                              RHF Reference
                        4 Threads,   2000 MiB Core
         ---------------------------------------------------------

  ==> Geometry <==

    Molecular point group: c1
    Full point group: C1

[...]
	            -0.0000076167        0.0000074212       -0.0000098610

	---Fragment 1 Intrafragment Coordinates---
	 - Coordinate -           - BOHR/RAD -       - ANG/DEG -
	 R(1,2)           =         1.774807	       0.939187
	 R(2,3)           =         2.647151	       1.400812
	 R(3,4)           =         2.058577	       1.089352
	 R(3,5)           =         2.876819	       1.522347
	 R(3,6)           =         2.882934	       1.525583
	 R(5,7)           =         2.048978	       1.084272
	 R(5,8)           =         2.044842	       1.082084
	 R(5,9)           =         2.908576	       1.539152
	 R(6,10)          =         2.050475	       1.085065
	 R(6,11)          =         2.048985	       1.084276
	 R(6,12)          =         2.895914	       1.532452
	 R(9,12)          =         2.933977	       1.552594
	 R(9,13)          =         2.044597	       1.081954
	 R(9,14)          =         2.046345	       1.082879
	 R(12,15)         =         2.044515	       1.081911
	 R(12,16)         =         2.048280	       1.083903
	 B(1,2,3)         =         1.925063	     110.297993
	 B(2,3,4)         =         1.916780	     109.823427
	 B(2,3,5)         =         1.926864	     110.401187
	 B(2,3,6)         =         2.001451	     114.674677
	 B(3,5,7)         =         1.879109	     107.665006
	 B(3,5,8)         =         1.965479	     112.613631
	 B(3,5,9)         =         1.829403	     104.817093
	 B(3,6,10)        =         1.885015	     108.003419
	 B(3,6,11)        =         1.979038	     113.390547
	 B(3,6,12)        =         1.808519	     103.620479
	 B(4,3,5)         =         1.908675	     109.359011
	 B(4,3,6)         =         1.908367	     109.341357
	 B(5,3,6)         =         1.797336	     102.979771
	 B(5,9,12)        =         1.847757	     105.868677
	 B(5,9,13)        =         1.940426	     111.178240
	 B(5,9,14)        =         1.938329	     111.058093
	 B(6,12,9)        =         1.838517	     105.339275
	 B(6,12,15)       =         1.957262	     112.142862
	 B(6,12,16)       =         1.922663	     110.160497
	 B(7,5,8)         =         1.874269	     107.387675
	 B(7,5,9)         =         1.935929	     110.920583
	 B(8,5,9)         =         1.978194	     113.342151
	 B(9,12,15)       =         1.962331	     112.433311
	 B(9,12,16)       =         1.921515	     110.094683
	 B(10,6,11)       =         1.879007	     107.659151
	 B(10,6,12)       =         1.936635	     110.960994
	 B(11,6,12)       =         1.974297	     113.118887
	 B(12,9,13)       =         1.950250	     111.741119
	 B(12,9,14)       =         1.927742	     110.451503
	 B(13,9,14)       =         1.860844	     106.618483
	 B(15,12,16)      =         1.862502	     106.713487
	 D(1,2,3,4)       =        -0.760547	     -43.576137
	 D(1,2,3,5)       =        -2.866551	    -164.241267
	*D(1,2,3,6)       =         1.396263	      79.999982
	 D(2,3,5,7)       =        -0.737667	     -42.265233
	 D(2,3,5,8)       =         1.325138	      75.924837
	 D(2,3,5,9)       =        -2.799884	    -160.421524
	 D(2,3,6,10)      =         0.766755	      43.931841
	 D(2,3,6,11)      =        -1.313954	     -75.284034
	 D(2,3,6,12)      =         2.822067	     161.692501
	 D(3,5,9,12)      =         0.331848	      19.013506
	 D(3,5,9,13)      =         2.453148	     140.555052
	 D(3,5,9,14)      =        -1.761051	    -100.900791
	 D(3,6,12,9)      =        -0.518507	     -29.708248
	 D(3,6,12,15)     =        -2.658357	    -152.312664
	 D(3,6,12,16)     =         1.553203	      88.991976
	 D(4,3,5,7)       =        -2.848510	    -163.207601
	 D(4,3,5,8)       =        -0.785704	     -45.017530
	 D(4,3,5,9)       =         1.372459	      78.636109
	 D(4,3,6,10)      =         2.928053	     167.765055
	 D(4,3,6,11)      =         0.847343	      48.549180
	 D(4,3,6,12)      =        -1.299821	     -74.474285
	 D(5,3,6,10)      =        -1.327144	     -76.039738
	 D(5,3,6,11)      =         2.875332	     164.744387
	 D(5,3,6,12)      =         0.728167	      41.720922
	 D(5,9,12,6)      =         0.115912	       6.641261
	 D(5,9,12,15)     =         2.252502	     129.058884
	 D(5,9,12,16)     =        -1.956566	    -112.102979
	 D(6,3,5,7)       =         1.406906	      80.609798
	 D(6,3,5,8)       =        -2.813473	    -161.200131
	 D(6,3,5,9)       =        -0.655310	     -37.546492
	 D(6,12,9,13)     =        -1.999052	    -114.537221
	 D(6,12,9,14)     =         2.215729	     126.951915
	 D(7,5,9,12)      =        -1.691392	     -96.909650
	 D(7,5,9,13)      =         0.429908	      24.631896
	 D(7,5,9,14)      =         2.498894	     143.176053
	 D(8,5,9,12)      =         2.481841	     142.199008
	 D(8,5,9,13)      =        -1.680044	     -96.259446
	 D(8,5,9,14)      =         0.388942	      22.284711
	 D(9,12,6,10)     =         1.500525	      85.973774
	 D(9,12,6,11)     =        -2.668795	    -152.910704
	 D(10,6,12,15)    =        -0.639325	     -36.630643
	 D(10,6,12,16)    =        -2.710950	    -155.326003
	 D(11,6,12,15)    =         1.474539	      84.484880
	 D(11,6,12,16)    =        -0.597086	     -34.210480
	 D(13,9,12,15)    =         0.137539	       7.880403
	 D(13,9,12,16)    =         2.211656	     126.718539
	 D(14,9,12,15)    =        -1.930866	    -110.630462
	 D(14,9,12,16)    =         0.143251	       8.207675

	Current energy   :      -270.1167303327

	Energy change for the previous step:
		Projected    :        -0.0000036317
		Actual       :        -0.0000009437

	Performing BFGS update.
	Previous computed or guess Hessian on step 1.
	Steps to be used in Hessian update: 2 1
	Taking RFO optimization step.
	Going to follow RFO solution 1.
	Using RFO vector 1.
	Norm of target step-size    0.01281
	Projected energy change by RFO approximation:        -0.0000029300

	Back-transformation to cartesian coordinates...
	Successfully converged to displaced geometry.

	Back-transformation to cartesian coordinates to adjust frozen coordinates...
	Successfully converged to displaced geometry.

	--- Internal Coordinate Step in ANG or DEG, aJ/ANG or AJ/DEG ---
	 ---------------------------------------------------------------------------
	   Coordinate                Previous        Force       Change         New 
	   ----------                --------       ------       ------       ------
	    1 R(1,2)          =      0.939187     0.000456     0.000026     0.939213
	    2 R(2,3)          =      1.400812     0.000684     0.000116     1.400928
	    3 R(3,4)          =      1.089352    -0.000016    -0.000056     1.089296
	    4 R(3,5)          =      1.522347     0.000003     0.000074     1.522421
	    5 R(3,6)          =      1.525583    -0.000126    -0.000012     1.525571
	    6 R(5,7)          =      1.084272    -0.000163    -0.000029     1.084243
	    7 R(5,8)          =      1.082084    -0.000069    -0.000003     1.082080
	    8 R(5,9)          =      1.539152     0.000203     0.000065     1.539217
	    9 R(6,10)         =      1.085065     0.000175     0.000018     1.085083
	   10 R(6,11)         =      1.084276     0.000100     0.000018     1.084294
	   11 R(6,12)         =      1.532452    -0.000139    -0.000134     1.532317
	   12 R(9,12)         =      1.552594    -0.000206    -0.000041     1.552553
	   13 R(9,13)         =      1.081954     0.000117     0.000015     1.081969
	   14 R(9,14)         =      1.082879    -0.000075    -0.000012     1.082867
	   15 R(12,15)        =      1.081911    -0.000021     0.000001     1.081912
	   16 R(12,16)        =      1.083903     0.000037     0.000016     1.083919
	   17 B(1,2,3)        =    110.297993    -0.000002    -0.013254   110.284739
	   18 B(2,3,4)        =    109.823427    -0.000001    -0.016445   109.806981
	   19 B(2,3,5)        =    110.401187     0.000000    -0.004350   110.396836
	   20 B(2,3,6)        =    114.674677     0.000003     0.008303   114.682980
	   21 B(3,5,7)        =    107.665006    -0.000001    -0.008622   107.656384
	   22 B(3,5,8)        =    112.613631    -0.000001    -0.004314   112.609318
	   23 B(3,5,9)        =    104.817093     0.000002     0.015663   104.832755
	   24 B(3,6,10)       =    108.003419    -0.000001    -0.017624   107.985794
	   25 B(3,6,11)       =    113.390547    -0.000001     0.001353   113.391899
	   26 B(3,6,12)       =    103.620479     0.000002    -0.004527   103.615952
	   27 B(4,3,5)        =    109.359011     0.000001     0.014639   109.373651
	   28 B(4,3,6)        =    109.341357    -0.000000     0.011839   109.353196
	   29 B(5,3,6)        =    102.979771    -0.000002    -0.012497   102.967274
	   30 B(5,9,12)       =    105.868677    -0.000002    -0.002506   105.866171
	   31 B(5,9,13)       =    111.178240     0.000001    -0.005557   111.172683
	   32 B(5,9,14)       =    111.058093     0.000001     0.016414   111.074506
	   33 B(6,12,9)       =    105.339275     0.000001    -0.011443   105.327832
	   34 B(6,12,15)      =    112.142862     0.000001     0.015009   112.157871
	   35 B(6,12,16)      =    110.160497    -0.000000    -0.000396   110.160102
	   36 B(7,5,8)        =    107.387675     0.000001    -0.001279   107.386397
	   37 B(7,5,9)        =    110.920583     0.000000     0.005045   110.925628
	   38 B(8,5,9)        =    113.342151    -0.000001    -0.006480   113.335671
	   39 B(9,12,15)      =    112.433311    -0.000001    -0.000627   112.432684
	   40 B(9,12,16)      =    110.094683    -0.000000    -0.004740   110.089943
	   41 B(10,6,11)      =    107.659151     0.000001     0.008219   107.667370
	   42 B(10,6,12)      =    110.960994    -0.000001     0.005347   110.966341
	   43 B(11,6,12)      =    113.118887    -0.000000     0.005754   113.124642
	   44 B(12,9,13)      =    111.741119     0.000000    -0.008897   111.732222
	   45 B(12,9,14)      =    110.451503     0.000000     0.002330   110.453833
	   46 B(13,9,14)      =    106.618483    -0.000000    -0.001447   106.617036
	   47 B(15,12,16)     =    106.713487     0.000000     0.001963   106.715449
	   48 D(1,2,3,4)      =    -43.576137    -0.000000    -0.008803   -43.584940
	   49 D(1,2,3,5)      =   -164.241267    -0.000000    -0.013607  -164.254874
	   50 *D(1,2,3,6)     =     79.999982    -0.000000     0.000000    79.999982
	   51 D(2,3,5,7)      =    -42.265233    -0.000000     0.059972   -42.205261
	   52 D(2,3,5,8)      =     75.924837    -0.000000     0.050332    75.975170
	   53 D(2,3,5,9)      =   -160.421524    -0.000000     0.050352  -160.371172
	   54 D(2,3,6,10)     =     43.931841    -0.000000     0.032722    43.964563
	   55 D(2,3,6,11)     =    -75.284034     0.000000     0.033549   -75.250486
	   56 D(2,3,6,12)     =    161.692501    -0.000000     0.028750   161.721251
	   57 D(3,5,9,12)     =     19.013506     0.000000    -0.113598    18.899908
	   58 D(3,5,9,13)     =    140.555052    -0.000000    -0.129159   140.425893
	   59 D(3,5,9,14)     =   -100.900791     0.000000    -0.123902  -101.024693
	   60 D(3,6,12,9)     =    -29.708248    -0.000000    -0.112918   -29.821165
	   61 D(3,6,12,15)    =   -152.312664    -0.000000    -0.113404  -152.426068
	   62 D(3,6,12,16)    =     88.991976    -0.000000    -0.125233    88.866743
	   63 D(4,3,5,7)      =   -163.207601     0.000000     0.073692  -163.133909
	   64 D(4,3,5,8)      =    -45.017530    -0.000000     0.064053   -44.953477
	   65 D(4,3,5,9)      =     78.636109    -0.000000     0.064072    78.700181
	   66 D(4,3,6,10)     =    167.765055    -0.000000     0.026399   167.791454
	   67 D(4,3,6,11)     =     48.549180    -0.000000     0.027225    48.576405
	   68 D(4,3,6,12)     =    -74.474285    -0.000000     0.022426   -74.451859
	   69 D(5,3,6,10)     =    -76.039738    -0.000000     0.041919   -75.997819
	   70 D(5,3,6,11)     =    164.744387    -0.000000     0.042745   164.787132
	   71 D(5,3,6,12)     =     41.720922    -0.000000     0.037946    41.758868
	   72 D(5,9,12,6)     =      6.641261     0.000000     0.138101     6.779362
	   73 D(5,9,12,15)    =    129.058884     0.000000     0.148617   129.207501
	   74 D(5,9,12,16)    =   -112.102979    -0.000000     0.147496  -111.955483
	   75 D(6,3,5,7)      =     80.609798     0.000000     0.060173    80.669972
	   76 D(6,3,5,8)      =   -161.200131     0.000000     0.050534  -161.149597
	   77 D(6,3,5,9)      =    -37.546492     0.000000     0.050553   -37.495939
	   78 D(6,12,9,13)    =   -114.537221     0.000000     0.151578  -114.385642
	   79 D(6,12,9,14)    =    126.951915     0.000000     0.157565   127.109480
	   80 D(7,5,9,12)     =    -96.909650    -0.000000    -0.114578   -97.024228
	   81 D(7,5,9,13)     =     24.631896    -0.000000    -0.130138    24.501758
	   82 D(7,5,9,14)     =    143.176053    -0.000000    -0.124882   143.051171
	   83 D(8,5,9,12)     =    142.199008    -0.000000    -0.112050   142.086957
	   84 D(8,5,9,13)     =    -96.259446    -0.000000    -0.127611   -96.387057
	   85 D(8,5,9,14)     =     22.284711    -0.000000    -0.122355    22.162356
	   86 D(9,12,6,10)    =     85.973774    -0.000000    -0.133439    85.840334
	   87 D(9,12,6,11)    =   -152.910704    -0.000000    -0.114824  -153.025528
	   88 D(10,6,12,15)   =    -36.630643    -0.000000    -0.133926   -36.764569
	   89 D(10,6,12,16)   =   -155.326003    -0.000000    -0.145755  -155.471758
	   90 D(11,6,12,15)   =     84.484880     0.000000    -0.115310    84.369569
	   91 D(11,6,12,16)   =    -34.210480    -0.000000    -0.127139   -34.337619
	   92 D(13,9,12,15)   =      7.880403     0.000000     0.162094     8.042497
	   93 D(13,9,12,16)   =    126.718539     0.000000     0.160974   126.879513
	   94 D(14,9,12,15)   =   -110.630462     0.000000     0.168081  -110.462381
	   95 D(14,9,12,16)   =      8.207675     0.000000     0.166960     8.374635
	 ---------------------------------------------------------------------------
	Successfully symmetrized geometry.

  ==> Convergence Check <==

  Measures of convergence in internal coordinates in au.
  Criteria marked as inactive (o), active & met (*), and active & unmet ( ).
  ---------------------------------------------------------------------------------------------
   Step     Total Energy     Delta E     MAX Force     RMS Force      MAX Disp      RMS Disp   
  ---------------------------------------------------------------------------------------------
    Convergence Criteria    1.00e-06 *    3.00e-04 *             o    1.20e-03 *             o
  ---------------------------------------------------------------------------------------------
      3    -270.11673033   -9.44e-07 *    8.30e-05 *    1.55e-05 o    2.93e-03      1.31e-03 o  ~
  ---------------------------------------------------------------------------------------------


  **** Optimization is complete! (in 3 steps) ****

  ==> Optimization Summary <==

  Measures of convergence in internal coordinates in au.
  --------------------------------------------------------------------------------------------------------------- ~
   Step         Total Energy             Delta E       MAX Force       RMS Force        MAX Disp        RMS Disp  ~
  --------------------------------------------------------------------------------------------------------------- ~
      1    -270.116720970852   -270.116720970852      0.00063667      0.00015819      0.01019178      0.00285528  ~
      2    -270.116729389032     -0.000008418180      0.00020331      0.00005139      0.00271675      0.00105898  ~
      3    -270.116730332693     -0.000000943661      0.00008299      0.00001546      0.00293357      0.00131454  ~
  --------------------------------------------------------------------------------------------------------------- ~

	Writing optimization data to binary file.
	Final energy is   -270.1167303326927
	Final (previous) structure:
	Cartesian Geometry (in Angstrom)
	    H     2.6146569626   0.5126809517   0.3631479265
	    O     2.0623132040  -0.0793712952  -0.1127338523
	    C     0.7436221177   0.0064808951   0.3519779474
	    H     0.7370094473   0.0387451799   1.4408321467
	    C    -0.0653060930  -1.1927971733  -0.1222663443
	    C    -0.0479984023   1.1910787475  -0.1934282608
	    H     0.1970816760  -1.3779073596  -1.1578983618
	    H     0.1600075329  -2.0930176434   0.4342781532
	    C    -1.5343486196  -0.7506627737   0.0019124464
	    H     0.1504919397   1.2656739952  -1.2575722016
	    H     0.2263342438   2.1372780531   0.2594550443
	    C    -1.5069104083   0.8003633634   0.0660432933
	    H    -2.1217496675  -1.1068855210  -0.8339640752
	    H    -1.9891243417  -1.1583467124   0.8961162767
	    H    -2.1835340445   1.2550276864  -0.6452877179
	    H    -1.8149145984   1.1379491095   1.0489039613
	Saving final (previous) structure.
			--------------------------
			 OPTKING Finished Execution 
			--------------------------

    Final optimized geometry and variables:
    Molecular point group: c1
    Full point group: C1

    Geometry (in Angstrom), charge = 0, multiplicity = 1:

    H            2.614656962593     0.512680951686     0.363147926550
    O            2.062313204020    -0.079371295197    -0.112733852276
    C            0.743622117689     0.006480895127     0.351977947417
    H            0.737009447339     0.038745179866     1.440832146686
    C           -0.065306092987    -1.192797173251    -0.122266344326
    C           -0.047998402316     1.191078747451    -0.193428260772
    H            0.197081676010    -1.377907359558    -1.157898361807
    H            0.160007532850    -2.093017643423     0.434278153247
    C           -1.534348619643    -0.750662773686     0.001912446433
    H            0.150491939671     1.265673995180    -1.257572201629
    H            0.226334243809     2.137278053107     0.259455044288
    C           -1.506910408254     0.800363363419     0.066043293307
    H           -2.121749667518    -1.106885521040    -0.833964075155
    H           -1.989124341702    -1.158346712404     0.896116276715
    H           -2.183534044461     1.255027686399    -0.645287717902
    H           -1.814914598352     1.137949109477     1.048903961343

	Cleaning optimization helper files.


Properties will be evaluated at   0.000000,   0.000000,   0.000000 Bohr

Properties computed using the  density matrix

  Nuclear Dipole Moment: (a.u.)
     X:    -3.7622      Y:     0.5726      Z:     0.5132

  Electronic Dipole Moment: (a.u.)
     X:     3.5666      Y:    -0.1930      Z:    -0.0682

  Dipole Moment: (a.u.)
     X:    -0.1956      Y:     0.3796      Z:     0.4450     Total:     0.6167

  Dipole Moment: (Debye)
     X:    -0.4972      Y:     0.9649      Z:     1.1310     Total:     1.5676

  Quadrupole Moment: (Debye Ang)
    XX:   -38.7852     YY:   -38.3311     ZZ:   -37.4181
    XY:     3.0550     XZ:     3.0623     YZ:     0.4412

  Traceless Quadrupole Moment: (Debye Ang)
    XX:    -0.6071     YY:    -0.1530     ZZ:     0.7600
    XY:     3.0550     XZ:     3.0623     YZ:     0.4412

  Mulliken Charges: (a.u.)
   Center  Symbol    Alpha    Beta     Spin     Total
       1     H     0.39516  0.39516  0.00000  0.20968
       2     O     4.20048  4.20048  0.00000 -0.40097
       3     C     2.92237  2.92237  0.00000  0.15526
       4     H     0.46759  0.46759  0.00000  0.06482
       5     C     3.10220  3.10220  0.00000 -0.20439
       6     C     3.09878  3.09878  0.00000 -0.19755
       7     H     0.45112  0.45112  0.00000  0.09776
       8     H     0.44467  0.44467  0.00000  0.11066
       9     C     3.10941  3.10941  0.00000 -0.21881
      10     H     0.45364  0.45364  0.00000  0.09273
      11     H     0.45096  0.45096  0.00000  0.09808
      12     C     3.11495  3.11495  0.00000 -0.22991
      13     H     0.44557  0.44557  0.00000  0.10887
      14     H     0.44887  0.44887  0.00000  0.10226
      15     H     0.44348  0.44348  0.00000  0.11303
      16     H     0.45076  0.45076  0.00000  0.09848

   Total alpha = 24.00000, Total beta = 24.00000, Total charge = -0.00000


*** Psi4 exiting successfully. Buy a developer a beer!
