    -----------------------------------------------------------------------
          Psi4: An Open-Source Ab Initio Electronic Structure Package
                              Psi4 1.0.54 Driver

                          Git: Rev {master} 8d4cec3 dirty

    J. M. Turney, A. C. Simmonett, R. M. Parrish, E. G. Hohenstein,
    F. A. Evangelista, J. T. Fermann, B. J. Mintz, L. A. Burns, J. J. Wilke,
    M. L. Abrams, N. J. Russ, M. L. Leininger, C. L. Janssen, E. T. Seidl,
    W. D. Allen, H. F. Schaefer, R. A. King, E. F. Valeev, C. D. Sherrill,
    and T. D. Crawford, WIREs Comput. Mol. Sci. 2, 556-565 (2012)
    (doi: 10.1002/wcms.93)

                         Additional Contributions by
    A. E. DePrince, U. Bozkaya, A. Yu. Sokolov, D. G. A. Smith, R. Di Remigio,
    R. M. Richard, J. F. Gonthier, H. R. McAlexander, M. Saitow, and
    B. P. Pritchard
    -----------------------------------------------------------------------


    Psi4 started on: Sat Sep 10 16:34:13 2016

    Process ID:  31832
    PSI4DATADIR: /export131/home/mjharvey/miniconda3/share/psi4
    Memory level set to 256.000 MB

  ==> Input File <==

--------------------------------------------------------------------------
set {
	reference rhf
	basis cc-pvtz
}


set_num_threads( 4 )
memory 2 gb

molecule MOL {
0 1

H	 -0.000105	 1.988529	 0.748933
O	 -0.000098	 1.879786	 -0.188206
C	 -0.000014	 0.545691	 -0.532416
C	 -1.286000	 -0.125171	 -0.046657
C	 1.286016	 -0.125031	 -0.046584
H	 0.000021	 0.481103	 -1.610604
F	 -2.003472	 0.745255	 0.620015
F	 -2.016602	 -0.575285	 -1.035257
F	 -1.025777	 -1.130434	 0.761492
F	 2.317750	 0.468717	 -0.594166
F	 1.336617	 -1.393765	 -0.365123
F	 1.414467	 -0.024806	 1.259108

	symmetry c1
}
set optking {
	frozen_dihedral = ("
		7 4 3 6
	")
}

ee,wfn = optimize('scf', return_wfn=True)
oeprop( wfn, 'DIPOLE', 'QUADRUPOLE', 'MULLIKEN_CHARGES')
f=open( 'psi4out.xyz', 'w' )
f.write( "12  " )
f.write( str(ee) + "\n" )
f.write( MOL.save_string_xyz() )
f.close()
--------------------------------------------------------------------------

  Memory set to   2.000 GiB by Python script.
gradient() will perform analytic gradient computation.

*** tstart() called on cx1-27-4-2
*** at Sat Sep 10 16:34:13 2016


         ---------------------------------------------------------
                                   SCF
            by Justin Turney, Rob Parrish, and Andy Simmonett
                              RHF Reference
                        4 Threads,   2000 MiB Core
         ---------------------------------------------------------

  ==> Geometry <==

    Molecular point group: c1
    Full point group: C1

    Geometry (in Angstrom), charge = 0, multiplicity = 1:

       Center              X                  Y                   Z               Mass       
    ------------   -----------------  -----------------  -----------------  -----------------
           H         -0.002694342824     1.989666791713     0.743649442445     1.007825032070
           O         -0.002687342824     1.880923791713    -0.193489557555    15.994914619560
           C         -0.002603342824     0.546828791713    -0.537699557555    12.000000000000
           C         -1.288589342824    -0.124033208287    -0.051940557555    12.000000000000
           C          1.283426657176    -0.123893208287    -0.051867557555    12.000000000000
           H         -0.002568342824     0.482240791713    -1.615887557555     1.007825032070
           F         -2.006061342824     0.746392791713     0.614731442445    18.998403224000
           F         -2.019191342824    -0.574147208287    -1.040540557555    18.998403224000
           F         -1.028366342824    -1.129296208287     0.756208442445    18.998403224000
           F          2.315160657176     0.469854791713    -0.599449557555    18.998403224000
           F          1.334027657176    -1.392627208287    -0.370406557555    18.998403224000
           F          1.411877657176    -0.023668208287     1.253824442445    18.998403224000

  Running in c1 symmetry.

  Rotational constants: A =      0.07262  B =      0.03568  C =      0.03156 [cm^-1]
  Rotational constants: A =   2177.13391  B =   1069.72858  C =    946.19887 [MHz]
  Nuclear repulsion =  672.047790201883117

  Charge       = 0
  Multiplicity = 1
  Electrons    = 82
  Nalpha       = 41
  Nbeta        = 41

  ==> Algorithm <==

  SCF Algorithm Type is DF.
  DIIS enabled.
  MOM disabled.
  Fractional occupation disabled.
  Guess Type is SAD.
  Energy threshold   = 1.00e-08
  Density threshold  = 1.00e-08
  Integral threshold = 0.00e+00

  ==> Primary Basis <==

  Basis Set: CC-PVTZ
    Number of shells: 112
    Number of basis function: 328
    Number of Cartesian functions: 380
    Spherical Harmonics?: true
    Max angular momentum: 3

  ==> Pre-Iterations <==

   -------------------------------------------------------
    Irrep   Nso     Nmo     Nalpha   Nbeta   Ndocc  Nsocc
   -------------------------------------------------------
     A        328     328       0       0       0       0
   -------------------------------------------------------
    Total     328     328      41      41      41       0
   -------------------------------------------------------

  ==> Integral Setup <==

  ==> DFJK: Density-Fitted J/K Matrices <==

    J tasked:                  Yes
    K tasked:                  Yes
    wK tasked:                  No
    OpenMP threads:              4
    Integrals threads:           4
    Memory (MB):              1430
    Algorithm:                Core
    Integral Cache:           NONE
    Schwarz Cutoff:          1E-12
    Fitting Condition:       1E-12

   => Auxiliary Basis Set <=

  Basis Set: 
    Number of shells: 270
    Number of basis function: 850
    Number of Cartesian functions: 1030
    Spherical Harmonics?: true
    Max angular momentum: 4

  Minimum eigenvalue in the overlap matrix is 5.6601628680E-04.
  Using Symmetric Orthogonalization.
  SCF Guess: Superposition of Atomic Densities via on-the-fly atomic UHF.

  ==> Iterations <==

                           Total Energy        Delta E     RMS |[F,P]|

   @DF-RHF iter   0:  -790.30498536984328   -7.90305e+02   1.68300e-02 
   @DF-RHF iter   1:  -786.18564316730021    4.11934e+00   2.90585e-03 
   @DF-RHF iter   2:  -786.48458707484815   -2.98944e-01   1.64114e-03 DIIS
   @DF-RHF iter   3:  -786.57372866164565   -8.91416e-02   3.22773e-04 DIIS
   @DF-RHF iter   4:  -786.58103586912353   -7.30721e-03   1.03273e-04 DIIS
   @DF-RHF iter   5:  -786.58184664699297   -8.10778e-04   2.48821e-05 DIIS
   @DF-RHF iter   6:  -786.58190453773818   -5.78907e-05   7.34218e-06 DIIS
   @DF-RHF iter   7:  -786.58190809821690   -3.56048e-06   2.58652e-06 DIIS
   @DF-RHF iter   8:  -786.58190851596351   -4.17747e-07   5.82185e-07 DIIS
   @DF-RHF iter   9:  -786.58190854832742   -3.23639e-08   1.59214e-07 DIIS
   @DF-RHF iter  10:  -786.58190855073644   -2.40902e-09   4.69908e-08 DIIS
   @DF-RHF iter  11:  -786.58190855090220   -1.65755e-10   1.31716e-08 DIIS
   @DF-RHF iter  12:  -786.58190855091652   -1.43245e-11   4.61612e-09 DIIS

  ==> Post-Iterations <==

    Orbital Energies (a.u.)
    -----------------------

    Doubly Occupied:                                                      

       1A    -26.358603     2A    -26.357398     3A    -26.356653  
       4A    -26.355579     5A    -26.354066     6A    -26.353113  
       7A    -20.606217     8A    -11.519754     9A    -11.518948  
      10A    -11.349551    11A     -1.772241    12A     -1.765942  
      13A     -1.665831    14A     -1.665320    15A     -1.663874  
      16A     -1.659566    17A     -1.437318    18A     -1.102620  
      19A     -1.002188    20A     -0.943326    21A     -0.873832  
      22A     -0.867013    23A     -0.857870    24A     -0.853809  
      25A     -0.843247    26A     -0.818401    27A     -0.739561  
      28A     -0.737667    29A     -0.735390    30A     -0.731193  
      31A     -0.695072    32A     -0.691868    33A     -0.688418  
      34A     -0.685033    35A     -0.674646    36A     -0.669340  
      37A     -0.662634    38A     -0.653907    39A     -0.620152  
      40A     -0.550613    41A     -0.510709  

    Virtual:                                                              

      42A      0.151239    43A      0.159951    44A      0.248001  
      45A      0.286365    46A      0.305654    47A      0.328328  
      48A      0.342863    49A      0.378086    50A      0.401236  
      51A      0.432857    52A      0.456982    53A      0.466997  
      54A      0.480026    55A      0.493662    56A      0.507004  
      57A      0.519787    58A      0.529760    59A      0.536387  
      60A      0.550472    61A      0.596190    62A      0.601018  
      63A      0.613148    64A      0.653865    65A      0.664606  
      66A      0.726758    67A      0.749895    68A      0.769926  
      69A      0.772639    70A      0.801436    71A      0.834969  
      72A      0.860072    73A      0.889567    74A      0.892226  
      75A      0.908694    76A      0.954656    77A      0.964862  
      78A      0.989204    79A      0.990592    80A      1.012991  
      81A      1.029593    82A      1.053208    83A      1.072923  
      84A      1.094253    85A      1.114708    86A      1.132071  
      87A      1.135070    88A      1.149430    89A      1.172562  
      90A      1.174257    91A      1.176863    92A      1.212104  
      93A      1.247378    94A      1.295858    95A      1.324975  
      96A      1.353607    97A      1.363574    98A      1.389819  
      99A      1.416188   100A      1.436972   101A      1.461530  
     102A      1.489285   103A      1.523380   104A      1.528851  
     105A      1.555535   106A      1.577164   107A      1.642265  
     108A      1.702362   109A      1.737945   110A      1.856324  
     111A      1.948170   112A      1.981699   113A      2.003081  
     114A      2.048601   115A      2.102992   116A      2.144129  
     117A      2.156392   118A      2.173623   119A      2.180471  
     120A      2.203848   121A      2.218111   122A      2.227505  
     123A      2.246517   124A      2.257991   125A      2.263186  
     126A      2.294458   127A      2.297890   128A      2.308353  
     129A      2.336326   130A      2.370346   131A      2.425973  
     132A      2.443955   133A      2.448170   134A      2.456247  
     135A      2.502506   136A      2.547856   137A      2.569249  
     138A      2.638327   139A      2.654619   140A      2.666094  
     141A      2.688176   142A      2.709315   143A      2.728160  
     144A      2.740048   145A      2.777943   146A      2.807950  
     147A      2.847238   148A      2.856311   149A      2.881905  
     150A      2.917900   151A      2.961309   152A      3.014755  
     153A      3.057547   154A      3.117989   155A      3.122466  
     156A      3.198008   157A      3.250977   158A      3.258194  
     159A      3.271898   160A      3.287955   161A      3.296897  
     162A      3.308163   163A      3.318884   164A      3.351052  
     165A      3.370373   166A      3.403676   167A      3.423260  
     168A      3.462379   169A      3.475411   170A      3.486252  
     171A      3.518724   172A      3.570687   173A      3.605084  
     174A      3.631058   175A      3.643544   176A      3.668085  
     177A      3.712091   178A      3.719965   179A      3.759930  
     180A      3.794790   181A      3.797670   182A      3.850279  
     183A      3.856180   184A      3.874166   185A      3.900913  
     186A      3.934470   187A      3.945644   188A      3.952651  
     189A      3.967559   190A      3.995600   191A      4.032630  
     192A      4.074803   193A      4.118945   194A      4.147544  
     195A      4.202414   196A      4.255547   197A      4.264915  
     198A      4.316061   199A      4.342148   200A      4.370306  
     201A      4.434775   202A      4.482183   203A      4.521056  
     204A      4.555615   205A      4.557131   206A      4.576891  
     207A      4.615811   208A      4.737711   209A      4.785643  
     210A      5.091764   211A      5.148034   212A      5.192875  
     213A      5.272400   214A      5.311832   215A      5.314302  
     216A      5.331168   217A      5.348277   218A      5.362104  
     219A      5.380405   220A      5.430078   221A      5.478755  
     222A      5.490771   223A      5.506069   224A      5.538038  
     225A      5.578546   226A      5.594742   227A      5.611696  
     228A      5.780492   229A      5.941381   230A      6.023510  
     231A      6.134040   232A      6.169937   233A      6.354679  
     234A      6.546469   235A      6.555564   236A      6.582113  
     237A      6.593946   238A      6.713828   239A      7.008475  
     240A      7.105945   241A      7.200282   242A      7.237853  
     243A      7.295013   244A      7.295779   245A      7.322404  
     246A      7.331868   247A      7.336367   248A      7.339063  
     249A      7.340313   250A      7.341918   251A      7.342664  
     252A      7.345552   253A      7.347005   254A      7.348414  
     255A      7.349820   256A      7.353818   257A      7.355795  
     258A      7.358606   259A      7.362707   260A      7.368536  
     261A      7.379170   262A      7.430123   263A      7.490737  
     264A      7.492805   265A      7.502387   266A      7.503860  
     267A      7.515257   268A      7.522469   269A      7.583654  
     270A      7.595112   271A      7.614156   272A      7.620491  
     273A      7.628036   274A      7.638910   275A      7.706296  
     276A      7.862919   277A      7.866214   278A      7.910827  
     279A      7.939029   280A      7.944514   281A      7.955216  
     282A      8.001874   283A      8.086359   284A      8.104563  
     285A      8.138277   286A      8.151624   287A      8.165817  
     288A      8.192168   289A      8.875992   290A      8.895627  
     291A      8.905131   292A      8.905837   293A      8.916161  
     294A      8.921994   295A      8.997920   296A      9.008264  
     297A      9.017757   298A      9.036962   299A      9.068115  
     300A      9.075925   301A      9.179867   302A      9.208464  
     303A      9.305605   304A      9.323610   305A      9.387055  
     306A      9.391650   307A      9.396470   308A      9.409244  
     309A      9.504049   310A      9.513219   311A      9.656042  
     312A      9.666677   313A      9.673815   314A      9.694491  
     315A      9.720065   316A      9.730138   317A      9.746095  
     318A      9.757836   319A     10.742907   320A     11.326354  
     321A     12.043799   322A     12.368588   323A     12.464263  
     324A     12.531834   325A     12.846488   326A     13.077185  
     327A     13.587624   328A     13.897946  

    Final Occupation by Irrep:
              A 
    DOCC [    41 ]

  Energy converged.

  @DF-RHF Final Energy:  -786.58190855091652

   => Energetics <=

    Nuclear Repulsion Energy =            672.0477902018831173
    One-Electron Energy =               -2431.3224268716030565
    Two-Electron Energy =                 972.6927281188039842
    DFT Exchange-Correlation Energy =       0.0000000000000000
    Empirical Dispersion Energy =           0.0000000000000000
    PCM Polarization Energy =               0.0000000000000000
    EFP Energy =                            0.0000000000000000
    Total Energy =                       -786.5819085509159549


  Saving occupied orbitals to File 180.

*** tstop() called on cx1-27-4-2 at Sat Sep 10 16:34:22 2016
Module time:
	user time   =      29.69 seconds =       0.49 minutes
	system time =       0.94 seconds =       0.02 minutes
	total time  =          9 seconds =       0.15 minutes
Total time:
	user time   =      29.69 seconds =       0.49 minutes
	system time =       0.94 seconds =       0.02 minutes
	total time  =          9 seconds =       0.15 minutes


Properties will be evaluated at   0.000000,   0.000000,   0.000000 Bohr

Properties computed using the SCF density matrix

  Nuclear Dipole Moment: (a.u.)
     X:    -0.0120      Y:     4.1220      Z:    -1.3982

  Electronic Dipole Moment: (a.u.)
     X:    -0.0202      Y:    -3.8773      Z:     1.3560

  Dipole Moment: (a.u.)
     X:    -0.0322      Y:     0.2447      Z:    -0.0422     Total:     0.2504

  Dipole Moment: (Debye)
     X:    -0.0818      Y:     0.6221      Z:    -0.1073     Total:     0.6365


*** tstart() called on cx1-27-4-2
*** at Sat Sep 10 16:34:22 2016


         ------------------------------------------------------------
                                   SCF GRAD                          
                          Rob Parrish, Justin Turney,                
                       Andy Simmonett, and Alex Sokolov              
         ------------------------------------------------------------

  ==> Geometry <==

    Molecular point group: c1
    Full point group: C1

    Geometry (in Angstrom), charge = 0, multiplicity = 1:

       Center              X                  Y                   Z               Mass       
    ------------   -----------------  -----------------  -----------------  -----------------
           H         -0.002694342824     1.989666791713     0.743649442445     1.007825032070
           O         -0.002687342824     1.880923791713    -0.193489557555    15.994914619560
           C         -0.002603342824     0.546828791713    -0.537699557555    12.000000000000
           C         -1.288589342824    -0.124033208287    -0.051940557555    12.000000000000
           C          1.283426657176    -0.123893208287    -0.051867557555    12.000000000000
           H         -0.002568342824     0.482240791713    -1.615887557555     1.007825032070
           F         -2.006061342824     0.746392791713     0.614731442445    18.998403224000
           F         -2.019191342824    -0.574147208287    -1.040540557555    18.998403224000
           F         -1.028366342824    -1.129296208287     0.756208442445    18.998403224000
           F          2.315160657176     0.469854791713    -0.599449557555    18.998403224000
           F          1.334027657176    -1.392627208287    -0.370406557555    18.998403224000
           F          1.411877657176    -0.023668208287     1.253824442445    18.998403224000

  Nuclear repulsion =  672.047790201883117

  ==> Basis Set <==

  Basis Set: CC-PVTZ
    Number of shells: 112
    Number of basis function: 328
    Number of Cartesian functions: 380
    Spherical Harmonics?: true
    Max angular momentum: 3

  ==> DFJKGrad: Density-Fitted SCF Gradients <==

    Gradient:                    1
    J tasked:                  Yes
    K tasked:                  Yes
    wK tasked:                  No
    OpenMP threads:              4
    Integrals threads:           4
    Memory (MB):              1430
    Schwarz Cutoff:          0E+00
    Fitting Condition:       1E-12

   => Auxiliary Basis Set <=

  Basis Set: 
    Number of shells: 270
    Number of basis function: 850
    Number of Cartesian functions: 1030
    Spherical Harmonics?: true
    Max angular momentum: 4


  -Total Gradient:
     Atom            X                  Y                   Z
    ------   -----------------  -----------------  -----------------
       1        0.000724890093    -0.000552254511     0.001263966088
       2       -0.008084119526    -0.001412984235     0.003794690538
       3       -0.003908251376    -0.007597333769     0.006262779867
       4        0.000890629619     0.004190016506    -0.011401023383
       5        0.000407043358     0.000263911872    -0.000898539403
       6       -0.002010556426    -0.001533362138    -0.000503387962
       7        0.006302868253     0.005069794741    -0.002341950821
       8       -0.001825169618     0.000788110188     0.001047529526
       9        0.007274034177     0.001734717330     0.000782719623
      10        0.000315219019     0.000193095560    -0.000062347521
      11        0.000305518286     0.000210830143     0.002292358553
      12       -0.000392105866    -0.001354541693    -0.000236795104


*** tstop() called on cx1-27-4-2 at Sat Sep 10 16:34:30 2016
Module time:
	user time   =      30.05 seconds =       0.50 minutes
	system time =       0.71 seconds =       0.01 minutes
	total time  =          8 seconds =       0.13 minutes
Total time:
	user time   =      59.88 seconds =       1.00 minutes
	system time =       1.65 seconds =       0.03 minutes
	total time  =         17 seconds =       0.28 minutes

			-----------------------------------------
			 OPTKING 2.0: for geometry optimizations 
			  - R.A. King,  Bethel University        
			-----------------------------------------

	Internal coordinates to be generated automatically.
	Detected frag 1 with atoms:  1 2 3 4 5 6 7 8 9 10 11 12
	---Fragment 1 Bond Connectivity---
	 1 : 2
	 2 : 1 3
	 3 : 2 4 5 6
	 4 : 3 7 8 9
	 5 : 3 10 11 12
	 6 : 3
	 7 : 4
	 8 : 4
	 9 : 4
	 10 : 5
	 11 : 5
	 12 : 5

	Assuming in current code that numbering for constraints corresponds to unified fragment.
	Frozen dihedral atom list: 
	     7     4     3     6
	---Fragment 1 Geometry and Gradient---
	 H          -0.0050915700        3.7599253320        1.4052937851
	 O          -0.0050783420        3.5544308432       -0.3656422734
	 C          -0.0049196050        1.0333566579       -1.0161049056
	 C          -2.4350809557       -0.2343887950       -0.0981534290
	 C           2.4253248937       -0.2341242334       -0.0980154790
	 H          -0.0048534646        0.9113030264       -3.0535849453
	 F          -3.7909065437        1.4104779639        1.1616740715
	 F          -3.8157186478       -1.0849809836       -1.9663366839
	 F          -1.9433307522       -2.1340605566        1.4290268556
	 F           4.3750195957        0.8878968786       -1.1327954943
	 F           2.5209469258       -2.6316840289       -0.6999669516
	 F           2.6680621052       -0.0447264317        2.3693848149
	             0.0007248901       -0.0005522545        0.0012639661
	            -0.0080841195       -0.0014129842        0.0037946905
	            -0.0039082514       -0.0075973338        0.0062627799
	             0.0008906296        0.0041900165       -0.0114010234
	             0.0004070434        0.0002639119       -0.0008985394
	            -0.0020105564       -0.0015333621       -0.0005033880
	             0.0063028683        0.0050697947       -0.0023419508
	            -0.0018251696        0.0007881102        0.0010475295
	             0.0072740342        0.0017347173        0.0007827196
	             0.0003152190        0.0001930956       -0.0000623475
	             0.0003055183        0.0002108301        0.0022923586
	            -0.0003921059       -0.0013545417       -0.0002367951

	Previous optimization step data not found.  Starting new optimization.

	---Fragment 1 Intrafragment Coordinates---
	 - Coordinate -           - BOHR/RAD -       - ANG/DEG -
	 R(1,2)           =         1.782819	       0.943427
	 R(2,3)           =         2.603635	       1.377784
	 R(3,4)           =         2.890588	       1.529633
	 R(3,5)           =         2.890585	       1.529632
	 R(3,6)           =         2.041133	       1.080121
	 R(4,7)           =         2.476089	       1.310290
	 R(4,8)           =         2.473818	       1.309088
	 R(4,9)           =         2.486534	       1.315817
	 R(5,10)          =         2.476088	       1.310289
	 R(5,11)          =         2.473819	       1.309089
	 R(5,12)          =         2.486535	       1.315818
	 B(1,2,3)         =         1.938820	     111.086213
	 B(2,3,4)         =         1.923335	     110.198983
	 B(2,3,5)         =         1.923337	     110.199120
	 B(2,3,6)         =         1.883132	     107.895533
	 B(3,4,7)         =         1.907712	     109.303863
	 B(3,4,8)         =         1.960790	     112.344992
	 B(3,4,9)         =         1.943188	     111.336461
	 B(3,5,10)        =         1.907714	     109.303978
	 B(3,5,11)        =         1.960789	     112.344962
	 B(3,5,12)        =         1.943188	     111.336480
	 B(4,3,5)         =         1.997260	     114.434576
	 B(4,3,6)         =         1.865858	     106.905801
	 B(5,3,6)         =         1.865857	     106.905732
	 B(7,4,8)         =         1.882887	     107.881477
	 B(7,4,9)         =         1.878962	     107.656596
	 B(8,4,9)         =         1.887572	     108.149911
	 B(10,5,11)       =         1.882886	     107.881436
	 B(10,5,12)       =         1.878961	     107.656535
	 B(11,5,12)       =         1.887572	     108.149905
	 D(1,2,3,4)       =         1.110313	      63.616222
	 D(1,2,3,5)       =        -1.110253	     -63.612801
	 D(1,2,3,6)       =        -3.141563	    -179.998286
	 D(2,3,4,7)       =        -0.052318	      -2.997609
	 D(2,3,4,8)       =         2.037154	     116.720323
	 D(2,3,4,9)       =        -2.125879	    -121.803883
	 D(2,3,5,10)      =        -1.039886	     -59.581067
	 D(2,3,5,11)      =        -3.129358	    -179.299006
	 D(2,3,5,12)      =         1.033675	      59.225217
	 D(4,3,5,10)      =         3.064461	     175.580667
	 D(4,3,5,11)      =         0.974989	      55.862728
	 D(4,3,5,12)      =        -1.145164	     -65.613049
	 D(5,3,4,7)       =         2.126522	     121.840729
	 D(5,3,4,8)       =        -2.067191	    -118.441339
	 D(5,3,4,9)       =         0.052961	       3.034455
	*D(6,3,4,7)       =        -2.094395	    -119.999990
	 D(6,3,4,8)       =        -0.004923	      -0.282058
	 D(6,3,4,9)       =         2.115230	     121.193736
	 D(6,3,5,10)      =         1.002192	      57.421347
	 D(6,3,5,11)      =        -1.087281	     -62.296592
	 D(6,3,5,12)      =         3.075752	     176.227631
	 R(9,11)          =         4.970917	       2.630496
	 R(9,12)          =         5.149227	       2.724853

	Current energy   :      -786.5819085509

	Generating empirical Hessian (Schlegel '84) for each fragment.
	Taking RFO optimization step.
	Going to follow RFO solution 1.
	Using RFO vector 1.
	Norm of target step-size    0.22567
	Projected energy change by RFO approximation:         0.0021844226

	Back-transformation to cartesian coordinates...
	Could not converge backtransformation.
	Using first guess instead.

	Back-transformation to cartesian coordinates to adjust frozen coordinates...
	Successfully converged to displaced geometry.

	--- Internal Coordinate Step in ANG or DEG, aJ/ANG or AJ/DEG ---
	 ---------------------------------------------------------------------------
	   Coordinate                Previous        Force       Change         New 
	   ----------                --------       ------       ------       ------
	    1 R(1,2)          =      0.943427    -0.009820     0.000139     0.943566
	    2 R(2,3)          =      1.377784     0.005262     0.003502     1.381287
	    3 R(3,4)          =      1.529633     0.144733     0.032328     1.561962
	    4 R(3,5)          =      1.529632    -0.021381    -0.003579     1.526053
	    5 R(3,6)          =      1.080121    -0.004895    -0.000750     1.079371
	    6 R(4,7)          =      1.310290     0.010504     0.005480     1.315770
	    7 R(4,8)          =      1.309088     0.000358     0.001461     1.310549
	    8 R(4,9)          =      1.315817    -0.005376     0.000287     1.316104
	    9 R(5,10)         =      1.310289    -0.002980     0.000040     1.310329
	   10 R(5,11)         =      1.309089     0.008067     0.001472     1.310561
	   11 R(5,12)         =      1.315818    -0.004910     0.000346     1.316164
	   12 B(1,2,3)        =    111.086213     0.000094     0.380172   111.466385
	   13 B(2,3,4)        =    110.198983     0.000744     4.265675   114.464658
	   14 B(2,3,5)        =    110.199120    -0.000107    -0.250140   109.948980
	   15 B(2,3,6)        =    107.895533    -0.000285    -1.949101   105.946433
	   16 B(3,4,7)        =    109.303863     0.001077     3.731919   113.035781
	   17 B(3,4,8)        =    112.344992    -0.000556    -2.199962   110.145030
	   18 B(3,4,9)        =    111.336461     0.000554     1.749385   113.085846
	   19 B(3,5,10)       =    109.303978     0.000040     0.030446   109.334424
	   20 B(3,5,11)       =    112.344962    -0.000049    -0.601999   111.742964
	   21 B(3,5,12)       =    111.336480    -0.000248    -0.139989   111.196491
	   22 B(4,3,5)        =    114.434576    -0.000623    -1.473809   112.960767
	   23 B(4,3,6)        =    106.905801     0.000155     0.303729   107.209530
	   24 B(5,3,6)        =    106.905732     0.000109    -1.271107   105.634625
	   25 B(7,4,8)        =    107.881477    -0.000276    -0.689174   107.192303
	   26 B(7,4,9)        =    107.656596    -0.000660    -1.106320   106.550276
	   27 B(8,4,9)        =    108.149911    -0.000186    -1.714331   106.435580
	   28 B(10,5,11)      =    107.881436    -0.000037    -0.035521   107.845915
	   29 B(10,5,12)      =    107.656535     0.000133     0.158334   107.814869
	   30 B(11,5,12)      =    108.149905     0.000175     0.621052   108.770956
	   31 D(1,2,3,4)      =     63.616222    -0.000065    -1.941044    61.675178
	   32 D(1,2,3,5)      =    -63.612801     0.000012    -3.106975   -66.719775
	   33 D(1,2,3,6)      =   -179.998286     0.000033    -0.417866  -180.416151
	   34 D(2,3,4,7)      =     -2.997609     0.000033     0.185430    -2.812179
	   35 D(2,3,4,8)      =    116.720323     0.000038     0.342236   117.062559
	   36 D(2,3,4,9)      =   -121.803883    -0.000016    -2.188367  -123.992251
	   37 D(2,3,5,10)     =    -59.581067     0.000068     4.183949   -55.397119
	   38 D(2,3,5,11)     =   -179.299006     0.000080     4.588676  -174.710330
	   39 D(2,3,5,12)     =     59.225217     0.000077     4.313107    63.538323
	   40 D(4,3,5,10)     =    175.580667    -0.000031    -0.194176   175.386491
	   41 D(4,3,5,11)     =     55.862728    -0.000020     0.210551    56.073279
	   42 D(4,3,5,12)     =    -65.613049    -0.000023    -0.065018   -65.678067
	   43 D(5,3,4,7)      =    121.840729     0.000029     2.206304   124.047033
	   44 D(5,3,4,8)      =   -118.441339     0.000034     2.363110  -116.078229
	   45 D(5,3,4,9)      =      3.034455    -0.000020    -0.167493     2.866961
	   46 *D(6,3,4,7)     =   -119.999990    -0.000000     0.000000  -119.999990
	   47 D(6,3,4,8)      =     -0.282058     0.000006     0.156806    -0.125251
	   48 D(6,3,4,9)      =    121.193736    -0.000049    -2.373797   118.819939
	   49 D(6,3,5,10)     =     57.421347    -0.000009     1.077869    58.499216
	   50 D(6,3,5,11)     =    -62.296592     0.000003     1.482597   -60.813995
	   51 D(6,3,5,12)     =    176.227631    -0.000000     1.207027   177.434658
	   52 R(9,11)         =      2.630496    -0.007989     0.010619     2.641115
	   53 R(9,12)         =      2.724853     0.026744     0.020880     2.745733
	 ---------------------------------------------------------------------------
	Successfully symmetrized geometry.

  ==> Convergence Check <==

  Measures of convergence in internal coordinates in au.
  Criteria marked as inactive (o), active & met (*), and active & unmet ( ).
  --------------------------------------------------------------------------------------------- ~
   Step     Total Energy     Delta E     MAX Force     RMS Force      MAX Disp      RMS Disp    ~
  --------------------------------------------------------------------------------------------- ~
    Convergence Criteria    1.00e-06 *    3.00e-04 *             o    1.20e-03 *             o  ~
  --------------------------------------------------------------------------------------------- ~
      1    -786.58190855   -7.87e+02      1.76e-02      4.44e-03 o    8.01e-02      3.12e-02 o  ~
  ---------------------------------------------------------------------------------------------

	Writing optimization data to binary file.
	Structure for next step:
	Cartesian Geometry (in Angstrom)
	    H     0.0229501137   2.0675243235   0.7186246263
	    O     0.0430515174   1.9232665603  -0.2136318508
	    C    -0.0000938654   0.5765759489  -0.5177960429
	    C    -1.2941443427  -0.1540689696  -0.0368435894
	    C     1.2799348427  -0.1056058493  -0.0434639628
	    H     0.0196181156   0.5151327077  -1.5952361246
	    F    -2.1087542789   0.6305692152   0.6354692870
	    F    -1.9616419262  -0.6144705737  -1.0664140930
	    F    -1.0450981076  -1.1882323193   0.7381473001
	    F     2.3155879284   0.5042626008  -0.5654271848
	    F     1.3257768820  -1.3622796794  -0.4125687219
	    F     1.3945440072  -0.0444314647   1.2662726661
			--------------------------
			 OPTKING Finished Execution 
			--------------------------

    Structure for next step:
    Molecular point group: c1
    Full point group: C1

    Geometry (in Angstrom), charge = 0, multiplicity = 1:

    H            0.028617527126     2.080890823578     0.719604277726
    O            0.048718930851     1.936633060365    -0.212652199417
    C            0.005573548055     0.589942449026    -0.516816391483
    C           -1.288476929180    -0.140702469540    -0.035863938028
    C            1.285602256139    -0.092239349164    -0.042484311455
    H            0.025285529059     0.528499207837    -1.594256473188
    F           -2.103086865417     0.643935715317     0.636448938384
    F           -1.955974512701    -0.601104073649    -1.065434441651
    F           -1.039430694167    -1.174865819185     0.739126951532
    F            2.321255341874     0.517629100912    -0.564447533454
    F            1.331444295478    -1.348913179302    -0.411589070515
    F            1.400211420644    -0.031064964576     1.267252317523

gradient() will perform analytic gradient computation.

*** tstart() called on cx1-27-4-2
*** at Sat Sep 10 16:34:31 2016


         ---------------------------------------------------------
                                   SCF
            by Justin Turney, Rob Parrish, and Andy Simmonett
                              RHF Reference
                        4 Threads,   2000 MiB Core
         ---------------------------------------------------------

  ==> Geometry <==

    Molecular point group: c1
    Full point group: C1

    Geometry (in Angstrom), charge = 0, multiplicity = 1:

       Center              X                  Y                   Z               Mass       
    ------------   -----------------  -----------------  -----------------  -----------------
           H          0.028617527126     2.080890823578     0.719604277726     1.007825032070
           O          0.048718930851     1.936633060365    -0.212652199417    15.994914619560
           C          0.005573548055     0.589942449026    -0.516816391483    12.000000000000
           C         -1.288476929180    -0.140702469540    -0.035863938028    12.000000000000
           C          1.285602256139    -0.092239349164    -0.042484311455    12.000000000000
           H          0.025285529059     0.528499207837    -1.594256473188     1.007825032070
           F         -2.103086865417     0.643935715317     0.636448938384    18.998403224000
           F         -1.955974512701    -0.601104073649    -1.065434441651    18.998403224000
           F         -1.039430694167    -1.174865819185     0.739126951532    18.998403224000
           F          2.321255341874     0.517629100912    -0.564447533454    18.998403224000
           F          1.331444295478    -1.348913179302    -0.411589070515    18.998403224000
           F          1.400211420644    -0.031064964576     1.267252317523    18.998403224000

  Running in c1 symmetry.

  Rotational constants: A =      0.07148  B =      0.03533  C =      0.03121 [cm^-1]
  Rotational constants: A =   2143.01240  B =   1059.10038  C =    935.55905 [MHz]
  Nuclear repulsion =  668.424685145403828

  Charge       = 0
  Multiplicity = 1
  Electrons    = 82
  Nalpha       = 41
  Nbeta        = 41

  ==> Algorithm <==

  SCF Algorithm Type is DF.
  DIIS enabled.
  MOM disabled.
  Fractional occupation disabled.
  Guess Type is READ.
  Energy threshold   = 1.00e-08
  Density threshold  = 1.00e-08
  Integral threshold = 0.00e+00

  ==> Primary Basis <==

  Basis Set: CC-PVTZ
    Number of shells: 112
    Number of basis function: 328
    Number of Cartesian functions: 380
    Spherical Harmonics?: true
    Max angular momentum: 3

  ==> Pre-Iterations <==

   -------------------------------------------------------
    Irrep   Nso     Nmo     Nalpha   Nbeta   Ndocc  Nsocc
   -------------------------------------------------------
     A        328     328       0       0       0       0
   -------------------------------------------------------
    Total     328     328      41      41      41       0
   -------------------------------------------------------

  ==> Integral Setup <==

  ==> DFJK: Density-Fitted J/K Matrices <==

    J tasked:                  Yes
    K tasked:                  Yes
    wK tasked:                  No
    OpenMP threads:              4
    Integrals threads:           4
    Memory (MB):              1430
    Algorithm:                Core
    Integral Cache:           NONE
    Schwarz Cutoff:          1E-12
    Fitting Condition:       1E-12

   => Auxiliary Basis Set <=

  Basis Set: 
    Number of shells: 270
    Number of basis function: 850
    Number of Cartesian functions: 1030
    Spherical Harmonics?: true
    Max angular momentum: 4

  Minimum eigenvalue in the overlap matrix is 6.0576120697E-04.
  Using Symmetric Orthogonalization.
  SCF Guess: Reading in previously saved MOs, projecting if necessary.

  Using orbitals from previous SCF, no projection.
  Recomputing DOCC and SOCC from number of alpha and beta electrons from previous calculation.
              A 
    DOCC [    41 ]

  ==> Iterations <==

                           Total Energy        Delta E     RMS |[F,P]|

   @DF-RHF iter   0:  -786.53871284586762   -7.86539e+02   7.11404e-04 
   @DF-RHF iter   1:  -786.58150666863321   -4.27938e-02   1.09623e-04 
   @DF-RHF iter   2:  -786.58240891833998   -9.02250e-04   4.04770e-05 DIIS
   @DF-RHF iter   3:  -786.58253382788530   -1.24910e-04   1.83282e-05 DIIS
   @DF-RHF iter   4:  -786.58255427798008   -2.04501e-05   4.09541e-06 DIIS
   @DF-RHF iter   5:  -786.58255542761276   -1.14963e-06   1.50648e-06 DIIS
   @DF-RHF iter   6:  -786.58255564390060   -2.16288e-07   3.18940e-07 DIIS
   @DF-RHF iter   7:  -786.58255565633340   -1.24328e-08   9.89636e-08 DIIS
   @DF-RHF iter   8:  -786.58255565713034   -7.96945e-10   3.56463e-08 DIIS
   @DF-RHF iter   9:  -786.58255565723880   -1.08457e-10   9.60166e-09 DIIS

  ==> Post-Iterations <==

    Orbital Energies (a.u.)
    -----------------------

    Doubly Occupied:                                                      

       1A    -26.358075     2A    -26.356993     3A    -26.356585  
       4A    -26.354360     5A    -26.353408     6A    -26.352981  
       7A    -20.611460     8A    -11.523393     9A    -11.518694  
      10A    -11.354765    11A     -1.771044    12A     -1.765145  
      13A     -1.665468    14A     -1.663024    15A     -1.661636  
      16A     -1.657826    17A     -1.437908    18A     -1.100724  
      19A     -0.999799    20A     -0.944118    21A     -0.871409  
      22A     -0.864180    23A     -0.856506    24A     -0.852370  
      25A     -0.840655    26A     -0.819646    27A     -0.738012  
      28A     -0.737158    29A     -0.735085    30A     -0.729380  
      31A     -0.694298    32A     -0.690633    33A     -0.689306  
      34A     -0.682607    35A     -0.673133    36A     -0.668452  
      37A     -0.661063    38A     -0.653559    39A     -0.624417  
      40A     -0.553851    41A     -0.510853  

    Virtual:                                                              

      42A      0.145031    43A      0.161000    44A      0.247441  
      45A      0.284495    46A      0.304626    47A      0.328460  
      48A      0.338886    49A      0.379181    50A      0.402388  
      51A      0.429562    52A      0.458087    53A      0.465185  
      54A      0.480926    55A      0.494387    56A      0.510141  
      57A      0.510892    58A      0.522485    59A      0.534021  
      60A      0.552167    61A      0.593177    62A      0.600186  
      63A      0.610721    64A      0.653599    65A      0.659426  
      66A      0.726259    67A      0.742942    68A      0.749968  
      69A      0.770300    70A      0.802640    71A      0.840473  
      72A      0.854752    73A      0.883726    74A      0.897919  
      75A      0.907492    76A      0.953406    77A      0.959155  
      78A      0.988535    79A      0.994074    80A      1.021204  
      81A      1.031252    82A      1.047657    83A      1.066466  
      84A      1.090591    85A      1.120252    86A      1.128813  
      87A      1.141074    88A      1.148610    89A      1.164962  
      90A      1.173776    91A      1.183828    92A      1.203970  
      93A      1.247403    94A      1.277912    95A      1.330301  
      96A      1.345246    97A      1.359403    98A      1.384789  
      99A      1.417984   100A      1.430433   101A      1.466528  
     102A      1.481473   103A      1.507429   104A      1.528090  
     105A      1.556111   106A      1.580667   107A      1.646524  
     108A      1.692831   109A      1.746954   110A      1.850327  
     111A      1.934767   112A      1.966890   113A      1.999367  
     114A      2.042630   115A      2.087285   116A      2.130986  
     117A      2.158126   118A      2.177827   119A      2.182784  
     120A      2.193997   121A      2.219917   122A      2.229420  
     123A      2.233747   124A      2.250515   125A      2.258889  
     126A      2.292511   127A      2.298561   128A      2.318788  
     129A      2.347209   130A      2.364142   131A      2.425648  
     132A      2.441852   133A      2.447695   134A      2.468441  
     135A      2.499677   136A      2.532719   137A      2.551986  
     138A      2.625966   139A      2.648122   140A      2.658957  
     141A      2.665357   142A      2.710602   143A      2.716066  
     144A      2.749894   145A      2.772770   146A      2.802334  
     147A      2.852402   148A      2.860110   149A      2.883268  
     150A      2.916533   151A      2.969375   152A      3.001230  
     153A      3.026729   154A      3.109040   155A      3.122351  
     156A      3.201716   157A      3.231886   158A      3.263699  
     159A      3.269486   160A      3.289342   161A      3.296932  
     162A      3.308553   163A      3.321865   164A      3.341973  
     165A      3.359338   166A      3.389553   167A      3.411045  
     168A      3.448890   169A      3.460115   170A      3.482102  
     171A      3.506225   172A      3.567252   173A      3.595192  
     174A      3.617554   175A      3.636732   176A      3.657728  
     177A      3.696104   178A      3.714886   179A      3.748933  
     180A      3.777525   181A      3.787232   182A      3.844944  
     183A      3.856074   184A      3.876679   185A      3.896948  
     186A      3.927494   187A      3.936614   188A      3.950825  
     189A      3.971295   190A      3.988109   191A      4.021045  
     192A      4.060799   193A      4.123090   194A      4.124763  
     195A      4.183752   196A      4.238408   197A      4.253941  
     198A      4.312409   199A      4.329767   200A      4.374559  
     201A      4.416926   202A      4.470739   203A      4.497161  
     204A      4.529673   205A      4.546194   206A      4.583366  
     207A      4.609687   208A      4.713909   209A      4.748920  
     210A      5.085763   211A      5.125178   212A      5.196126  
     213A      5.250147   214A      5.303754   215A      5.315924  
     216A      5.325843   217A      5.346147   218A      5.362718  
     219A      5.378540   220A      5.429072   221A      5.474981  
     222A      5.485783   223A      5.501345   224A      5.542525  
     225A      5.582749   226A      5.598796   227A      5.608335  
     228A      5.769175   229A      5.913088   230A      6.002789  
     231A      6.108414   232A      6.144471   233A      6.357049  
     234A      6.544247   235A      6.550966   236A      6.575384  
     237A      6.593339   238A      6.715694   239A      7.002307  
     240A      7.099843   241A      7.186817   242A      7.237437  
     243A      7.295286   244A      7.297981   245A      7.315381  
     246A      7.332898   247A      7.337232   248A      7.339588  
     249A      7.340469   250A      7.341383   251A      7.342952  
     252A      7.344147   253A      7.346411   254A      7.349196  
     255A      7.349532   256A      7.354015   257A      7.355911  
     258A      7.357789   259A      7.359359   260A      7.367695  
     261A      7.373243   262A      7.422822   263A      7.484974  
     264A      7.486526   265A      7.500801   266A      7.501296  
     267A      7.512988   268A      7.520642   269A      7.576828  
     270A      7.591237   271A      7.610874   272A      7.619293  
     273A      7.626315   274A      7.639330   275A      7.687358  
     276A      7.843049   277A      7.867126   278A      7.909502  
     279A      7.936804   280A      7.942442   281A      7.952728  
     282A      8.001886   283A      8.056682   284A      8.100538  
     285A      8.137780   286A      8.144796   287A      8.166833  
     288A      8.182577   289A      8.874399   290A      8.892254  
     291A      8.901752   292A      8.905091   293A      8.914205  
     294A      8.925586   295A      8.988794   296A      9.005504  
     297A      9.018325   298A      9.029374   299A      9.058225  
     300A      9.065629   301A      9.157085   302A      9.199808  
     303A      9.300799   304A      9.320886   305A      9.382327  
     306A      9.385326   307A      9.393976   308A      9.401512  
     309A      9.508475   310A      9.513612   311A      9.655665  
     312A      9.665410   313A      9.674426   314A      9.692957  
     315A      9.720636   316A      9.727992   317A      9.749717  
     318A      9.757343   319A     10.681066   320A     11.266516  
     321A     12.050266   322A     12.322535   323A     12.401137  
     324A     12.483276   325A     12.791273   326A     13.001362  
     327A     13.569583   328A     13.668547  

    Final Occupation by Irrep:
              A 
    DOCC [    41 ]

  Energy converged.

  @DF-RHF Final Energy:  -786.58255565723880

   => Energetics <=

    Nuclear Repulsion Energy =            668.4246851454038278
    One-Electron Energy =               -2424.1065213680471970
    Two-Electron Energy =                 969.0992805654043423
    DFT Exchange-Correlation Energy =       0.0000000000000000
    Empirical Dispersion Energy =           0.0000000000000000
    PCM Polarization Energy =               0.0000000000000000
    EFP Energy =                            0.0000000000000000
    Total Energy =                       -786.5825556572390269


  Saving occupied orbitals to File 180.

*** tstop() called on cx1-27-4-2 at Sat Sep 10 16:34:38 2016
Module time:
	user time   =      23.59 seconds =       0.39 minutes
	system time =       0.62 seconds =       0.01 minutes
	total time  =          7 seconds =       0.12 minutes
Total time:
	user time   =      85.35 seconds =       1.42 minutes
	system time =       2.33 seconds =       0.04 minutes
	total time  =         25 seconds =       0.42 minutes


Properties will be evaluated at   0.000000,   0.000000,   0.000000 Bohr

Properties computed using the SCF density matrix

  Nuclear Dipole Moment: (a.u.)
     X:     0.0938      Y:     4.3369      Z:    -1.3883

  Electronic Dipole Moment: (a.u.)
     X:    -0.0908      Y:    -3.9988      Z:     1.3899

  Dipole Moment: (a.u.)
     X:     0.0029      Y:     0.3381      Z:     0.0017     Total:     0.3381

  Dipole Moment: (Debye)
     X:     0.0075      Y:     0.8593      Z:     0.0042     Total:     0.8594


*** tstart() called on cx1-27-4-2
*** at Sat Sep 10 16:34:38 2016


         ------------------------------------------------------------
                                   SCF GRAD                          
                          Rob Parrish, Justin Turney,                
                       Andy Simmonett, and Alex Sokolov              
         ------------------------------------------------------------

  ==> Geometry <==

    Molecular point group: c1
    Full point group: C1

    Geometry (in Angstrom), charge = 0, multiplicity = 1:

       Center              X                  Y                   Z               Mass       
    ------------   -----------------  -----------------  -----------------  -----------------
           H          0.028617527126     2.080890823578     0.719604277726     1.007825032070
           O          0.048718930851     1.936633060365    -0.212652199417    15.994914619560
           C          0.005573548055     0.589942449026    -0.516816391483    12.000000000000
           C         -1.288476929180    -0.140702469540    -0.035863938028    12.000000000000
           C          1.285602256139    -0.092239349164    -0.042484311455    12.000000000000
           H          0.025285529059     0.528499207837    -1.594256473188     1.007825032070
           F         -2.103086865417     0.643935715317     0.636448938384    18.998403224000
           F         -1.955974512701    -0.601104073649    -1.065434441651    18.998403224000
           F         -1.039430694167    -1.174865819185     0.739126951532    18.998403224000
           F          2.321255341874     0.517629100912    -0.564447533454    18.998403224000
           F          1.331444295478    -1.348913179302    -0.411589070515    18.998403224000
           F          1.400211420644    -0.031064964576     1.267252317523    18.998403224000

  Nuclear repulsion =  668.424685145403828

  ==> Basis Set <==

  Basis Set: CC-PVTZ
    Number of shells: 112
    Number of basis function: 328
    Number of Cartesian functions: 380
    Spherical Harmonics?: true
    Max angular momentum: 3

  ==> DFJKGrad: Density-Fitted SCF Gradients <==

    Gradient:                    1
    J tasked:                  Yes
    K tasked:                  Yes
    wK tasked:                  No
    OpenMP threads:              4
    Integrals threads:           4
    Memory (MB):              1430
    Schwarz Cutoff:          0E+00
    Fitting Condition:       1E-12

   => Auxiliary Basis Set <=

  Basis Set: 
    Number of shells: 270
    Number of basis function: 850
    Number of Cartesian functions: 1030
    Spherical Harmonics?: true
    Max angular momentum: 4


  -Total Gradient:
     Atom            X                  Y                   Z
    ------   -----------------  -----------------  -----------------
       1        0.000572330126    -0.000212419790     0.000535238567
       2        0.005038297702     0.005726479339    -0.003649653903
       3       -0.000091700254    -0.003692880459     0.001758028937
       4        0.005749604421     0.004041295971    -0.004990849795
       5        0.000669060428    -0.000167570602    -0.001040482030
       6        0.002810917827     0.001905180512    -0.000525729036
       7       -0.009238943508    -0.003113762114     0.003700801769
       8       -0.000361872499    -0.001753050421     0.005112029331
       9       -0.002928008168    -0.003353681158    -0.000008376819
      10        0.000075519333     0.000979048682    -0.000877605867
      11       -0.000637858300    -0.000822643525    -0.000511918267
      12       -0.001657347100     0.000464003567     0.000498517123


*** tstop() called on cx1-27-4-2 at Sat Sep 10 16:34:46 2016
Module time:
	user time   =      30.02 seconds =       0.50 minutes
	system time =       0.67 seconds =       0.01 minutes
	total time  =          8 seconds =       0.13 minutes
Total time:
	user time   =     115.46 seconds =       1.92 minutes
	system time =       3.00 seconds =       0.05 minutes
	total time  =         33 seconds =       0.55 minutes

			-----------------------------------------
			 OPTKING 2.0: for geometry optimizations 
			  - R.A. King,  Bethel University        
			-----------------------------------------

	Previous internal coordinate definitions found.
	---Fragment 1 Geometry and Gradient---
	 H           0.0540792889        3.9323137690        1.3598550090
	 O           0.0920654368        3.6597061040       -0.4018544185
	 C           0.0105324794        1.1148296628       -0.9766414409
	 C          -2.4348685247       -0.2658891337       -0.0677730209
	 C           2.4294361799       -0.1743071086       -0.0802837136
	 H           0.0477827250        0.9987187643       -3.0127081199
	 F          -3.9742582093        1.2168621491        1.2027141911
	 F          -3.6962561519       -1.1359220766       -2.0133793073
	 F          -1.9642393461       -2.2201746411        1.3967475158
	 F           4.3865368806        0.9781772391       -1.0666512546
	 F           2.5160650796       -2.5490764859       -0.7777906226
	 F           2.6460161132       -0.0587042754        2.3947598214
	             0.0005723301       -0.0002124198        0.0005352386
	             0.0050382977        0.0057264793       -0.0036496539
	            -0.0000917003       -0.0036928805        0.0017580289
	             0.0057496044        0.0040412960       -0.0049908498
	             0.0006690604       -0.0001675706       -0.0010404820
	             0.0028109178        0.0019051805       -0.0005257290
	            -0.0092389435       -0.0031137621        0.0037008018
	            -0.0003618725       -0.0017530504        0.0051120293
	            -0.0029280082       -0.0033536812       -0.0000083768
	             0.0000755193        0.0009790487       -0.0008776059
	            -0.0006378583       -0.0008226435       -0.0005119183
	            -0.0016573471        0.0004640036        0.0004985171

	---Fragment 1 Intrafragment Coordinates---
	 - Coordinate -           - BOHR/RAD -       - ANG/DEG -
	 R(1,2)           =         1.783081	       0.943566
	 R(2,3)           =         2.610254	       1.381287
	 R(3,4)           =         2.951680	       1.561962
	 R(3,5)           =         2.883821	       1.526053
	 R(3,6)           =         2.039715	       1.079371
	 R(4,7)           =         2.486445	       1.315770
	 R(4,8)           =         2.476578	       1.310549
	 R(4,9)           =         2.487075	       1.316104
	 R(5,10)          =         2.476163	       1.310329
	 R(5,11)          =         2.476601	       1.310561
	 R(5,12)          =         2.487189	       1.316164
	 B(1,2,3)         =         1.945455	     111.466385
	 B(2,3,4)         =         1.997785	     114.464658
	 B(2,3,5)         =         1.918972	     109.948980
	 B(2,3,6)         =         1.849114	     105.946433
	 B(3,4,7)         =         1.972847	     113.035781
	 B(3,4,8)         =         1.922393	     110.145030
	 B(3,4,9)         =         1.973720	     113.085846
	 B(3,5,10)        =         1.908246	     109.334424
	 B(3,5,11)        =         1.950283	     111.742964
	 B(3,5,12)        =         1.940745	     111.196491
	 B(4,3,5)         =         1.971537	     112.960767
	 B(4,3,6)         =         1.871159	     107.209530
	 B(5,3,6)         =         1.843672	     105.634625
	 B(7,4,8)         =         1.870859	     107.192303
	 B(7,4,9)         =         1.859653	     106.550276
	 B(8,4,9)         =         1.857651	     106.435580
	 B(10,5,11)       =         1.882266	     107.845915
	 B(10,5,12)       =         1.881724	     107.814869
	 B(11,5,12)       =         1.898411	     108.770956
	 D(1,2,3,4)       =         1.076435	      61.675178
	 D(1,2,3,5)       =        -1.164480	     -66.719775
	 D(1,2,3,6)       =         3.134329	     179.583849
	 D(2,3,4,7)       =        -0.049082	      -2.812179
	 D(2,3,4,8)       =         2.043127	     117.062559
	 D(2,3,4,9)       =        -2.164073	    -123.992251
	 D(2,3,5,10)      =        -0.966862	     -55.397119
	 D(2,3,5,11)      =        -3.049270	    -174.710330
	 D(2,3,5,12)      =         1.108953	      63.538323
	 D(4,3,5,10)      =         3.061072	     175.386491
	 D(4,3,5,11)      =         0.978663	      56.073279
	 D(4,3,5,12)      =        -1.146299	     -65.678067
	 D(5,3,4,7)       =         2.165029	     124.047033
	 D(5,3,4,8)       =        -2.025947	    -116.078229
	 D(5,3,4,9)       =         0.050038	       2.866961
	*D(6,3,4,7)       =        -2.094395	    -119.999990
	 D(6,3,4,8)       =        -0.002186	      -0.125251
	 D(6,3,4,9)       =         2.073799	     118.819939
	 D(6,3,5,10)      =         1.021004	      58.499216
	 D(6,3,5,11)      =        -1.061404	     -60.813995
	 D(6,3,5,12)      =         3.096819	     177.434658
	 R(9,11)          =         4.990984	       2.641115
	 R(9,12)          =         5.188684	       2.745733

	Current energy   :      -786.5825556572

	Energy change for the previous step:
		Projected    :         0.0021844226
		Actual       :        -0.0006471063

	Performing BFGS update.
	Previous computed or guess Hessian on step 1.
	Steps to be used in Hessian update: 1
	Taking RFO optimization step.
	Going to follow RFO solution 1.
	Using RFO vector 1.
	Norm of target step-size    0.09773
	Projected energy change by RFO approximation:        -0.0019226039

	Back-transformation to cartesian coordinates...
	Successfully converged to displaced geometry.

	Back-transformation to cartesian coordinates to adjust frozen coordinates...
	Successfully converged to displaced geometry.

	--- Internal Coordinate Step in ANG or DEG, aJ/ANG or AJ/DEG ---
	 ---------------------------------------------------------------------------
	   Coordinate                Previous        Force       Change         New 
	   ----------                --------       ------       ------       ------
	    1 R(1,2)          =      0.943566    -0.003989    -0.000724     0.942841
	    2 R(2,3)          =      1.381287    -0.040085    -0.004057     1.377230
	    3 R(3,4)          =      1.561962    -0.074411    -0.007933     1.554028
	    4 R(3,5)          =      1.526053     0.015292     0.001643     1.527695
	    5 R(3,6)          =      1.079371    -0.003853    -0.000507     1.078863
	    6 R(4,7)          =      1.315770    -0.047406    -0.004290     1.311480
	    7 R(4,8)          =      1.310549     0.026495     0.001123     1.311672
	    8 R(4,9)          =      1.316104    -0.017153    -0.001365     1.314738
	    9 R(5,10)         =      1.310329    -0.007126    -0.000561     1.309768
	   10 R(5,11)         =      1.310561    -0.009230    -0.000782     1.309778
	   11 R(5,12)         =      1.316164    -0.001630    -0.000300     1.315864
	   12 B(1,2,3)        =    111.466385     0.000036     0.142012   111.608397
	   13 B(2,3,4)        =    114.464658    -0.000498    -1.529367   112.935291
	   14 B(2,3,5)        =    109.948980     0.000183     0.366313   110.315293
	   15 B(2,3,6)        =    105.946433     0.000208     0.914466   106.860898
	   16 B(3,4,7)        =    113.035781    -0.001017    -1.929671   111.106110
	   17 B(3,4,8)        =    110.145030    -0.000222    -0.398807   109.746222
	   18 B(3,4,9)        =    113.085846    -0.000179    -0.008345   113.077502
	   19 B(3,5,10)       =    109.334424     0.000084     0.122479   109.456902
	   20 B(3,5,11)       =    111.742964    -0.000046    -0.009687   111.733277
	   21 B(3,5,12)       =    111.196491     0.000246     0.370119   111.566610
	   22 B(4,3,5)        =    112.960767     0.000244     0.192148   113.152916
	   23 B(4,3,6)        =    107.209530    -0.000088    -0.444162   106.765368
	   24 B(5,3,6)        =    105.634625    -0.000025     0.688257   106.322882
	   25 B(7,4,8)        =    107.192303     0.000581     0.615600   107.807903
	   26 B(7,4,9)        =    106.550276     0.000566     0.696260   107.246536
	   27 B(8,4,9)        =    106.435580     0.000408     1.216215   107.651796
	   28 B(10,5,11)      =    107.845915    -0.000030    -0.164752   107.681163
	   29 B(10,5,12)      =    107.814869    -0.000168    -0.246593   107.568276
	   30 B(11,5,12)      =    108.770956    -0.000099    -0.098975   108.671982
	   31 D(1,2,3,4)      =     61.675178     0.000020    -1.580615    60.094563
	   32 D(1,2,3,5)      =    -66.719775     0.000000    -0.913400   -67.633175
	   33 D(1,2,3,6)      =    179.583849    -0.000038    -2.390336   177.193513
	   34 D(2,3,4,7)      =     -2.812179    -0.000021    -0.032518    -2.844697
	   35 D(2,3,4,8)      =    117.062559    -0.000042    -0.773188   116.289371
	   36 D(2,3,4,9)      =   -123.992251     0.000015     0.489872  -123.502379
	   37 D(2,3,5,10)     =    -55.397119    -0.000056    -1.418692   -56.815810
	   38 D(2,3,5,11)     =   -174.710330    -0.000053    -1.287500  -175.997830
	   39 D(2,3,5,12)     =     63.538323    -0.000057    -1.416677    62.121646
	   40 D(4,3,5,10)     =    175.386491     0.000018     0.189877   175.576368
	   41 D(4,3,5,11)     =     56.073279     0.000020     0.321068    56.394347
	   42 D(4,3,5,12)     =    -65.678067     0.000017     0.191891   -65.486176
	   43 D(5,3,4,7)      =    124.047033    -0.000011    -0.666631   123.380402
	   44 D(5,3,4,8)      =   -116.078229    -0.000033    -1.407301  -117.485530
	   45 D(5,3,4,9)      =      2.866961     0.000024    -0.144241     2.722720
	   46 *D(6,3,4,7)     =   -119.999990    -0.000000    -0.000000  -119.999990
	   47 D(6,3,4,8)      =     -0.125251    -0.000021    -0.740671    -0.865922
	   48 D(6,3,4,9)      =    118.819939     0.000035     0.522389   119.342328
	   49 D(6,3,5,10)     =     58.499216     0.000016     0.196768    58.695984
	   50 D(6,3,5,11)     =    -60.813995     0.000019     0.327959   -60.486036
	   51 D(6,3,5,12)     =    177.434658     0.000015     0.198782   177.633441
	   52 R(9,11)         =      2.641115     0.007949     0.003546     2.644661
	   53 R(9,12)         =      2.745733    -0.005019     0.002060     2.747793
	 ---------------------------------------------------------------------------
	Successfully symmetrized geometry.

  ==> Convergence Check <==

  Measures of convergence in internal coordinates in au.
  Criteria marked as inactive (o), active & met (*), and active & unmet ( ).
  ---------------------------------------------------------------------------------------------
   Step     Total Energy     Delta E     MAX Force     RMS Force      MAX Disp      RMS Disp   
  ---------------------------------------------------------------------------------------------
    Convergence Criteria    1.00e-06 *    3.00e-04 *             o    1.20e-03 *             o
  ---------------------------------------------------------------------------------------------
      2    -786.58255566   -6.47e-04      1.34e-02      3.49e-03 o    4.17e-02      1.34e-02 o  ~
  ---------------------------------------------------------------------------------------------

	Writing optimization data to binary file.
	Structure for next step:
	Cartesian Geometry (in Angstrom)
	    H    -0.0170500283   2.0603329216   0.7216730078
	    O     0.0306503391   1.9209834148  -0.2095929158
	    C     0.0084830870   0.5802076543  -0.5235860519
	    C    -1.2827997936  -0.1344681909  -0.0369331048
	    C     1.2890637096  -0.0988010917  -0.0409753373
	    H     0.0156843917   0.5107843412  -1.6001893878
	    F    -2.0564941404   0.6894938310   0.6282465108
	    F    -1.9607581589  -0.5761304074  -1.0693045415
	    F    -1.0392424507  -1.1602844602   0.7485079429
	    F     2.3267735303   0.5027809394  -0.5670462284
	    F     1.3351482173  -1.3577634444  -0.3993177471
	    F     1.4102811446  -0.0284950061   1.2674059792
			--------------------------
			 OPTKING Finished Execution 
			--------------------------

    Structure for next step:
    Molecular point group: c1
    Full point group: C1

    Geometry (in Angstrom), charge = 0, multiplicity = 1:

    H           -0.022789678606     2.055535494311     0.721050218253
    O            0.024910688877     1.916185987505    -0.210215705380
    C            0.002743436712     0.575410226991    -0.524208841483
    C           -1.288539443901    -0.139265618196    -0.037555894378
    C            1.283324059304    -0.103598518985    -0.041598126807
    H            0.009944741447     0.505986913886    -1.600812177348
    F           -2.062233790622     0.684696403649     0.627623721286
    F           -1.966497809127    -0.580927834694    -1.069927331069
    F           -1.044982100942    -1.165081887541     0.747885153316
    F            2.321033880061     0.497983512049    -0.567669017900
    F            1.329408567030    -1.362560871750    -0.399940536635
    F            1.404541494383    -0.033292433440     1.266783189656

gradient() will perform analytic gradient computation.

*** tstart() called on cx1-27-4-2
*** at Sat Sep 10 16:34:46 2016


         ---------------------------------------------------------
                                   SCF
            by Justin Turney, Rob Parrish, and Andy Simmonett
                              RHF Reference
                        4 Threads,   2000 MiB Core
         ---------------------------------------------------------

  ==> Geometry <==

    Molecular point group: c1
    Full point group: C1

    Geometry (in Angstrom), charge = 0, multiplicity = 1:

       Center              X                  Y                   Z               Mass       
    ------------   -----------------  -----------------  -----------------  -----------------
           H         -0.022789678606     2.055535494311     0.721050218253     1.007825032070
           O          0.024910688877     1.916185987505    -0.210215705380    15.994914619560
           C          0.002743436712     0.575410226991    -0.524208841483    12.000000000000
           C         -1.288539443901    -0.139265618196    -0.037555894378    12.000000000000
           C          1.283324059304    -0.103598518985    -0.041598126807    12.000000000000
           H          0.009944741447     0.505986913886    -1.600812177348     1.007825032070
           F         -2.062233790622     0.684696403649     0.627623721286    18.998403224000
           F         -1.966497809127    -0.580927834694    -1.069927331069    18.998403224000
           F         -1.044982100942    -1.165081887541     0.747885153316    18.998403224000
           F          2.321033880061     0.497983512049    -0.567669017900    18.998403224000
           F          1.329408567030    -1.362560871750    -0.399940536635    18.998403224000
           F          1.404541494383    -0.033292433440     1.266783189656    18.998403224000

  Running in c1 symmetry.

  Rotational constants: A =      0.07167  B =      0.03550  C =      0.03140 [cm^-1]
  Rotational constants: A =   2148.76100  B =   1064.24030  C =    941.37530 [MHz]
  Nuclear repulsion =  669.695333922055511

  Charge       = 0
  Multiplicity = 1
  Electrons    = 82
  Nalpha       = 41
  Nbeta        = 41

  ==> Algorithm <==

  SCF Algorithm Type is DF.
  DIIS enabled.
  MOM disabled.
  Fractional occupation disabled.
  Guess Type is READ.
  Energy threshold   = 1.00e-08
  Density threshold  = 1.00e-08
  Integral threshold = 0.00e+00

  ==> Primary Basis <==

  Basis Set: CC-PVTZ
    Number of shells: 112
    Number of basis function: 328
    Number of Cartesian functions: 380
    Spherical Harmonics?: true
    Max angular momentum: 3

  ==> Pre-Iterations <==

   -------------------------------------------------------
    Irrep   Nso     Nmo     Nalpha   Nbeta   Ndocc  Nsocc
   -------------------------------------------------------
     A        328     328       0       0       0       0
   -------------------------------------------------------
    Total     328     328      41      41      41       0
   -------------------------------------------------------

  ==> Integral Setup <==

  ==> DFJK: Density-Fitted J/K Matrices <==

    J tasked:                  Yes
    K tasked:                  Yes
    wK tasked:                  No
    OpenMP threads:              4
    Integrals threads:           4
    Memory (MB):              1430
    Algorithm:                Core
    Integral Cache:           NONE
    Schwarz Cutoff:          1E-12
    Fitting Condition:       1E-12

   => Auxiliary Basis Set <=

  Basis Set: 
    Number of shells: 270
    Number of basis function: 850
    Number of Cartesian functions: 1030
    Spherical Harmonics?: true
    Max angular momentum: 4

  Minimum eigenvalue in the overlap matrix is 5.9603430868E-04.
  Using Symmetric Orthogonalization.
  SCF Guess: Reading in previously saved MOs, projecting if necessary.

  Using orbitals from previous SCF, no projection.
  Recomputing DOCC and SOCC from number of alpha and beta electrons from previous calculation.
              A 
    DOCC [    41 ]

  ==> Iterations <==

                           Total Energy        Delta E     RMS |[F,P]|

   @DF-RHF iter   0:  -786.59660065874289   -7.86597e+02   2.72384e-04 
   @DF-RHF iter   1:  -786.58335614948771    1.32445e-02   4.23043e-05 
   @DF-RHF iter   2:  -786.58349986378323   -1.43714e-04   1.61570e-05 DIIS
   @DF-RHF iter   3:  -786.58352210696546   -2.22432e-05   7.59518e-06 DIIS
   @DF-RHF iter   4:  -786.58352523010888   -3.12314e-06   1.45617e-06 DIIS
   @DF-RHF iter   5:  -786.58352543116473   -2.01056e-07   4.74698e-07 DIIS
   @DF-RHF iter   6:  -786.58352545325909   -2.20944e-08   1.27480e-07 DIIS
   @DF-RHF iter   7:  -786.58352545497848   -1.71940e-09   3.44679e-08 DIIS
   @DF-RHF iter   8:  -786.58352545510354   -1.25056e-10   1.20255e-08 DIIS
   @DF-RHF iter   9:  -786.58352545511696   -1.34150e-11   3.99370e-09 DIIS

  ==> Post-Iterations <==

    Orbital Energies (a.u.)
    -----------------------

    Doubly Occupied:                                                      

       1A    -26.357994     2A    -26.357125     3A    -26.356164  
       4A    -26.355884     5A    -26.355530     6A    -26.351947  
       7A    -20.609252     8A    -11.522428     9A    -11.517389  
      10A    -11.351937    11A     -1.771577    12A     -1.765391  
      13A     -1.665296    14A     -1.664016    15A     -1.663803  
      16A     -1.658816    17A     -1.438243    18A     -1.100405  
      19A     -1.000348    20A     -0.943883    21A     -0.871862  
      22A     -0.865552    23A     -0.857325    24A     -0.853540  
      25A     -0.841301    26A     -0.819671    27A     -0.739360  
      28A     -0.737150    29A     -0.735446    30A     -0.729987  
      31A     -0.694716    32A     -0.691311    33A     -0.688558  
      34A     -0.684265    35A     -0.674381    36A     -0.668882  
      37A     -0.662240    38A     -0.653910    39A     -0.622372  
      40A     -0.552347    41A     -0.509162  

    Virtual:                                                              

      42A      0.147385    43A      0.161384    44A      0.250026  
      45A      0.286552    46A      0.305866    47A      0.327946  
      48A      0.339901    49A      0.379820    50A      0.401453  
      51A      0.431151    52A      0.458975    53A      0.465526  
      54A      0.481438    55A      0.494408    56A      0.507960  
      57A      0.513727    58A      0.525042    59A      0.534121  
      60A      0.551405    61A      0.594849    62A      0.600867  
      63A      0.612226    64A      0.654560    65A      0.661888  
      66A      0.729159    67A      0.748112    68A      0.751873  
      69A      0.770882    70A      0.800666    71A      0.836171  
      72A      0.857141    73A      0.883946    74A      0.896933  
      75A      0.907279    76A      0.953585    77A      0.961203  
      78A      0.989550    79A      0.992513    80A      1.021860  
      81A      1.032475    82A      1.051057    83A      1.068420  
      84A      1.091206    85A      1.118329    86A      1.128916  
      87A      1.138505    88A      1.150206    89A      1.167606  
      90A      1.175130    91A      1.181326    92A      1.205613  
      93A      1.244330    94A      1.285468    95A      1.328513  
      96A      1.351528    97A      1.359158    98A      1.384378  
      99A      1.418858   100A      1.431410   101A      1.461102  
     102A      1.484629   103A      1.515150   104A      1.526997  
     105A      1.555488   106A      1.578770   107A      1.645407  
     108A      1.695502   109A      1.743546   110A      1.853171  
     111A      1.946224   112A      1.969565   113A      2.001247  
     114A      2.047296   115A      2.088573   116A      2.135126  
     117A      2.157972   118A      2.178535   119A      2.183360  
     120A      2.196543   121A      2.218073   122A      2.230164  
     123A      2.236851   124A      2.254105   125A      2.258340  
     126A      2.293085   127A      2.296829   128A      2.313167  
     129A      2.343451   130A      2.364198   131A      2.425814  
     132A      2.441870   133A      2.450290   134A      2.457362  
     135A      2.502904   136A      2.541529   137A      2.558921  
     138A      2.634261   139A      2.652296   140A      2.658787  
     141A      2.668516   142A      2.712894   143A      2.716565  
     144A      2.749455   145A      2.774494   146A      2.801267  
     147A      2.853364   148A      2.854967   149A      2.884073  
     150A      2.918147   151A      2.970508   152A      3.001330  
     153A      3.037679   154A      3.113793   155A      3.117929  
     156A      3.201736   157A      3.237083   158A      3.257472  
     159A      3.271406   160A      3.289376   161A      3.299729  
     162A      3.315450   163A      3.319663   164A      3.348155  
     165A      3.366410   166A      3.397872   167A      3.418154  
     168A      3.454807   169A      3.465487   170A      3.483252  
     171A      3.513134   172A      3.571342   173A      3.600776  
     174A      3.623879   175A      3.639639   176A      3.661726  
     177A      3.702967   178A      3.717595   179A      3.751865  
     180A      3.781380   181A      3.789978   182A      3.850130  
     183A      3.854023   184A      3.876711   185A      3.899553  
     186A      3.930299   187A      3.938168   188A      3.953392  
     189A      3.968906   190A      3.991356   191A      4.027204  
     192A      4.062499   193A      4.121264   194A      4.128761  
     195A      4.188602   196A      4.241245   197A      4.260141  
     198A      4.313101   199A      4.333831   200A      4.372083  
     201A      4.423433   202A      4.474564   203A      4.504945  
     204A      4.538271   205A      4.556388   206A      4.578854  
     207A      4.610279   208A      4.720912   209A      4.764708  
     210A      5.091256   211A      5.135342   212A      5.196564  
     213A      5.259635   214A      5.307180   215A      5.315954  
     216A      5.328614   217A      5.346929   218A      5.363243  
     219A      5.378865   220A      5.427997   221A      5.480829  
     222A      5.488545   223A      5.500296   224A      5.540240  
     225A      5.580862   226A      5.590943   227A      5.607795  
     228A      5.775701   229A      5.923210   230A      6.006756  
     231A      6.119813   232A      6.150575   233A      6.362703  
     234A      6.547125   235A      6.553297   236A      6.578314  
     237A      6.593924   238A      6.718882   239A      7.006066  
     240A      7.103392   241A      7.189361   242A      7.241893  
     243A      7.295289   244A      7.296333   245A      7.318858  
     246A      7.331991   247A      7.337517   248A      7.339516  
     249A      7.340392   250A      7.341599   251A      7.341668  
     252A      7.342572   253A      7.346515   254A      7.349600  
     255A      7.349923   256A      7.352514   257A      7.355554  
     258A      7.358647   259A      7.360047   260A      7.368197  
     261A      7.375632   262A      7.423736   263A      7.488974  
     264A      7.489198   265A      7.499027   266A      7.502035  
     267A      7.514369   268A      7.523361   269A      7.577887  
     270A      7.593112   271A      7.612962   272A      7.622152  
     273A      7.625579   274A      7.635169   275A      7.695152  
     276A      7.851740   277A      7.868368   278A      7.911825  
     279A      7.934415   280A      7.942758   281A      7.949866  
     282A      8.005859   283A      8.078963   284A      8.100973  
     285A      8.136913   286A      8.145683   287A      8.169192  
     288A      8.185385   289A      8.875352   290A      8.893693  
     291A      8.901434   292A      8.904308   293A      8.915729  
     294A      8.921171   295A      8.991590   296A      9.005647  
     297A      9.019204   298A      9.032387   299A      9.061248  
     300A      9.068414   301A      9.166851   302A      9.202613  
     303A      9.302946   304A      9.322390   305A      9.384862  
     306A      9.389252   307A      9.396005   308A      9.403395  
     309A      9.503634   310A      9.512670   311A      9.655667  
     312A      9.665230   313A      9.674728   314A      9.692228  
     315A      9.719138   316A      9.728899   317A      9.749186  
     318A      9.754400   319A     10.708168   320A     11.286537  
     321A     12.050100   322A     12.335144   323A     12.435120  
     324A     12.501955   325A     12.812191   326A     13.044337  
     327A     13.576790   328A     13.750818  

    Final Occupation by Irrep:
              A 
    DOCC [    41 ]

  Energy converged.

  @DF-RHF Final Energy:  -786.58352545511696

   => Energetics <=

    Nuclear Repulsion Energy =            669.6953339220555108
    One-Electron Energy =               -2426.6361883822810341
    Two-Electron Energy =                 970.3573290051083404
    DFT Exchange-Correlation Energy =       0.0000000000000000
    Empirical Dispersion Energy =           0.0000000000000000
    PCM Polarization Energy =               0.0000000000000000
    EFP Energy =                            0.0000000000000000
    Total Energy =                       -786.5835254551172966


  Saving occupied orbitals to File 180.

*** tstop() called on cx1-27-4-2 at Sat Sep 10 16:34:53 2016
Module time:
	user time   =      24.77 seconds =       0.41 minutes
	system time =       0.59 seconds =       0.01 minutes
	total time  =          7 seconds =       0.12 minutes
Total time:
	user time   =     140.91 seconds =       2.35 minutes
	system time =       3.62 seconds =       0.06 minutes
	total time  =         40 seconds =       0.67 minutes


Properties will be evaluated at   0.000000,   0.000000,   0.000000 Bohr

Properties computed using the SCF density matrix

  Nuclear Dipole Moment: (a.u.)
     X:     0.0057      Y:     4.2588      Z:    -1.3963

  Electronic Dipole Moment: (a.u.)
     X:    -0.0558      Y:    -3.9569      Z:     1.3998

  Dipole Moment: (a.u.)
     X:    -0.0500      Y:     0.3018      Z:     0.0035     Total:     0.3060

  Dipole Moment: (Debye)
     X:    -0.1272      Y:     0.7671      Z:     0.0089     Total:     0.7777


*** tstart() called on cx1-27-4-2
*** at Sat Sep 10 16:34:53 2016


         ------------------------------------------------------------
                                   SCF GRAD                          
                          Rob Parrish, Justin Turney,                
                       Andy Simmonett, and Alex Sokolov              
         ------------------------------------------------------------

  ==> Geometry <==

    Molecular point group: c1
    Full point group: C1

    Geometry (in Angstrom), charge = 0, multiplicity = 1:

       Center              X                  Y                   Z               Mass       
    ------------   -----------------  -----------------  -----------------  -----------------
           H         -0.022789678606     2.055535494311     0.721050218253     1.007825032070
           O          0.024910688877     1.916185987505    -0.210215705380    15.994914619560
           C          0.002743436712     0.575410226991    -0.524208841483    12.000000000000
[...]


         ------------------------------------------------------------
                                   SCF GRAD                          
                          Rob Parrish, Justin Turney,                
                       Andy Simmonett, and Alex Sokolov              
         ------------------------------------------------------------

  ==> Geometry <==

    Molecular point group: c1
    Full point group: C1

    Geometry (in Angstrom), charge = 0, multiplicity = 1:

       Center              X                  Y                   Z               Mass       
    ------------   -----------------  -----------------  -----------------  -----------------
           H         -0.073436282486     2.045854938896     0.727928871979     1.007825032070
           O          0.022789477388     1.909914622932    -0.199799544097    15.994914619560
           C          0.004965124912     0.572385208223    -0.521757645073    12.000000000000
           C         -1.288967067319    -0.138168326880    -0.037210067400    12.000000000000
           C          1.287813924422    -0.104994697032    -0.043371647619    12.000000000000
           H          0.008728573283     0.507746049296    -1.598443775766     1.007825032070
           F         -2.051922786576     0.691943828886     0.632130133037    18.998403224000
           F         -1.977455128269    -0.571368480214    -1.067991239265    18.998403224000
           F         -1.056495350540    -1.167486282572     0.741347372202    18.998403224000
           F          2.323657937439     0.499999266890    -0.569507635633    18.998403224000
           F          1.333395166573    -1.363940035785    -0.405741765274    18.998403224000
           F          1.410658346610    -0.040531794907     1.264611846560    18.998403224000

  Nuclear repulsion =  669.592636602183347

  ==> Basis Set <==

  Basis Set: CC-PVTZ
    Number of shells: 112
    Number of basis function: 328
    Number of Cartesian functions: 380
    Spherical Harmonics?: true
    Max angular momentum: 3

  ==> DFJKGrad: Density-Fitted SCF Gradients <==

    Gradient:                    1
    J tasked:                  Yes
    K tasked:                  Yes
    wK tasked:                  No
    OpenMP threads:              4
    Integrals threads:           4
    Memory (MB):              1430
    Schwarz Cutoff:          0E+00
    Fitting Condition:       1E-12

   => Auxiliary Basis Set <=

  Basis Set: 
    Number of shells: 270
    Number of basis function: 850
    Number of Cartesian functions: 1030
    Spherical Harmonics?: true
    Max angular momentum: 4


  -Total Gradient:
     Atom            X                  Y                   Z
    ------   -----------------  -----------------  -----------------
       1       -0.000001335873     0.000000752440    -0.000002152853
       2        0.000004860579    -0.000013545742     0.000010826120
       3        0.000278108066    -0.000500828502    -0.000114585545
       4        0.000299262708    -0.000082045535     0.000630589057
       5        0.000004037762    -0.000024693830    -0.000000738300
       6       -0.000276322791     0.000470072847    -0.000040300534
       7       -0.000219646681     0.000100138921    -0.000429821030
       8       -0.000030328693     0.000003169324    -0.000033533573
       9       -0.000004657312     0.000033470111    -0.000029347872
      10       -0.000027317245     0.000015168905     0.000002398329
      11       -0.000015835776    -0.000023602651    -0.000023126907
      12       -0.000010824749     0.000021943717     0.000029793108


*** tstop() called on cx1-27-4-2 at Sat Sep 10 16:36:01 2016
Module time:
	user time   =      29.38 seconds =       0.49 minutes
	system time =       0.58 seconds =       0.01 minutes
	total time  =          8 seconds =       0.13 minutes
Total time:
	user time   =     382.30 seconds =       6.37 minutes
	system time =       9.90 seconds =       0.17 minutes
	total time  =        108 seconds =       1.80 minutes

			-----------------------------------------
			 OPTKING 2.0: for geometry optimizations 
			  - R.A. King,  Bethel University        
			-----------------------------------------

	Previous internal coordinate definitions found.
	---Fragment 1 Geometry and Gradient---
	 H          -0.1387744621        3.8661055421        1.3755862123
	 O           0.0430658710        3.6092155745       -0.3775664198
	 C           0.0093827263        1.0816512861       -0.9859790569
	 C          -2.4357947515       -0.2611002980       -0.0703168368
	 C           2.4336156273       -0.1984112228       -0.0819605359
	 H           0.0164946130        0.9595009782       -3.0206209750
	 F          -3.8775721125        1.3075843359        1.1945528318
	 F          -3.7368486325       -1.0797299486       -2.0182109545
	 F          -1.9964868732       -2.2062293380        1.4009435028
	 F           4.3910771283        0.9448616811       -1.0762134619
	 F           2.5197516917       -2.5774731293       -0.7667408170
	 F           2.6657579422       -0.0765939920        2.3897700544
	            -0.0000013359        0.0000007524       -0.0000021529
	             0.0000048606       -0.0000135457        0.0000108261
	             0.0002781081       -0.0005008285       -0.0001145855
	             0.0002992627       -0.0000820455        0.0006305891
	             0.0000040378       -0.0000246938       -0.0000007383
	            -0.0002763228        0.0004700728       -0.0000403005
	            -0.0002196467        0.0001001389       -0.0004298210
	            -0.0000303287        0.0000031693       -0.0000335336
	            -0.0000046573        0.0000334701       -0.0000293479
	            -0.0000273172        0.0000151689        0.0000023983
	            -0.0000158358       -0.0000236027       -0.0000231269
	            -0.0000108247        0.0000219437        0.0000297931

	---Fragment 1 Intrafragment Coordinates---
	 - Coordinate -           - BOHR/RAD -       - ANG/DEG -
	 R(1,2)           =         1.781180	       0.942560
	 R(2,3)           =         2.599977	       1.375849
	 R(3,4)           =         2.936037	       1.553684
	 R(3,5)           =         2.886644	       1.527546
	 R(3,6)           =         2.038318	       1.078631
	 R(4,7)           =         2.477779	       1.311184
	 R(4,8)           =         2.481368	       1.313083
	 R(4,9)           =         2.478129	       1.311370
	 R(5,10)          =         2.475332	       1.309889
	 R(5,11)          =         2.477151	       1.310852
	 R(5,12)          =         2.485595	       1.315320
	 B(1,2,3)         =         1.948955	     111.666897
	 B(2,3,4)         =         1.963196	     112.482847
	 B(2,3,5)         =         1.925090	     110.299541
	 B(2,3,6)         =         1.866902	     106.965611
	 B(3,4,7)         =         1.932927	     110.748542
	 B(3,4,8)         =         1.920616	     110.043203
	 B(3,4,9)         =         1.978487	     113.358965
	 B(3,5,10)        =         1.910820	     109.481921
	 B(3,5,11)        =         1.948205	     111.623927
	 B(3,5,12)        =         1.947790	     111.600169
	 B(4,3,5)         =         1.981152	     113.511668
	 B(4,3,6)         =         1.861688	     106.666880
	 B(5,3,6)         =         1.857825	     106.445529
	 B(7,4,8)         =         1.880214	     107.728302
	 B(7,4,9)         =         1.872357	     107.278182
	 B(8,4,9)         =         1.875546	     107.460894
	 B(10,5,11)       =         1.880782	     107.760851
	 B(10,5,12)       =         1.878565	     107.633832
	 B(11,5,12)       =         1.895173	     108.585398
	 D(1,2,3,4)       =         0.995494	      57.037614
	 D(1,2,3,5)       =        -1.235700	     -70.800412
	 D(1,2,3,6)       =         3.033931	     173.831427
	 D(2,3,4,7)       =        -0.052850	      -3.028083
	 D(2,3,4,8)       =         2.024108	     115.972858
	 D(2,3,4,9)       =        -2.158344	    -123.664027
	 D(2,3,5,10)      =        -0.995657	     -57.046931
	 D(2,3,5,11)      =        -3.076596	    -176.275959
	 D(2,3,5,12)      =         1.082264	      62.009154
	 D(4,3,5,10)      =         3.066247	     175.682998
	 D(4,3,5,11)      =         0.985308	      56.453970
	 D(4,3,5,12)      =        -1.139018	     -65.260917
	 D(5,3,4,7)       =         2.148401	     123.094336
	 D(5,3,4,8)       =        -2.057826	    -117.904722
	 D(5,3,4,9)       =         0.042907	       2.458393
	*D(6,3,4,7)       =        -2.094395	    -119.999990
	 D(6,3,4,8)       =        -0.017437	      -0.999048
	 D(6,3,4,9)       =         2.083296	     119.364067
	 D(6,3,5,10)      =         1.023601	      58.648012
	 D(6,3,5,11)      =        -1.057338	     -60.581016
	 D(6,3,5,12)      =         3.101522	     177.704097
	 R(9,11)          =         5.023255	       2.658192
	 R(9,12)          =         5.220120	       2.762368

	Current energy   :      -786.5835977843

	Energy change for the previous step:
		Projected    :         0.0000009531
		Actual       :        -0.0000002662

	Performing BFGS update.
	Previous computed or guess Hessian on step 1.
	Steps to be used in Hessian update: 6 5
	Taking RFO optimization step.
	Going to follow RFO solution 1.
	Using RFO vector 1.
	Norm of target step-size    0.00101
	Projected energy change by RFO approximation:         0.0000000381

	Back-transformation to cartesian coordinates...
	Successfully converged to displaced geometry.

	Back-transformation to cartesian coordinates to adjust frozen coordinates...
	Successfully converged to displaced geometry.

	--- Internal Coordinate Step in ANG or DEG, aJ/ANG or AJ/DEG ---
	 ---------------------------------------------------------------------------
	   Coordinate                Previous        Force       Change         New 
	   ----------                --------       ------       ------       ------
	    1 R(1,2)          =      0.942560     0.000015     0.000000     0.942560
	    2 R(2,3)          =      1.375849     0.000085     0.000030     1.375878
	    3 R(3,4)          =      1.553684     0.000027     0.000001     1.553684
	    4 R(3,5)          =      1.527546     0.000185     0.000044     1.527590
	    5 R(3,6)          =      1.078631    -0.000091    -0.000020     1.078612
	    6 R(4,7)          =      1.311184     0.000232     0.000035     1.311219
	    7 R(4,8)          =      1.313083    -0.000339    -0.000053     1.313030
	    8 R(4,9)          =      1.311370     0.000360     0.000042     1.311412
	    9 R(5,10)         =      1.309889     0.000128     0.000006     1.309895
	   10 R(5,11)         =      1.310852    -0.000255    -0.000013     1.310839
	   11 R(5,12)         =      1.315320    -0.000263    -0.000031     1.315289
	   12 B(1,2,3)        =    111.666897    -0.000000    -0.002572   111.664324
	   13 B(2,3,4)        =    112.482847    -0.000000     0.001635   112.484482
	   14 B(2,3,5)        =    110.299541    -0.000000    -0.000386   110.299154
	   15 B(2,3,6)        =    106.965611    -0.000001    -0.009565   106.956046
	   16 B(3,4,7)        =    110.748542    -0.000001    -0.002640   110.745901
	   17 B(3,4,8)        =    110.043203     0.000001     0.006428   110.049631
	   18 B(3,4,9)        =    113.358965    -0.000002    -0.004917   113.354047
	   19 B(3,5,10)       =    109.481921     0.000003     0.007277   109.489198
	   20 B(3,5,11)       =    111.623927     0.000001     0.002347   111.626274
	   21 B(3,5,12)       =    111.600169     0.000001     0.002544   111.602714
	   22 B(4,3,5)        =    113.511668     0.000001     0.010101   113.521769
	   23 B(4,3,6)        =    106.666880    -0.000000    -0.000326   106.666554
	   24 B(5,3,6)        =    106.445529     0.000000    -0.003053   106.442476
	   25 B(7,4,8)        =    107.728302     0.000001     0.007025   107.735328
	   26 B(7,4,9)        =    107.278182     0.000001    -0.002650   107.275532
	   27 B(8,4,9)        =    107.460894     0.000000    -0.002840   107.458054
	   28 B(10,5,11)      =    107.760851    -0.000002    -0.005766   107.755085
	   29 B(10,5,12)      =    107.633832    -0.000001     0.000587   107.634420
	   30 B(11,5,12)      =    108.585398    -0.000002    -0.007418   108.577980
	   31 D(1,2,3,4)      =     57.037614     0.000000     0.005693    57.043307
	   32 D(1,2,3,5)      =    -70.800412    -0.000000    -0.008819   -70.809231
	   33 D(1,2,3,6)      =    173.831427    -0.000000     0.000290   173.831717
	   34 D(2,3,4,7)      =     -3.028083    -0.000000    -0.010904    -3.038988
	   35 D(2,3,4,8)      =    115.972858     0.000000     0.000234   115.973092
	   36 D(2,3,4,9)      =   -123.664027    -0.000000    -0.002140  -123.666166
	   37 D(2,3,5,10)     =    -57.046931    -0.000000    -0.003049   -57.049979
	   38 D(2,3,5,11)     =   -176.275959    -0.000000    -0.002088  -176.278047
	   39 D(2,3,5,12)     =     62.009154     0.000000     0.003999    62.013153
	   40 D(4,3,5,10)     =    175.682998    -0.000000    -0.012977   175.670021
	   41 D(4,3,5,11)     =     56.453970    -0.000000    -0.012017    56.441953
	   42 D(4,3,5,12)     =    -65.260917     0.000000    -0.005929   -65.266846
	   43 D(5,3,4,7)      =    123.094336    -0.000000    -0.001675   123.092662
	   44 D(5,3,4,8)      =   -117.904722     0.000000     0.009464  -117.895259
	   45 D(5,3,4,9)      =      2.458393     0.000000     0.007090     2.465483
	   46 *D(6,3,4,7)     =   -119.999990     0.000000     0.000000  -119.999990
	   47 D(6,3,4,8)      =     -0.999048     0.000000     0.011138    -0.987910
	   48 D(6,3,4,9)      =    119.364067     0.000000     0.008765   119.372831
	   49 D(6,3,5,10)     =     58.648012    -0.000000    -0.016217    58.631795
	   50 D(6,3,5,11)     =    -60.581016    -0.000000    -0.015256   -60.596272
	   51 D(6,3,5,12)     =    177.704097     0.000000    -0.009169   177.694928
	   52 R(9,11)         =      2.658192     0.000089     0.000132     2.658324
	   53 R(9,12)         =      2.762368     0.000064     0.000289     2.762658
	 ---------------------------------------------------------------------------
	Successfully symmetrized geometry.

  ==> Convergence Check <==

  Measures of convergence in internal coordinates in au.
  Criteria marked as inactive (o), active & met (*), and active & unmet ( ).
  ---------------------------------------------------------------------------------------------
   Step     Total Energy     Delta E     MAX Force     RMS Force      MAX Disp      RMS Disp   
  ---------------------------------------------------------------------------------------------
    Convergence Criteria    1.00e-06 *    3.00e-04 *             o    1.20e-03 *             o
  ---------------------------------------------------------------------------------------------
      7    -786.58359778   -2.66e-07 *    4.37e-05 *    1.70e-05 o    5.47e-04 *    1.39e-04 o  ~
  ---------------------------------------------------------------------------------------------


  **** Optimization is complete! (in 7 steps) ****

  ==> Optimization Summary <==

  Measures of convergence in internal coordinates in au.
  --------------------------------------------------------------------------------------------------------------- ~
   Step         Total Energy             Delta E       MAX Force       RMS Force        MAX Disp        RMS Disp  ~
  --------------------------------------------------------------------------------------------------------------- ~
      1    -786.581908550917   -786.581908550917      0.01756735      0.00443938      0.08008751      0.03120997  ~
      2    -786.582555657239     -0.000647106322      0.01337051      0.00348577      0.04171924      0.01337768  ~
      3    -786.583525455117     -0.000969797878      0.00296819      0.00076321      0.03154625      0.00778303  ~
      4    -786.583584578605     -0.000059123488      0.00081183      0.00028084      0.01620646      0.00430767  ~
      5    -786.583595428091     -0.000010849486      0.00047157      0.00010685      0.00957646      0.00241274  ~
      6    -786.583597518107     -0.000002090016      0.00019949      0.00005286      0.00239365      0.00069214  ~
      7    -786.583597784271     -0.000000266164      0.00004372      0.00001696      0.00054664      0.00013863  ~
  --------------------------------------------------------------------------------------------------------------- ~

	Writing optimization data to binary file.
	Final energy is   -786.5835977842712
	Final (previous) structure:
	Cartesian Geometry (in Angstrom)
	    H    -0.0734362825   2.0458549389   0.7279288720
	    O     0.0227894774   1.9099146229  -0.1997995441
	    C     0.0049651249   0.5723852082  -0.5217576451
	    C    -1.2889670673  -0.1381683269  -0.0372100674
	    C     1.2878139244  -0.1049946970  -0.0433716476
	    H     0.0087285733   0.5077460493  -1.5984437758
	    F    -2.0519227866   0.6919438289   0.6321301330
	    F    -1.9774551283  -0.5713684802  -1.0679912393
	    F    -1.0564953505  -1.1674862826   0.7413473722
	    F     2.3236579374   0.4999992669  -0.5695076356
	    F     1.3333951666  -1.3639400358  -0.4057417653
	    F     1.4106583466  -0.0405317949   1.2646118466
	Saving final (previous) structure.
			--------------------------
			 OPTKING Finished Execution 
			--------------------------

    Final optimized geometry and variables:
    Molecular point group: c1
    Full point group: C1

    Geometry (in Angstrom), charge = 0, multiplicity = 1:

    H           -0.073436282486     2.045854938896     0.727928871979
    O            0.022789477388     1.909914622932    -0.199799544097
    C            0.004965124912     0.572385208223    -0.521757645073
    C           -1.288967067319    -0.138168326880    -0.037210067400
    C            1.287813924422    -0.104994697032    -0.043371647619
    H            0.008728573283     0.507746049296    -1.598443775766
    F           -2.051922786576     0.691943828886     0.632130133037
    F           -1.977455128269    -0.571368480214    -1.067991239265
    F           -1.056495350540    -1.167486282572     0.741347372202
    F            2.323657937439     0.499999266890    -0.569507635633
    F            1.333395166573    -1.363940035785    -0.405741765274
    F            1.410658346610    -0.040531794907     1.264611846560

	Cleaning optimization helper files.


Properties will be evaluated at   0.000000,   0.000000,   0.000000 Bohr

Properties computed using the  density matrix

  Nuclear Dipole Moment: (a.u.)
     X:    -0.0434      Y:     4.2439      Z:    -1.3782

  Electronic Dipole Moment: (a.u.)
     X:    -0.0318      Y:    -3.9467      Z:     1.3855

  Dipole Moment: (a.u.)
     X:    -0.0753      Y:     0.2972      Z:     0.0073     Total:     0.3067

  Dipole Moment: (Debye)
     X:    -0.1913      Y:     0.7555      Z:     0.0186     Total:     0.7796

  Quadrupole Moment: (Debye Ang)
    XX:   -57.4470     YY:   -54.7725     ZZ:   -50.6227
    XY:    -0.5545     XZ:    -0.1344     YZ:     2.7477

  Traceless Quadrupole Moment: (Debye Ang)
    XX:    -3.1663     YY:    -0.4918     ZZ:     3.6581
    XY:    -0.5545     XZ:    -0.1344     YZ:     2.7477

  Mulliken Charges: (a.u.)
   Center  Symbol    Alpha    Beta     Spin     Total
       1     H     0.38236  0.38236  0.00000  0.23527
       2     O     4.18360  4.18360  0.00000 -0.36720
       3     C     3.02258  3.02258  0.00000 -0.04515
       4     C     2.67373  2.67373  0.00000  0.65255
       5     C     2.67823  2.67823  0.00000  0.64354
       6     H     0.42826  0.42826  0.00000  0.14348
       7     F     4.60528  4.60528  0.00000 -0.21056
       8     F     4.60518  4.60518  0.00000 -0.21037
       9     F     4.60190  4.60190  0.00000 -0.20380
      10     F     4.60153  4.60153  0.00000 -0.20305
      11     F     4.60583  4.60583  0.00000 -0.21167
      12     F     4.61152  4.61152  0.00000 -0.22304

   Total alpha = 41.00000, Total beta = 41.00000, Total charge =  0.00000


*** Psi4 exiting successfully. Buy a developer a beer!
