    -----------------------------------------------------------------------
          Psi4: An Open-Source Ab Initio Electronic Structure Package
                              Psi4 (no tag) Driver

                          Git: Rev {detached?}  

    J. M. Turney, A. C. Simmonett, R. M. Parrish, E. G. Hohenstein,
    F. A. Evangelista, J. T. Fermann, B. J. Mintz, L. A. Burns, J. J. Wilke,
    M. L. Abrams, N. J. Russ, M. L. Leininger, C. L. Janssen, E. T. Seidl,
    W. D. Allen, H. F. Schaefer, R. A. King, E. F. Valeev, C. D. Sherrill,
    and T. D. Crawford, WIREs Comput. Mol. Sci. 2, 556-565 (2012)
    (doi: 10.1002/wcms.93)

                         Additional Contributions by
    A. E. DePrince, M. Saitow, U. Bozkaya, A. Yu. Sokolov
    -----------------------------------------------------------------------


    Psi4 started on: Thu Sep  1 23:19:15 2016

    Process ID:   8704
    PSI4DATADIR: /export131/home/mjharvey/miniconda3/share
    Memory level set to 256.000 MB

  ==> Input File <==

--------------------------------------------------------------------------
set {
	reference rhf
	basis 6-31G*
}


set_num_threads( 1 )
memory 2 gb

molecule MOL {
0 1

H	 -1.585109	 2.814345	 -2.485676
C	 -0.614923	 3.317134	 -2.583476
C	 0.031798	 3.713183	 -1.280591
O	 -0.149687	 3.513346	 -3.659025
C	 0.129677	 2.542706	 -0.292332
H	 1.006554	 4.134866	 -1.496796
H	 -0.582945	 4.499645	 -0.844445
C	 1.084436	 1.436658	 -0.748832
H	 0.458537	 2.929676	 0.667559
H	 -0.862572	 2.125895	 -0.126598
C	 1.180775	 0.282413	 0.250794
H	 2.072807	 1.862908	 -0.907830
H	 0.765316	 1.048922	 -1.714422
C	 2.148627	 -0.814315	 -0.201312
H	 1.489694	 0.676987	 1.215476
H	 0.192013	 -0.149836	 0.398762
C	 3.580890	 -0.659131	 0.322722
H	 2.166869	 -0.852443	 -1.289387
H	 1.762857	 -1.776509	 0.128956
C	 4.324889	 0.564933	 -0.213704
H	 4.142010	 -1.551473	 0.056605
H	 3.564836	 -0.624694	 1.410140
H	 4.342616	 0.565491	 -1.300421
H	 3.866655	 1.493402	 0.110242
H	 5.353900	 0.572371	 0.132816

	symmetry c1
}
set optking {
	frozen_dihedral = ("
		6 3 5 8,
		6 3 2 4,
		3 5 8 12,
		12 8 11 14,
		20 17 14 18
	")
}

ee = energy('scf')
oeprop('DIPOLE', 'QUADRUPOLE', 'MULLIKEN_CHARGES')
f=open( 'psi4out.xyz', 'w' )
f.write( "25  " )
f.write( str(ee) + "\n" )
f.write( MOL.save_string_xyz() )
f.close()
--------------------------------------------------------------------------

  Memory set to   2.000 GiB by Python script.

*** tstart() called on cx1-3-4-3.cx1.hpc.ic.ac.uk
*** at Thu Sep  1 23:19:16 2016


         ---------------------------------------------------------
                                   SCF
            by Justin Turney, Rob Parrish, and Andy Simmonett
                              RHF Reference
                        1 Threads,   2000 MiB Core
         ---------------------------------------------------------

  ==> Geometry <==

    Molecular point group: c1
    Full point group: C1

    Geometry (in Angstrom), charge = 0, multiplicity = 1:

       Center              X                  Y                   Z               Mass       
    ------------   -----------------  -----------------  -----------------  -----------------
           H         -2.899298745234     1.263400080732    -1.536731442719     1.007825032070
           C         -1.929112745234     1.766189080732    -1.634531442719    12.000000000000
           C         -1.282391745234     2.162238080732    -0.331646442719    12.000000000000
           O         -1.463876745234     1.962401080732    -2.710080442719    15.994914619560
           C         -1.184512745234     0.991761080732     0.656612557281    12.000000000000
           H         -0.307635745234     2.583921080732    -0.547851442719     1.007825032070
           H         -1.897134745234     2.948700080732     0.104499557281     1.007825032070
           C         -0.229753745234    -0.114286919268     0.200112557281    12.000000000000
           H         -0.855652745234     1.378731080732     1.616503557281     1.007825032070
           H         -2.176761745234     0.574950080732     0.822346557281     1.007825032070
           C         -0.133414745234    -1.268531919268     1.199738557281    12.000000000000
           H          0.758617254766     0.311963080732     0.041114557281     1.007825032070
           H         -0.548873745234    -0.502022919268    -0.765477442719     1.007825032070
           C          0.834437254766    -2.365259919268     0.747632557281    12.000000000000
           H          0.175504254766    -0.873957919268     2.164420557281     1.007825032070
           H         -1.122176745234    -1.700780919268     1.347706557281     1.007825032070
           C          2.266700254766    -2.210075919268     1.271666557281    12.000000000000
           H          0.852679254766    -2.403387919268    -0.340442442719     1.007825032070
           H          0.448667254766    -3.327453919268     1.077900557281     1.007825032070
           C          3.010699254766    -0.986011919268     0.735240557281    12.000000000000
           H          2.827820254766    -3.102417919268     1.005549557281     1.007825032070
           H          2.250646254766    -2.175638919268     2.359084557281     1.007825032070
           H          3.028426254766    -0.985453919268    -0.351476442719     1.007825032070
           H          2.552465254766    -0.057542919268     1.059186557281     1.007825032070
           H          4.039710254766    -0.978573919268     1.081760557281     1.007825032070

  Running in c1 symmetry.

  Rotational constants: A =      0.09632  B =      0.01954  C =      0.01861 [cm^-1]
  Rotational constants: A =   2887.59562  B =    585.76858  C =    557.84086 [MHz]
  Nuclear repulsion =  449.834182212491726

  Charge       = 0
  Multiplicity = 1
  Electrons    = 72
  Nalpha       = 36
  Nbeta        = 36

  ==> Algorithm <==

  SCF Algorithm Type is DF.
  DIIS enabled.
  MOM disabled.
  Fractional occupation disabled.
  Guess Type is CORE.
  Energy threshold   = 1.00e-06
  Density threshold  = 1.00e-06
  Integral threshold = 0.00e+00

  ==> Primary Basis <==

  Basis Set: 6-31G*
    Number of shells: 86
    Number of basis function: 167
    Number of Cartesian functions: 167
    Spherical Harmonics?: false
    Max angular momentum: 2

  ==> Pre-Iterations <==

   -------------------------------------------------------
    Irrep   Nso     Nmo     Nalpha   Nbeta   Ndocc  Nsocc
   -------------------------------------------------------
     A        167     167       0       0       0       0
   -------------------------------------------------------
    Total     167     167      36      36      36       0
   -------------------------------------------------------

 OEINTS: Overlap, kinetic, potential, dipole, and quadrupole integrals
         stored in file 35.

  ==> Integral Setup <==

  ==> DFJK: Density-Fitted J/K Matrices <==

    J tasked:                  Yes
    K tasked:                  Yes
    wK tasked:                  No
    OpenMP threads:              1
    Integrals threads:           1
    Memory (MB):              1430
    Algorithm:                Core
    Integral Cache:           NONE
    Schwarz Cutoff:          1E-12
    Fitting Condition:       1E-12

   => Auxiliary Basis Set <=

  Basis Set: 
    Number of shells: 360
    Number of basis function: 1129
    Number of Cartesian functions: 1129
    Spherical Harmonics?: false
    Max angular momentum: 3

  Minimum eigenvalue in the overlap matrix is 3.4355474269E-03.
  Using Symmetric Orthogonalization.
  SCF Guess: Core (One-Electron) Hamiltonian.

  ==> Iterations <==

                           Total Energy        Delta E     RMS |[F,P]|

   @DF-RHF iter   1:  -296.45021983347846   -2.96450e+02   5.85905e-02 
   @DF-RHF iter   2:   -79.71288652767811    2.16737e+02   7.67854e-02 DIIS
   @DF-RHF iter   3:  -288.93823903926005   -2.09225e+02   4.29278e-02 DIIS
   @DF-RHF iter   4:  -219.35951273301743    6.95787e+01   6.23018e-02 DIIS
   @DF-RHF iter   5:  -365.49660198249973   -1.46137e+02   2.40486e-02 DIIS
   @DF-RHF iter   6:  -367.14530407470494   -1.64870e+00   2.93100e-02 DIIS
   @DF-RHF iter   7:  -384.40233967100124   -1.72570e+01   8.80813e-03 DIIS
   @DF-RHF iter   8:  -386.86559394367004   -2.46325e+00   3.97777e-03 DIIS
   @DF-RHF iter   9:  -387.09115427756120   -2.25560e-01   1.10372e-03 DIIS
   @DF-RHF iter  10:  -387.11201826282451   -2.08640e-02   4.46312e-04 DIIS
   @DF-RHF iter  11:  -387.11603651055185   -4.01825e-03   1.52817e-04 DIIS
   @DF-RHF iter  12:  -387.11640522220449   -3.68712e-04   8.04402e-05 DIIS
   @DF-RHF iter  13:  -387.11653276312364   -1.27541e-04   2.94147e-05 DIIS
   @DF-RHF iter  14:  -387.11654963463042   -1.68715e-05   1.10651e-05 DIIS
   @DF-RHF iter  15:  -387.11655213291141   -2.49828e-06   3.31345e-06 DIIS
   @DF-RHF iter  16:  -387.11655238616680   -2.53255e-07   1.09237e-06 DIIS
   @DF-RHF iter  17:  -387.11655241727448   -3.11077e-08   3.51518e-07 DIIS

  ==> Post-Iterations <==

    Orbital Energies (a.u.)
    -----------------------

    Doubly Occupied:                                                      

       1A    -20.561722     2A    -11.325865     3A    -11.234624  
       4A    -11.234024     5A    -11.222041     6A    -11.219243  
       7A    -11.217955     8A    -11.216074     9A    -11.210704  
      10A     -1.401722    11A     -1.104583    12A     -1.069240  
      13A     -1.010737    14A     -0.945578    15A     -0.875412  
      16A     -0.819711    17A     -0.787663    18A     -0.781113  
      19A     -0.664584    20A     -0.661728    21A     -0.631938  
      22A     -0.623774    23A     -0.607425    24A     -0.592987  
      25A     -0.566197    26A     -0.557179    27A     -0.533868  
      28A     -0.523348    29A     -0.516672    30A     -0.496921  
      31A     -0.485921    32A     -0.484126    33A     -0.465656  
      34A     -0.449430    35A     -0.440066    36A     -0.409244  

    Virtual:                                                              

      37A      0.160516    38A      0.222941    39A      0.239678  
      40A      0.253020    41A      0.266090    42A      0.272385  
      43A      0.285015    44A      0.297889    45A      0.309457  
      46A      0.313177    47A      0.316673    48A      0.329381  
      49A      0.332408    50A      0.343272    51A      0.350308  
      52A      0.358193    53A      0.366151    54A      0.390020  
      55A      0.411668    56A      0.422470    57A      0.440711  
      58A      0.445064    59A      0.482760    60A      0.495415  
      61A      0.501384    62A      0.690209    63A      0.705191  
      64A      0.715618    65A      0.730084    66A      0.743841  
      67A      0.755287    68A      0.777711    69A      0.784351  
      70A      0.849896    71A      0.852496    72A      0.886395  
      73A      0.892125    74A      0.921676    75A      0.940728  
      76A      0.955568    77A      0.968954    78A      0.980276  
      79A      0.992232    80A      1.012711    81A      1.023321  
      82A      1.077312    83A      1.090294    84A      1.112642  
      85A      1.124761    86A      1.126774    87A      1.139162  
      88A      1.149898    89A      1.157618    90A      1.162475  
      91A      1.183562    92A      1.188569    93A      1.202312  
      94A      1.209285    95A      1.219546    96A      1.220217  
      97A      1.249759    98A      1.254034    99A      1.262552  
     100A      1.271183   101A      1.282771   102A      1.314234  
     103A      1.345589   104A      1.353787   105A      1.369907  
     106A      1.418517   107A      1.438658   108A      1.627060  
     109A      1.632401   110A      1.714697   111A      1.729476  
     112A      1.772678   113A      1.783853   114A      1.846305  
     115A      1.862146   116A      1.882767   117A      1.921346  
     118A      1.956723   119A      1.977196   120A      2.029619  
     121A      2.083675   122A      2.123975   123A      2.128441  
     124A      2.136471   125A      2.187172   126A      2.191712  
     127A      2.214053   128A      2.246158   129A      2.271512  
     130A      2.288525   131A      2.303578   132A      2.307905  
     133A      2.361658   134A      2.389124   135A      2.420579  
     136A      2.451409   137A      2.477403   138A      2.526183  
     139A      2.573744   140A      2.593112   141A      2.657212  
     142A      2.672829   143A      2.695426   144A      2.715960  
     145A      2.739508   146A      2.750635   147A      2.812193  
     148A      2.824836   149A      2.905187   150A      2.926162  
     151A      2.965727   152A      2.979368   153A      3.005731  
     154A      3.052881   155A      3.093967   156A      3.169823  
     157A      3.265511   158A      3.369028   159A      4.313948  
     160A      4.525046   161A      4.567029   162A      4.645702  
     163A      4.734521   164A      4.821894   165A      4.894932  
     166A      4.955389   167A      4.997506  

    Final Occupation by Irrep:
              A 
    DOCC [    36 ]

  Energy converged.

  @DF-RHF Final Energy:  -387.11655241727448

   => Energetics <=

    Nuclear Repulsion Energy =            449.8341822124917257
    One-Electron Energy =               -1416.0033893989248099
    Two-Electron Energy =                 579.0526547691588348
    DFT Exchange-Correlation Energy =       0.0000000000000000
    Empirical Dispersion Energy =           0.0000000000000000
    PCM Polarization Energy =               0.0000000000000000
    EFP Energy =                            0.0000000000000000
    Total Energy =                       -387.1165524172743062

    Alert: EFP and PCM quantities not currently incorporated into SCF psivars.

Properties will be evaluated at   0.000000,   0.000000,   0.000000 Bohr
  ==> Properties <==


Properties computed using the SCF density matrix

  Nuclear Dipole Moment: (a.u.)
     X:     6.6743      Y:    -6.5956      Z:     8.5537

  Electronic Dipole Moment: (a.u.)
     X:    -6.9007      Y:     6.3485      Z:    -7.3690

  Dipole Moment: (a.u.)
     X:    -0.2264      Y:    -0.2471      Z:     1.1846     Total:     1.2311

  Dipole Moment: (Debye)
     X:    -0.5754      Y:    -0.6280      Z:     3.0110     Total:     3.1292


  Saving occupied orbitals to File 180.

*** tstop() called on cx1-3-4-3.cx1.hpc.ic.ac.uk at Thu Sep  1 23:19:42 2016
Module time:
	user time   =      26.00 seconds =       0.43 minutes
	system time =       0.26 seconds =       0.00 minutes
	total time  =         26 seconds =       0.43 minutes
Total time:
	user time   =      26.00 seconds =       0.43 minutes
	system time =       0.26 seconds =       0.00 minutes
	total time  =         26 seconds =       0.43 minutes


Properties will be evaluated at   0.000000,   0.000000,   0.000000 Bohr

Properties computed using the  density matrix

  Nuclear Dipole Moment: (a.u.)
     X:     6.6743      Y:    -6.5956      Z:     8.5537

  Electronic Dipole Moment: (a.u.)
     X:    -6.9007      Y:     6.3485      Z:    -7.3690

  Dipole Moment: (a.u.)
     X:    -0.2264      Y:    -0.2471      Z:     1.1846     Total:     1.2311

  Dipole Moment: (Debye)
     X:    -0.5754      Y:    -0.6280      Z:     3.0110     Total:     3.1292

  Quadrupole Moment: (Debye Ang)
    XX:   -55.4534     YY:   -59.4042     ZZ:   -69.9638
    XY:    -0.8821     XZ:    -2.7062     YZ:     6.5733

  Traceless Quadrupole Moment: (Debye Ang)
    XX:     6.1537     YY:     2.2029     ZZ:    -8.3566
    XY:    -0.8821     XZ:    -2.7062     YZ:     6.5733

  Mulliken Charges: (a.u.)
   Center  Symbol    Alpha    Beta     Spin     Total
       1     H     0.43262  0.43262  0.00000  0.13476
       2     C     2.83075  2.83075  0.00000  0.33850
       3     C     3.20801  3.20801  0.00000 -0.41603
       4     O     4.23794  4.23794  0.00000 -0.47587
       5     C     3.16661  3.16661  0.00000 -0.33321
       6     H     0.39989  0.39989  0.00000  0.20022
       7     H     0.40687  0.40687  0.00000  0.18626
       8     C     3.15883  3.15883  0.00000 -0.31766
       9     H     0.41341  0.41341  0.00000  0.17318
      10     H     0.41982  0.41982  0.00000  0.16036
      11     C     3.15604  3.15604  0.00000 -0.31208
      12     H     0.41391  0.41391  0.00000  0.17218
      13     H     0.41834  0.41834  0.00000  0.16333
      14     C     3.15695  3.15695  0.00000 -0.31390
      15     H     0.42166  0.42166  0.00000  0.15668
      16     H     0.42048  0.42048  0.00000  0.15904
      17     C     3.15157  3.15157  0.00000 -0.30314
      18     H     0.42077  0.42077  0.00000  0.15845
      19     H     0.41920  0.41920  0.00000  0.16160
      20     C     3.24290  3.24290  0.00000 -0.48580
      21     H     0.42050  0.42050  0.00000  0.15901
      22     H     0.42308  0.42308  0.00000  0.15384
      23     H     0.42002  0.42002  0.00000  0.15996
      24     H     0.42165  0.42165  0.00000  0.15669
      25     H     0.41819  0.41819  0.00000  0.16363

   Total alpha = 36.00000, Total beta = 36.00000, Total charge =  0.00000


*** PSI4 exiting successfully. Buy a developer a beer!
