    -----------------------------------------------------------------------
          Psi4: An Open-Source Ab Initio Electronic Structure Package
                              Psi4 (no tag) Driver

                          Git: Rev {detached?}  

    J. M. Turney, A. C. Simmonett, R. M. Parrish, E. G. Hohenstein,
    F. A. Evangelista, J. T. Fermann, B. J. Mintz, L. A. Burns, J. J. Wilke,
    M. L. Abrams, N. J. Russ, M. L. Leininger, C. L. Janssen, E. T. Seidl,
    W. D. Allen, H. F. Schaefer, R. A. King, E. F. Valeev, C. D. Sherrill,
    and T. D. Crawford, WIREs Comput. Mol. Sci. 2, 556-565 (2012)
    (doi: 10.1002/wcms.93)

                         Additional Contributions by
    A. E. DePrince, M. Saitow, U. Bozkaya, A. Yu. Sokolov
    -----------------------------------------------------------------------


    Psi4 started on: Fri Sep  2 12:02:13 2016

    Process ID:   8765
    PSI4DATADIR: /export131/home/mjharvey/miniconda3/share
    Memory level set to 256.000 MB

  ==> Input File <==

--------------------------------------------------------------------------
set {
	reference rhf
	basis 6-31G*
}


set_num_threads( 4 )
memory 2 gb

molecule MOL {
0 1

H	 2.176868	 -0.646004	 -0.217325
O	 1.337496	 -0.537251	 0.205931
C	 0.702312	 0.627605	 -0.264544
C	 -0.714990	 0.596302	 0.266387
H	 0.682322	 0.642550	 -1.350929
H	 1.215941	 1.520383	 0.085680
O	 -1.405996	 -0.526611	 -0.195820
H	 -1.257453	 1.468809	 -0.075599
H	 -0.688972	 0.618407	 1.353696
H	 -2.142534	 -0.671418	 0.384316

	symmetry c1
}
set optking {
	frozen_dihedral = ("
		10 7 4 3
	")
}

ee = optimize('scf')
oeprop('DIPOLE', 'QUADRUPOLE', 'MULLIKEN_CHARGES')
f=open( 'psi4out.xyz', 'w' )
f.write( "10  " )
f.write( str(ee) + "\n" )
f.write( MOL.save_string_xyz() )
f.close()
--------------------------------------------------------------------------

  Memory set to   2.000 GiB by Python script.
gradient() will perform analytic gradient computation.

*** tstart() called on cx1-1-1-2.cx1.hpc.ic.ac.uk
*** at Fri Sep  2 12:02:13 2016


         ---------------------------------------------------------
                                   SCF
            by Justin Turney, Rob Parrish, and Andy Simmonett
                              RHF Reference
                        4 Threads,   2000 MiB Core
         ---------------------------------------------------------

  ==> Geometry <==

    Molecular point group: c1
    Full point group: C1

    Geometry (in Angstrom), charge = 0, multiplicity = 1:

       Center              X                  Y                   Z               Mass       
    ------------   -----------------  -----------------  -----------------  -----------------
           H          2.197206319744    -0.656097654628    -0.223210006137     1.007825032070
           O          1.357834319744    -0.547344654628     0.200045993863    15.994914619560
           C          0.722650319744     0.617511345372    -0.270429006137    12.000000000000
           C         -0.694651680256     0.586208345372     0.260501993863    12.000000000000
           H          0.702660319744     0.632456345372    -1.356814006137     1.007825032070
           H          1.236279319744     1.510289345372     0.079794993863     1.007825032070
           O         -1.385657680256    -0.536704654628    -0.201705006137    15.994914619560
           H         -1.237114680256     1.458715345372    -0.081484006137     1.007825032070
           H         -0.668633680256     0.608313345372     1.347810993863     1.007825032070
           H         -2.122195680256    -0.681511654628     0.378430993863     1.007825032070

  Running in c1 symmetry.

  Rotational constants: A =      0.54259  B =      0.18211  C =      0.15333 [cm^-1]
  Rotational constants: A =  16266.38939  B =   5459.51325  C =   4596.73414 [MHz]
  Nuclear repulsion =  133.726938732137995

  Charge       = 0
  Multiplicity = 1
  Electrons    = 34
  Nalpha       = 17
  Nbeta        = 17

  ==> Algorithm <==

  SCF Algorithm Type is DF.
  DIIS enabled.
  MOM disabled.
  Fractional occupation disabled.
  Guess Type is CORE.
  Energy threshold   = 1.00e-08
  Density threshold  = 1.00e-08
  Integral threshold = 0.00e+00

  ==> Primary Basis <==

  Basis Set: 6-31G*
    Number of shells: 36
    Number of basis function: 72
    Number of Cartesian functions: 72
    Spherical Harmonics?: false
    Max angular momentum: 2

  ==> Pre-Iterations <==

   -------------------------------------------------------
    Irrep   Nso     Nmo     Nalpha   Nbeta   Ndocc  Nsocc
   -------------------------------------------------------
     A         72      72       0       0       0       0
   -------------------------------------------------------
    Total      72      72      17      17      17       0
   -------------------------------------------------------

 OEINTS: Overlap, kinetic, potential, dipole, and quadrupole integrals
         stored in file 35.

  ==> Integral Setup <==

  ==> DFJK: Density-Fitted J/K Matrices <==

    J tasked:                  Yes
    K tasked:                  Yes
    wK tasked:                  No
    OpenMP threads:              4
    Integrals threads:           4
    Memory (MB):              1430
    Algorithm:                Core
    Integral Cache:           NONE
    Schwarz Cutoff:          1E-12
    Fitting Condition:       1E-12

   => Auxiliary Basis Set <=

  Basis Set: 
    Number of shells: 150
    Number of basis function: 474
    Number of Cartesian functions: 474
    Spherical Harmonics?: false
    Max angular momentum: 3

  Minimum eigenvalue in the overlap matrix is 4.8779935039E-03.
  Using Symmetric Orthogonalization.
  SCF Guess: Core (One-Electron) Hamiltonian.

  ==> Iterations <==

                           Total Energy        Delta E     RMS |[F,P]|

   @DF-RHF iter   1:  -200.43679417472092   -2.00437e+02   8.43118e-02 
   @DF-RHF iter   2:  -192.18913103360947    8.24766e+00   7.58161e-02 DIIS
   @DF-RHF iter   3:  -223.39169262041779   -3.12026e+01   4.03142e-02 DIIS
   @DF-RHF iter   4:  -228.27219523048720   -4.88050e+00   1.56127e-02 DIIS
   @DF-RHF iter   5:  -228.85784118201312   -5.85646e-01   4.93461e-03 DIIS
   @DF-RHF iter   6:  -228.91204707622401   -5.42059e-02   1.27289e-03 DIIS
   @DF-RHF iter   7:  -228.91655266200260   -4.50559e-03   4.95363e-04 DIIS
   @DF-RHF iter   8:  -228.91726143892564   -7.08777e-04   1.27646e-04 DIIS
   @DF-RHF iter   9:  -228.91731635039756   -5.49115e-05   3.67120e-05 DIIS
   @DF-RHF iter  10:  -228.91732129909687   -4.94870e-06   1.03837e-05 DIIS
   @DF-RHF iter  11:  -228.91732167991901   -3.80822e-07   1.82889e-06 DIIS
   @DF-RHF iter  12:  -228.91732169609006   -1.61710e-08   5.71570e-07 DIIS
   @DF-RHF iter  13:  -228.91732169765524   -1.56518e-09   1.78924e-07 DIIS
   @DF-RHF iter  14:  -228.91732169786181   -2.06569e-10   4.14079e-08 DIIS
   @DF-RHF iter  15:  -228.91732169787289   -1.10845e-11   9.28914e-09 DIIS

  ==> Post-Iterations <==

    Orbital Energies (a.u.)
    -----------------------

    Doubly Occupied:                                                      

       1A    -20.551199     2A    -20.549977     3A    -11.272209  
       4A    -11.268763     5A     -1.369841     6A     -1.347362  
       7A     -1.000062     8A     -0.830925     9A     -0.711915  
      10A     -0.705873    11A     -0.609155    12A     -0.601655  
      13A     -0.588949    14A     -0.522507    15A     -0.473377  
      16A     -0.441299    17A     -0.435620  

    Virtual:                                                              

      18A      0.220874    19A      0.240854    20A      0.280321  
      21A      0.318389    22A      0.322093    23A      0.341494  
      24A      0.399832    25A      0.416893    26A      0.424217  
      27A      0.753982    28A      0.805918    29A      0.813774  
      30A      0.824706    31A      0.907282    32A      0.932267  
      33A      1.057811    34A      1.118540    35A      1.126687  
      36A      1.134373    37A      1.141425    38A      1.199569  
      39A      1.208913    40A      1.272853    41A      1.280725  
      42A      1.302232    43A      1.310691    44A      1.449342  
      45A      1.467080    46A      1.577629    47A      1.684552  
      48A      1.765182    49A      1.821687    50A      1.936075  
      51A      1.988507    52A      2.022634    53A      2.062385  
      54A      2.136301    55A      2.240518    56A      2.363567  
      57A      2.449437    58A      2.469185    59A      2.498232  
      60A      2.670791    61A      2.710793    62A      2.728648  
      63A      2.782156    64A      2.847169    65A      2.971293  
      66A      3.036771    67A      3.182265    68A      3.259076  
      69A      4.147243    70A      4.190546    71A      4.639665  
      72A      4.859387  

    Final Occupation by Irrep:
              A 
    DOCC [    17 ]

  Energy converged.

  @DF-RHF Final Energy:  -228.91732169787289

   => Energetics <=

    Nuclear Repulsion Energy =            133.7269387321379952
    One-Electron Energy =                -578.7271479556122813
    Two-Electron Energy =                 216.0828875256013930
    DFT Exchange-Correlation Energy =       0.0000000000000000
    Empirical Dispersion Energy =           0.0000000000000000
    PCM Polarization Energy =               0.0000000000000000
    EFP Energy =                            0.0000000000000000
    Total Energy =                       -228.9173216978728647

    Alert: EFP and PCM quantities not currently incorporated into SCF psivars.

Properties will be evaluated at   0.000000,   0.000000,   0.000000 Bohr
  ==> Properties <==


Properties computed using the SCF density matrix

  Nuclear Dipole Moment: (a.u.)
     X:     0.1013      Y:     2.6874      Z:     0.1355

  Electronic Dipole Moment: (a.u.)
     X:     0.0022      Y:    -1.9259      Z:    -0.0353

  Dipole Moment: (a.u.)
     X:     0.1035      Y:     0.7615      Z:     0.1002     Total:     0.7750

  Dipole Moment: (Debye)
     X:     0.2631      Y:     1.9355      Z:     0.2546     Total:     1.9698


  Saving occupied orbitals to File 180.

*** tstop() called on cx1-1-1-2.cx1.hpc.ic.ac.uk at Fri Sep  2 12:02:15 2016
Module time:
	user time   =       4.14 seconds =       0.07 minutes
	system time =       0.06 seconds =       0.00 minutes
	total time  =          2 seconds =       0.03 minutes
Total time:
	user time   =       4.14 seconds =       0.07 minutes
	system time =       0.06 seconds =       0.00 minutes
	total time  =          2 seconds =       0.03 minutes

*** tstart() called on cx1-1-1-2.cx1.hpc.ic.ac.uk
*** at Fri Sep  2 12:02:15 2016


         ------------------------------------------------------------
                                   SCF GRAD                          
                          Rob Parrish, Justin Turney,                
                       Andy Simmonett, and Alex Sokolov              
         ------------------------------------------------------------

  ==> Geometry <==

    Molecular point group: c1
    Full point group: C1

    Geometry (in Angstrom), charge = 0, multiplicity = 1:

       Center              X                  Y                   Z               Mass       
    ------------   -----------------  -----------------  -----------------  -----------------
           H          2.197206319744    -0.656097654628    -0.223210006137     1.007825032070
           O          1.357834319744    -0.547344654628     0.200045993863    15.994914619560
           C          0.722650319744     0.617511345372    -0.270429006137    12.000000000000
           C         -0.694651680256     0.586208345372     0.260501993863    12.000000000000
           H          0.702660319744     0.632456345372    -1.356814006137     1.007825032070
           H          1.236279319744     1.510289345372     0.079794993863     1.007825032070
           O         -1.385657680256    -0.536704654628    -0.201705006137    15.994914619560
           H         -1.237114680256     1.458715345372    -0.081484006137     1.007825032070
           H         -0.668633680256     0.608313345372     1.347810993863     1.007825032070
           H         -2.122195680256    -0.681511654628     0.378430993863     1.007825032070

  Nuclear repulsion =  133.726938732137995

  ==> Basis Set <==

  Basis Set: 6-31G*
    Number of shells: 36
    Number of basis function: 72
    Number of Cartesian functions: 72
    Spherical Harmonics?: false
    Max angular momentum: 2

  ==> DFJKGrad: Density-Fitted SCF Gradients <==

    Gradient:                    1
    J tasked:                  Yes
    K tasked:                  Yes
    wK tasked:                  No
    OpenMP threads:              4
    Integrals threads:           4
    Memory (MB):              1430
    Schwarz Cutoff:          0E+00
    Fitting Condition:       1E-12

   => Auxiliary Basis Set <=

  Basis Set: 
    Number of shells: 150
    Number of basis function: 474
    Number of Cartesian functions: 474
    Spherical Harmonics?: false
    Max angular momentum: 3


  -Total Gradient:
     Atom            X                  Y                   Z
    ------   -----------------  -----------------  -----------------
       1        0.000131633517    -0.000850792934     0.000457620408
       2       -0.002088802810    -0.004939472020    -0.000167747860
       3        0.002179949546     0.015061037756     0.000119396566
       4        0.005476297841    -0.006826548305    -0.001311671255
       5        0.000132966882    -0.000521769102     0.000183850157
       6        0.002466095452    -0.001057827228    -0.000164840509
       7       -0.000843594207     0.005616559943    -0.002167889334
       8       -0.003914580447    -0.009355519680    -0.001618338959
       9       -0.001810461032     0.000808564944     0.000690686387
      10       -0.001729504740     0.002065766629     0.003978934400


*** tstop() called on cx1-1-1-2.cx1.hpc.ic.ac.uk at Fri Sep  2 12:02:17 2016
Module time:
	user time   =       6.37 seconds =       0.11 minutes
	system time =       0.12 seconds =       0.00 minutes
	total time  =          2 seconds =       0.03 minutes
Total time:
	user time   =      10.54 seconds =       0.18 minutes
	system time =       0.18 seconds =       0.00 minutes
	total time  =          4 seconds =       0.07 minutes
CURRENT ENERGY: -228.9173216979

			-----------------------------------------
			 OPTKING 2.0: for geometry optimizations 
			  - R.A. King,  Bethel University        
			-----------------------------------------

	Internal coordinates to be generated automatically.
	Detected frag with atoms:  1 2 3 4 5 6 7 8 9 10
	---Fragment 1 Bond Connectivity---
	 1 : 2
	 2 : 1 3
	 3 : 2 4 5 6
	 4 : 3 7 8 9
	 5 : 3
	 6 : 3
	 7 : 4 10
	 8 : 4
	 9 : 4
	 10 : 7

	Assuming in current code that numbering for constraints corresponds to unified fragment.
	Frozen dihedral atom list: 
	    10     7     4     3
	---Fragment 1 Geometry and Gradient---
	 H           4.1521182018       -1.2398448837       -0.4218057817
	 O           2.5659349981       -1.0343314975        0.3780321424
	 C           1.3656111942        1.1669273267       -0.5110367600
	 C          -1.3127014334        1.1077732296        0.4922774255
	 H           1.3278355688        1.1951692838       -2.5640068849
	 H           2.3362293381        2.8540332442        0.1507906852
	 O          -2.6185135296       -1.0142248115       -0.3811672212
	 H          -2.3378079407        2.7565725086       -0.1539824558
	 H          -1.2635345389        1.1495456257        2.5469936573
	 H          -4.0103686361       -1.2878703836        0.7151309386
	             0.0001316335       -0.0008507929        0.0004576204
	            -0.0020888028       -0.0049394720       -0.0001677479
	             0.0021799495        0.0150610378        0.0001193966
	             0.0054762978       -0.0068265483       -0.0013116713
	             0.0001329669       -0.0005217691        0.0001838502
	             0.0024660955       -0.0010578272       -0.0001648405
	            -0.0008435942        0.0056165599       -0.0021678893
	            -0.0039145804       -0.0093555197       -0.0016183390
	            -0.0018104610        0.0008085649        0.0006906864
	            -0.0017295047        0.0020657666        0.0039789344

	Previous optimization step data not found.  Starting new optimization.

	---Fragment 1 Intrafragment Coordinates---
	 - Coordinate -           - BOHR/RAD -       - ANG/DEG -
	 R(1,2)           =         1.788282	       0.946318
	 R(2,3)           =         2.660218	       1.407727
	 R(3,4)           =         2.860681	       1.513807
	 R(3,5)           =         2.053512	       1.086672
	 R(3,6)           =         2.055831	       1.087899
	 R(4,7)           =         2.640251	       1.397161
	 R(4,8)           =         2.046224	       1.082815
	 R(4,9)           =         2.055729	       1.087845
	 R(7,10)          =         1.792767	       0.948691
	 B(1,2,3)         =         1.923924	     110.232737
	 B(2,3,4)         =         1.863061	     106.745514
	 B(2,3,5)         =         1.932429	     110.720004
	 B(2,3,6)         =         1.937392	     111.004385
	 B(3,4,7)         =         1.942971	     111.324038
	 B(3,4,8)         =         1.919421	     109.974723
	 B(3,4,9)         =         1.904707	     109.131682
	 B(4,3,5)         =         1.911016	     109.493176
	 B(4,3,6)         =         1.924199	     110.248504
	 B(4,7,10)        =         1.880058	     107.719374
	 B(5,3,6)         =         1.895725	     108.617019
	 B(7,4,8)         =         1.870626	     107.178948
	 B(7,4,9)         =         1.937795	     111.027503
	 B(8,4,9)         =         1.887339	     108.136584
	 D(1,2,3,4)       =         2.969868	     170.160930
	 D(1,2,3,5)       =         0.891127	      51.057820
	 D(1,2,3,6)       =        -1.215839	     -69.662462
	 D(2,3,4,7)       =        -1.059990	     -60.732955
	 D(2,3,4,8)       =        -3.130581	    -179.369053
	 D(2,3,4,9)       =         1.084959	      62.163557
	*D(3,4,7,10)      =         2.792527	     159.999995
	 D(5,3,4,7)       =         1.032606	      59.163980
	 D(5,3,4,8)       =        -1.037984	     -59.472118
	 D(5,3,4,9)       =        -3.105630	    -177.939508
	 D(6,3,4,7)       =         3.117260	     178.605855
	 D(6,3,4,8)       =         1.046670	      59.969757
	 D(6,3,4,9)       =        -1.020976	     -58.497633
	 D(8,4,7,10)      =        -1.391040	     -79.700727
	 D(9,4,7,10)      =         0.666675	      38.197687

	Current energy   :      -228.9173216979

	Generating empirical Hessian (Schlegel '84) for each fragment.
	Taking RFO optimization step.
	Going to follow RFO solution 1.
	Using RFO vector 1.
	Norm of target step-size    0.43849
	Projected energy change by RFO approximation:        -0.0145964538

	Back-transformation to cartesian coordinates...
	Successfully converged to displaced geometry.

	Back-transformation to cartesian coordinates to adjust frozen coordinates...
	Successfully converged to displaced geometry.

	--- Internal Coordinate Step in ANG or DEG, aJ/ANG or AJ/DEG ---
	 ---------------------------------------------------------------------------
	   Coordinate                Previous        Force       Change         New 
	   ----------                --------       ------       ------       ------
	    1 R(1,2)          =      0.946318    -0.000081    -0.000009     0.946309
	    2 R(2,3)          =      1.407727    -0.032997    -0.004732     1.402995
	    3 R(3,4)          =      1.513807    -0.021839    -0.004467     1.509340
	    4 R(3,5)          =      1.086672     0.001594     0.000287     1.086959
	    5 R(3,6)          =      1.087899    -0.002003    -0.000363     1.087536
	    6 R(4,7)          =      1.397161     0.045320     0.006257     1.403418
	    7 R(4,8)          =      1.082815     0.041739     0.007429     1.090245
	    8 R(4,9)          =      1.087845    -0.005466    -0.000989     1.086856
	    9 R(7,10)         =      0.948691    -0.028511    -0.003135     0.945556
	   10 B(1,2,3)        =    110.232737    -0.000132    -0.606798   109.625939
	   11 B(2,3,4)        =    106.745514     0.000659     2.428592   109.174105
	   12 B(2,3,5)        =    110.720004    -0.000090     0.961926   111.681930
	   13 B(2,3,6)        =    111.004385    -0.000171    -0.774556   110.229829
	   14 B(3,4,7)        =    111.324038    -0.000809    -2.671617   108.652421
	   15 B(3,4,8)        =    109.974723    -0.000219    -1.458463   108.516259
	   16 B(3,4,9)        =    109.131682     0.000085    -0.832757   108.298926
	   17 B(4,3,5)        =    109.493176    -0.000103     0.075030   109.568205
	   18 B(4,3,6)        =    110.248504    -0.000386    -2.309688   107.938816
	   19 B(4,7,10)       =    107.719374     0.000455     2.083573   109.802947
	   20 B(5,3,6)        =    108.617019     0.000088    -0.447832   108.169187
	   21 B(7,4,8)        =    107.178948     0.000716     4.396447   111.575395
	   22 B(7,4,9)        =    111.027503     0.000282     0.621081   111.648584
	   23 B(8,4,9)        =    108.136584    -0.000033    -0.085082   108.051502
	   24 D(1,2,3,4)      =    170.160930     0.000030     1.571922   171.732852
	   25 D(1,2,3,5)      =     51.057820    -0.000021    -0.647178    50.410642
	   26 D(1,2,3,6)      =    -69.662462    -0.000007    -0.201409   -69.863871
	   27 D(2,3,4,7)      =    -60.732955    -0.000008    -7.554633   -68.287589
	   28 D(2,3,4,8)      =   -179.369053    -0.000064   -10.408511  -189.777564
	   29 D(2,3,4,9)      =     62.163557    -0.000037    -9.002713    53.160844
	   30 *D(3,4,7,10)    =    159.999995     0.000000     0.000000   159.999995
	   31 D(5,3,4,7)      =     59.163980     0.000042    -4.854128    54.309852
	   32 D(5,3,4,8)      =    -59.472118    -0.000014    -7.708005   -67.180123
	   33 D(5,3,4,9)      =   -177.939508     0.000014    -6.302208  -184.241716
	   34 D(6,3,4,7)      =    178.605855    -0.000003    -6.720042   171.885813
	   35 D(6,3,4,8)      =     59.969757    -0.000058    -9.573919    50.395837
	   36 D(6,3,4,9)      =    -58.497633    -0.000031    -8.168122   -66.665755
	   37 D(8,4,7,10)     =    -79.700727    -0.000066    -0.701197   -80.401924
	   38 D(9,4,7,10)     =     38.197687     0.000059     2.428386    40.626074
	 ---------------------------------------------------------------------------

  ==> Convergence Check <==

  Measures of convergence in internal coordinates in au.
  Criteria marked as inactive (o), active & met (*), and active & unmet ( ).
  --------------------------------------------------------------------------------------------- ~
   Step     Total Energy     Delta E     MAX Force     RMS Force      MAX Disp      RMS Disp    ~
  --------------------------------------------------------------------------------------------- ~
    Convergence Criteria    1.00e-06 *    3.00e-04 *             o    1.20e-03 *             o  ~
  --------------------------------------------------------------------------------------------- ~
      1    -228.91732170   -2.29e+02      1.06e-02      3.75e-03 o    1.82e-01      7.11e-02 o  ~
  ---------------------------------------------------------------------------------------------

	Writing optimization data to binary file.
	Structure for next step:
	Cartesian Geometry (in Angstrom)
	    H     2.2293779361  -0.6075772355  -0.1922417629
	    O     1.3966066045  -0.5171788466   0.2480100375
	    C     0.7003370082   0.5797960959  -0.2813771637
	    C    -0.7011241259   0.5946162138   0.2787966325
	    H     0.6581375121   0.5427670061  -1.3668853370
	    H     1.1864176704   1.5087454935   0.0076109745
	    O    -1.4026429346  -0.5056527235  -0.2377894721
	    H    -1.1743340331   1.5372539105   0.0028613387
	    H    -0.6357014840   0.5553020466   1.3629689550
	    H    -2.1486969478  -0.6962362787   0.3109887463
			--------------------------
			 OPTKING Finished Execution 
			--------------------------

    Structure for next step:
    Molecular point group: c1
    Full point group: C1

    Geometry (in Angstrom), charge = 0, multiplicity = 1:

    H            2.229214860802    -0.617173497531    -0.196413371730
    O            1.396443592784    -0.526775115444     0.243838394994
    C            0.700174049664     0.570199743264    -0.285548765783
    C           -0.701286977397     0.585019859978     0.274624987629
    H            0.657974556831     0.533170656319    -1.371056856202
    H            1.186254674793     1.499149069881     0.003439350336
    O           -1.402805732544    -0.515248993249    -0.241961077482
    H           -1.174496848470     1.527657484741    -0.001310285047
    H           -0.635864340497     0.545705695860     1.358797227418
    H           -2.148859688733    -0.705832533907     0.306817099034

gradient() will perform analytic gradient computation.

*** tstart() called on cx1-1-1-2.cx1.hpc.ic.ac.uk
*** at Fri Sep  2 12:02:18 2016


         ---------------------------------------------------------
                                   SCF
            by Justin Turney, Rob Parrish, and Andy Simmonett
                              RHF Reference
                        4 Threads,   2000 MiB Core
         ---------------------------------------------------------

  ==> Geometry <==

    Molecular point group: c1
    Full point group: C1

    Geometry (in Angstrom), charge = 0, multiplicity = 1:

       Center              X                  Y                   Z               Mass       
    ------------   -----------------  -----------------  -----------------  -----------------
           H          2.229214860802    -0.617173497531    -0.196413371730     1.007825032070
           O          1.396443592784    -0.526775115444     0.243838394994    15.994914619560
           C          0.700174049664     0.570199743264    -0.285548765783    12.000000000000
           C         -0.701286977397     0.585019859978     0.274624987629    12.000000000000
           H          0.657974556831     0.533170656319    -1.371056856202     1.007825032070
           H          1.186254674793     1.499149069881     0.003439350336     1.007825032070
           O         -1.402805732544    -0.515248993249    -0.241961077482    15.994914619560
           H         -1.174496848470     1.527657484741    -0.001310285047     1.007825032070
           H         -0.635864340497     0.545705695860     1.358797227418     1.007825032070
           H         -2.148859688733    -0.705832533907     0.306817099034     1.007825032070

  Running in c1 symmetry.

  Rotational constants: A =      0.55622  B =      0.17666  C =      0.15230 [cm^-1]
  Rotational constants: A =  16674.91874  B =   5296.10780  C =   4565.93184 [MHz]
  Nuclear repulsion =  133.504947910290809

  Charge       = 0
  Multiplicity = 1
  Electrons    = 34
  Nalpha       = 17
  Nbeta        = 17

  ==> Algorithm <==

  SCF Algorithm Type is DF.
  DIIS enabled.
  MOM disabled.
  Fractional occupation disabled.
  Guess Type is READ.
  Energy threshold   = 1.00e-08
  Density threshold  = 1.00e-08
  Integral threshold = 0.00e+00

  ==> Primary Basis <==

  Basis Set: 6-31G*
    Number of shells: 36
    Number of basis function: 72
    Number of Cartesian functions: 72
    Spherical Harmonics?: false
    Max angular momentum: 2

  ==> Pre-Iterations <==

   -------------------------------------------------------
    Irrep   Nso     Nmo     Nalpha   Nbeta   Ndocc  Nsocc
   -------------------------------------------------------
     A         72      72       0       0       0       0
   -------------------------------------------------------
    Total      72      72      17      17      17       0
   -------------------------------------------------------

 OEINTS: Overlap, kinetic, potential, dipole, and quadrupole integrals
         stored in file 35.

  ==> Integral Setup <==

  ==> DFJK: Density-Fitted J/K Matrices <==

    J tasked:                  Yes
    K tasked:                  Yes
    wK tasked:                  No
    OpenMP threads:              4
    Integrals threads:           4
    Memory (MB):              1430
    Algorithm:                Core
    Integral Cache:           NONE
    Schwarz Cutoff:          1E-12
    Fitting Condition:       1E-12

   => Auxiliary Basis Set <=

  Basis Set: 
    Number of shells: 150
    Number of basis function: 474
    Number of Cartesian functions: 474
    Spherical Harmonics?: false
    Max angular momentum: 3

  Minimum eigenvalue in the overlap matrix is 4.8685280673E-03.
  Using Symmetric Orthogonalization.
  SCF Guess: Reading in previously saved MOs, projecting if necessary.

  Using orbitals from previous SCF, no projection.
  Recomputing DOCC and SOCC from number of alpha and beta electrons from previous calculation.
              A 
    DOCC [    17 ]

  ==> Iterations <==

                           Total Energy        Delta E     RMS |[F,P]|

   @DF-RHF iter   0:  -228.91119226387980   -2.28911e+02   2.01428e-03 
   @DF-RHF iter   1:  -228.91863855631470   -7.44629e-03   3.43258e-04 
   @DF-RHF iter   2:  -228.91919495459655   -5.56398e-04   1.23125e-04 DIIS
   @DF-RHF iter   3:  -228.91927634604559   -8.13914e-05   4.62129e-05 DIIS
   @DF-RHF iter   4:  -228.91928379024051   -7.44419e-06   8.85644e-06 DIIS
   @DF-RHF iter   5:  -228.91928425126548   -4.61025e-07   3.69166e-06 DIIS
   @DF-RHF iter   6:  -228.91928431374123   -6.24757e-08   1.03136e-06 DIIS
   @DF-RHF iter   7:  -228.91928432056801   -6.82678e-09   2.11409e-07 DIIS
   @DF-RHF iter   8:  -228.91928432090566   -3.37650e-10   4.49692e-08 DIIS
   @DF-RHF iter   9:  -228.91928432091669   -1.10276e-11   1.59279e-08 DIIS
   @DF-RHF iter  10:  -228.91928432091782   -1.13687e-12   3.53903e-09 DIIS

  ==> Post-Iterations <==

    Orbital Energies (a.u.)
    -----------------------

    Doubly Occupied:                                                      

       1A    -20.552294     2A    -20.551991     3A    -11.270711  
       4A    -11.269352     5A     -1.369764     6A     -1.348586  
       7A     -1.003010     8A     -0.829655     9A     -0.711488  
      10A     -0.709636    11A     -0.605935    12A     -0.603403  
      13A     -0.587679    14A     -0.524497    15A     -0.472407  
      16A     -0.440540    17A     -0.439582  

    Virtual:                                                              

      18A      0.223905    19A      0.239932    20A      0.279773  
      21A      0.317685    22A      0.329234    23A      0.335394  
      24A      0.410822    25A      0.413267    26A      0.416195  
      27A      0.751591    28A      0.816345    29A      0.817119  
      30A      0.819340    31A      0.895743    32A      0.934757  
      33A      1.061055    34A      1.118428    35A      1.127973  
      36A      1.132725    37A      1.144960    38A      1.201568  
      39A      1.208193    40A      1.267281    41A      1.280391  
      42A      1.293155    43A      1.316124    44A      1.459208  
      45A      1.470920    46A      1.557139    47A      1.696896  
      48A      1.760809    49A      1.842449    50A      1.914773  
      51A      2.002216    52A      2.019830    53A      2.081482  
      54A      2.139965    55A      2.254607    56A      2.347183  
      57A      2.438492    58A      2.464159    59A      2.486341  
      60A      2.664200    61A      2.707728    62A      2.726116  
      63A      2.785783    64A      2.861947    65A      2.990377  
      66A      3.029130    67A      3.196671    68A      3.252933  
      69A      4.171658    70A      4.172799    71A      4.644182  
      72A      4.859972  

    Final Occupation by Irrep:
              A 
    DOCC [    17 ]

  Energy converged.

  @DF-RHF Final Energy:  -228.91928432091782

   => Energetics <=

    Nuclear Repulsion Energy =            133.5049479102908094
    One-Electron Energy =                -578.2674050987847068
    Two-Electron Energy =                 215.8431728675761008
    DFT Exchange-Correlation Energy =       0.0000000000000000
    Empirical Dispersion Energy =           0.0000000000000000
    PCM Polarization Energy =               0.0000000000000000
    EFP Energy =                            0.0000000000000000
    Total Energy =                       -228.9192843209177965

    Alert: EFP and PCM quantities not currently incorporated into SCF psivars.

Properties will be evaluated at   0.000000,   0.000000,   0.000000 Bohr
  ==> Properties <==


Properties computed using the SCF density matrix

  Nuclear Dipole Moment: (a.u.)
     X:     0.1071      Y:     2.6037      Z:     0.0940

  Electronic Dipole Moment: (a.u.)
     X:    -0.0509      Y:    -1.9035      Z:    -0.0169

  Dipole Moment: (a.u.)
     X:     0.0561      Y:     0.7001      Z:     0.0771     Total:     0.7066

  Dipole Moment: (Debye)
     X:     0.1426      Y:     1.7795      Z:     0.1961     Total:     1.7960


  Saving occupied orbitals to File 180.

*** tstop() called on cx1-1-1-2.cx1.hpc.ic.ac.uk at Fri Sep  2 12:02:20 2016
Module time:
	user time   =       5.92 seconds =       0.10 minutes
	system time =       0.10 seconds =       0.00 minutes
	total time  =          2 seconds =       0.03 minutes
Total time:
	user time   =      17.80 seconds =       0.30 minutes
	system time =       0.32 seconds =       0.01 minutes
	total time  =          7 seconds =       0.12 minutes

*** tstart() called on cx1-1-1-2.cx1.hpc.ic.ac.uk
*** at Fri Sep  2 12:02:20 2016


         ------------------------------------------------------------
                                   SCF GRAD                          
                          Rob Parrish, Justin Turney,                
                       Andy Simmonett, and Alex Sokolov              
         ------------------------------------------------------------

  ==> Geometry <==

    Molecular point group: c1
    Full point group: C1

    Geometry (in Angstrom), charge = 0, multiplicity = 1:

       Center              X                  Y                   Z               Mass       
    ------------   -----------------  -----------------  -----------------  -----------------
           H          2.229214860802    -0.617173497531    -0.196413371730     1.007825032070
           O          1.396443592784    -0.526775115444     0.243838394994    15.994914619560
           C          0.700174049664     0.570199743264    -0.285548765783    12.000000000000
           C         -0.701286977397     0.585019859978     0.274624987629    12.000000000000
           H          0.657974556831     0.533170656319    -1.371056856202     1.007825032070
           H          1.186254674793     1.499149069881     0.003439350336     1.007825032070
           O         -1.402805732544    -0.515248993249    -0.241961077482    15.994914619560
           H         -1.174496848470     1.527657484741    -0.001310285047     1.007825032070
           H         -0.635864340497     0.545705695860     1.358797227418     1.007825032070
           H         -2.148859688733    -0.705832533907     0.306817099034     1.007825032070

  Nuclear repulsion =  133.504947910290809

  ==> Basis Set <==

  Basis Set: 6-31G*
    Number of shells: 36
    Number of basis function: 72
    Number of Cartesian functions: 72
    Spherical Harmonics?: false
    Max angular momentum: 2

  ==> DFJKGrad: Density-Fitted SCF Gradients <==

    Gradient:                    1
    J tasked:                  Yes
    K tasked:                  Yes
    wK tasked:                  No
    OpenMP threads:              4
    Integrals threads:           4
    Memory (MB):              1430
    Schwarz Cutoff:          0E+00
    Fitting Condition:       1E-12

   => Auxiliary Basis Set <=

  Basis Set: 
    Number of shells: 150
    Number of basis function: 474
    Number of Cartesian functions: 474
    Spherical Harmonics?: false
    Max angular momentum: 3


  -Total Gradient:
     Atom            X                  Y                   Z
    ------   -----------------  -----------------  -----------------
       1        0.000219795775    -0.000016998176     0.000168248549
       2        0.001817268437    -0.001122292209     0.000823495890
       3       -0.002818500460    -0.000612042322    -0.002157010652
       4       -0.001791139216     0.003458178864     0.001073960451
       5        0.000550067492     0.001228084522    -0.000325444666
       6       -0.000876857031    -0.001770269151     0.001072007973
       7        0.000186640238    -0.003830000384    -0.001106115486
       8        0.001130087278     0.001750484224     0.000240311201
       9        0.000991397902     0.000915132604     0.000199237320
      10        0.000591239581    -0.000000277970     0.000011309420


*** tstop() called on cx1-1-1-2.cx1.hpc.ic.ac.uk at Fri Sep  2 12:02:22 2016
Module time:
	user time   =       7.50 seconds =       0.12 minutes
	system time =       0.16 seconds =       0.00 minutes
	total time  =          2 seconds =       0.03 minutes
Total time:
	user time   =      25.33 seconds =       0.42 minutes
	system time =       0.48 seconds =       0.01 minutes
	total time  =          9 seconds =       0.15 minutes
CURRENT ENERGY: -228.9192843209

			-----------------------------------------
			 OPTKING 2.0: for geometry optimizations 
			  - R.A. King,  Bethel University        
			-----------------------------------------

	Previous internal coordinate definitions found.
	---Fragment 1 Geometry and Gradient---
	 H           4.2126055783       -1.1662888868       -0.3711674814
	 O           2.6388959504       -0.9954607018        0.4607877872
	 C           1.3231371992        1.0775213558       -0.5396089649
	 C          -1.3252403278        1.1055273177        0.5189660159
	 H           1.2433917148        1.0075465225       -2.5909219708
	 H           2.2416964592        2.8329811744        0.0064994302
	 O          -2.6509186521       -0.9736794875       -0.4572401713
	 H          -2.2194773875        2.8868542710       -0.0024760799
	 H          -1.2016094612        1.0312343143        2.5677546299
	 H          -4.0607563097       -1.3338301848        0.5798002901
	             0.0002197958       -0.0000169982        0.0001682485
	             0.0018172684       -0.0011222922        0.0008234959
	            -0.0028185005       -0.0006120423       -0.0021570107
	            -0.0017911392        0.0034581789        0.0010739605
	             0.0005500675        0.0012280845       -0.0003254447
	            -0.0008768570       -0.0017702692        0.0010720080
	             0.0001866402       -0.0038300004       -0.0011061155
	             0.0011300873        0.0017504842        0.0002403112
	             0.0009913979        0.0009151326        0.0001992373
	             0.0005912396       -0.0000002780        0.0000113094

	---Fragment 1 Intrafragment Coordinates---
	 - Coordinate -           - BOHR/RAD -       - ANG/DEG -
	 R(1,2)           =         1.788266	       0.946309
	 R(2,3)           =         2.651277	       1.402995
	 R(3,4)           =         2.852239	       1.509340
	 R(3,5)           =         2.054055	       1.086959
	 R(3,6)           =         2.055146	       1.087536
	 R(4,7)           =         2.652075	       1.403418
	 R(4,8)           =         2.060264	       1.090245
	 R(4,9)           =         2.053859	       1.086856
	 R(7,10)          =         1.786842	       0.945556
	 B(1,2,3)         =         1.913334	     109.625939
	 B(2,3,4)         =         1.905448	     109.174105
	 B(2,3,5)         =         1.949217	     111.681930
	 B(2,3,6)         =         1.923873	     110.229829
	 B(3,4,7)         =         1.896342	     108.652421
	 B(3,4,8)         =         1.893966	     108.516259
	 B(3,4,9)         =         1.890173	     108.298926
	 B(4,3,5)         =         1.912326	     109.568205
	 B(4,3,6)         =         1.883888	     107.938816
	 B(4,7,10)        =         1.916423	     109.802947
	 B(5,3,6)         =         1.887908	     108.169187
	 B(7,4,8)         =         1.947358	     111.575395
	 B(7,4,9)         =         1.948635	     111.648584
	 B(8,4,9)         =         1.885854	     108.051502
	 D(1,2,3,4)       =         2.997304	     171.732852
	 D(1,2,3,5)       =         0.879832	      50.410642
	 D(1,2,3,6)       =        -1.219355	     -69.863871
	 D(2,3,4,7)       =        -1.191843	     -68.287589
	 D(2,3,4,8)       =         2.970942	     170.222436
	 D(2,3,4,9)       =         0.927832	      53.160844
	*D(3,4,7,10)      =         2.792527	     159.999995
	 D(5,3,4,7)       =         0.947886	      54.309852
	 D(5,3,4,8)       =        -1.172514	     -67.180123
	 D(5,3,4,9)       =         3.067561	     175.758284
	 D(6,3,4,7)       =         2.999973	     171.885813
	 D(6,3,4,8)       =         0.879573	      50.395837
	 D(6,3,4,9)       =        -1.163537	     -66.665755
	 D(8,4,7,10)      =        -1.403278	     -80.401924
	 D(9,4,7,10)      =         0.709059	      40.626074

	Current energy   :      -228.9192843209

	Energy change for the previous step:
		Projected    :        -0.0145964538
		Actual       :        -0.0019626230
	Energy ratio indicates iffy step: Trust radius decreased to 1.250e-01.


	Performing BFGS update.
	Previous computed or guess Hessian on step 1.
	Steps to be used in Hessian update: 1
	Taking RFO optimization step.
	Going to follow RFO solution 1.
	Using RFO vector 1.

	Determining step-restricting scale parameter for RS-RFO.
	Maximum step size allowed    0.12500

	 Iter      |step|        alpha        rfo_root  
	------------------------------------------------
	    0     0.30921       1.00000           1
	    1     0.20910       5.28082           1
	    2     0.15464      11.54495           1
	    3     0.13114      16.70134           1
	    4     0.12538      18.39256           1
	    5     0.12500      18.50982           1
	------------------------------------------------
	Norm of target step-size    0.12500
	Projected energy change by RFO approximation:        -0.0003328263

	Back-transformation to cartesian coordinates...
	Successfully converged to displaced geometry.

	Back-transformation to cartesian coordinates to adjust frozen coordinates...
	Successfully converged to displaced geometry.

	--- Internal Coordinate Step in ANG or DEG, aJ/ANG or AJ/DEG ---
	 ---------------------------------------------------------------------------
	   Coordinate                Previous        Force       Change         New 
	   ----------                --------       ------       ------       ------
	    1 R(1,2)          =      0.946309    -0.000962    -0.000090     0.946220
	    2 R(2,3)          =      1.402995    -0.018751    -0.002358     1.400638
	    3 R(3,4)          =      1.509340     0.007012     0.001165     1.510505
	    4 R(3,5)          =      1.086959    -0.002157    -0.000328     1.086631
	    5 R(3,6)          =      1.087536     0.013340     0.002056     1.089593
	    6 R(4,7)          =      1.403418    -0.024857    -0.002856     1.400561
	    7 R(4,8)          =      1.090245    -0.007927    -0.001109     1.089135
	    8 R(4,9)          =      1.086856    -0.001856    -0.000299     1.086556
	    9 R(7,10)         =      0.945556     0.003789     0.000318     0.945874
	   10 B(1,2,3)        =    109.625939    -0.000021    -0.090912   109.535027
	   11 B(2,3,4)        =    109.174105    -0.000108    -0.279273   108.894832
	   12 B(2,3,5)        =    111.681930     0.000012    -0.339078   111.342852
	   13 B(2,3,6)        =    110.229829     0.000055     0.502661   110.732490
	   14 B(3,4,7)        =    108.652421     0.000230     0.601832   109.254253
	   15 B(3,4,8)        =    108.516259     0.000042     0.203451   108.719711
	   16 B(3,4,9)        =    108.298926     0.000012     0.421546   108.720472
	   17 B(4,3,5)        =    109.568205    -0.000051    -0.504198   109.064007
	   18 B(4,3,6)        =    107.938816     0.000115     0.663003   108.601819
	   19 B(4,7,10)       =    109.802947     0.000021     0.110653   109.913600
	   20 B(5,3,6)        =    108.169187    -0.000017    -0.019179   108.150008
	   21 B(7,4,8)        =    111.575395    -0.000202    -1.072706   110.502689
	   22 B(7,4,9)        =    111.648584    -0.000094    -0.198079   111.450505
	   23 B(8,4,9)        =    108.051502     0.000018     0.080510   108.132012
	   24 D(1,2,3,4)      =    171.732852    -0.000020    -1.141886   170.590966
	   25 D(1,2,3,5)      =     50.410642     0.000010    -0.110467    50.300176
	   26 D(1,2,3,6)      =    -69.863871     0.000004    -0.200689   -70.064560
	   27 D(2,3,4,7)      =    -68.287589    -0.000003    -2.018170   -70.305759
	   28 D(2,3,4,8)      =    170.222436     0.000016    -1.198088   169.024348
	   29 D(2,3,4,9)      =     53.160844     0.000004    -1.638467    51.522376
	   30 *D(3,4,7,10)    =    159.999995     0.000000     0.000000   159.999995
	   31 D(5,3,4,7)      =     54.309852    -0.000023    -2.928422    51.381430
	   32 D(5,3,4,8)      =    -67.180123    -0.000004    -2.108340   -69.288464
	   33 D(5,3,4,9)      =    175.758284    -0.000016    -2.548719   173.209565
	   34 D(6,3,4,7)      =    171.885813    -0.000019    -2.854911   169.030902
	   35 D(6,3,4,8)      =     50.395837    -0.000000    -2.034829    48.361009
	   36 D(6,3,4,9)      =    -66.665755    -0.000012    -2.475208   -69.140963
	   37 D(8,4,7,10)     =    -80.401924     0.000018    -0.023176   -80.425100
	   38 D(9,4,7,10)     =     40.626074    -0.000024    -0.792441    39.833633
	 ---------------------------------------------------------------------------

  ==> Convergence Check <==

  Measures of convergence in internal coordinates in au.
  Criteria marked as inactive (o), active & met (*), and active & unmet ( ).
  ---------------------------------------------------------------------------------------------
   Step     Total Energy     Delta E     MAX Force     RMS Force      MAX Disp      RMS Disp   
  ---------------------------------------------------------------------------------------------
    Convergence Criteria    1.00e-06 *    3.00e-04 *             o    1.20e-03 *             o
  ---------------------------------------------------------------------------------------------
      2    -228.91928432   -1.96e-03      3.03e-03      1.17e-03 o    5.11e-02      2.03e-02 o  ~
  ---------------------------------------------------------------------------------------------

	Writing optimization data to binary file.
	Structure for next step:
	Cartesian Geometry (in Angstrom)
	    H     2.2319542009  -0.6128200453  -0.1941828885
	    O     1.4062655721  -0.5129216596   0.2570267791
	    C     0.7053493794   0.5724627337  -0.2837532415
	    C    -0.6962496880   0.5791341591   0.2793641151
	    H     0.6522452278   0.5086939541  -1.3672106672
	    H     1.1893938993   1.5130059625  -0.0224266089
	    O    -1.4129949736  -0.4999742264  -0.2529642808
	    H    -1.1742756685   1.5216588174   0.0160122353
	    H    -0.6370827327   0.5211107379   1.3627556259
	    H    -2.1578570612  -0.6944778424   0.2966056415
			--------------------------
			 OPTKING Finished Execution 
			--------------------------

    Structure for next step:
    Molecular point group: c1
    Full point group: C1

    Geometry (in Angstrom), charge = 0, multiplicity = 1:

    H            2.230233201051    -0.619215011456    -0.195868640300
    O            1.404544635314    -0.519316633416     0.255340992792
    C            0.703628496180     0.566067677038    -0.285438986499
    C           -0.697970464196     0.572739101921     0.277678327118
    H            0.650524348621     0.502298902330    -1.368896329415
    H            1.187672979077     1.506610834015    -0.024112373819
    O           -1.414715695045    -0.506369201174    -0.254650028135
    H           -1.175996408180     1.515263688217     0.014326467385
    H           -0.638803513455     0.514715685130     1.361069755163
    H           -2.159577725752    -0.700872802317     0.294919852175

gradient() will perform analytic gradient computation.

*** tstart() called on cx1-1-1-2.cx1.hpc.ic.ac.uk
*** at Fri Sep  2 12:02:23 2016


         ---------------------------------------------------------
                                   SCF
            by Justin Turney, Rob Parrish, and Andy Simmonett
                              RHF Reference
                        4 Threads,   2000 MiB Core
         ---------------------------------------------------------

  ==> Geometry <==

    Molecular point group: c1
    Full point group: C1

    Geometry (in Angstrom), charge = 0, multiplicity = 1:

       Center              X                  Y                   Z               Mass       
    ------------   -----------------  -----------------  -----------------  -----------------
           H          2.230233201051    -0.619215011456    -0.195868640300     1.007825032070
           O          1.404544635314    -0.519316633416     0.255340992792    15.994914619560
           C          0.703628496180     0.566067677038    -0.285438986499    12.000000000000
           C         -0.697970464196     0.572739101921     0.277678327118    12.000000000000
           H          0.650524348621     0.502298902330    -1.368896329415     1.007825032070
           H          1.187672979077     1.506610834015    -0.024112373819     1.007825032070
           O         -1.414715695045    -0.506369201174    -0.254650028135    15.994914619560
           H         -1.175996408180     1.515263688217     0.014326467385     1.007825032070
           H         -0.638803513455     0.514715685130     1.361069755163     1.007825032070
           H         -2.159577725752    -0.700872802317     0.294919852175     1.007825032070

  Running in c1 symmetry.

  Rotational constants: A =      0.56413  B =      0.17454  C =      0.15172 [cm^-1]
  Rotational constants: A =  16912.22029  B =   5232.55561  C =   4548.59215 [MHz]
  Nuclear repulsion =  133.470793965875856

  Charge       = 0
  Multiplicity = 1
  Electrons    = 34
  Nalpha       = 17
  Nbeta        = 17

  ==> Algorithm <==

  SCF Algorithm Type is DF.
  DIIS enabled.
  MOM disabled.
  Fractional occupation disabled.
  Guess Type is READ.
  Energy threshold   = 1.00e-08
  Density threshold  = 1.00e-08
  Integral threshold = 0.00e+00

  ==> Primary Basis <==

  Basis Set: 6-31G*
    Number of shells: 36
    Number of basis function: 72
    Number of Cartesian functions: 72
    Spherical Harmonics?: false
    Max angular momentum: 2

  ==> Pre-Iterations <==

   -------------------------------------------------------
    Irrep   Nso     Nmo     Nalpha   Nbeta   Ndocc  Nsocc
   -------------------------------------------------------
     A         72      72       0       0       0       0
   -------------------------------------------------------
    Total      72      72      17      17      17       0
   -------------------------------------------------------

 OEINTS: Overlap, kinetic, potential, dipole, and quadrupole integrals
         stored in file 35.

  ==> Integral Setup <==

  ==> DFJK: Density-Fitted J/K Matrices <==

    J tasked:                  Yes
    K tasked:                  Yes
    wK tasked:                  No
    OpenMP threads:              4
    Integrals threads:           4
    Memory (MB):              1430
    Algorithm:                Core
    Integral Cache:           NONE
    Schwarz Cutoff:          1E-12
    Fitting Condition:       1E-12

   => Auxiliary Basis Set <=

  Basis Set: 
    Number of shells: 150
    Number of basis function: 474
    Number of Cartesian functions: 474
    Spherical Harmonics?: false
    Max angular momentum: 3

  Minimum eigenvalue in the overlap matrix is 4.8853578510E-03.
  Using Symmetric Orthogonalization.
  SCF Guess: Reading in previously saved MOs, projecting if necessary.

  Using orbitals from previous SCF, no projection.
  Recomputing DOCC and SOCC from number of alpha and beta electrons from previous calculation.
              A 
    DOCC [    17 ]

  ==> Iterations <==

                           Total Energy        Delta E     RMS |[F,P]|

   @DF-RHF iter   0:  -228.92053567382951   -2.28921e+02   5.90694e-04 
   @DF-RHF iter   1:  -228.91944961857459    1.08606e-03   9.43721e-05 
   @DF-RHF iter   2:  -228.91949363533249   -4.40168e-05   3.45499e-05 DIIS
   @DF-RHF iter   3:  -228.91950090442444   -7.26909e-06   1.28172e-05 DIIS
   @DF-RHF iter   4:  -228.91950143471567   -5.30291e-07   3.14572e-06 DIIS
   @DF-RHF iter   5:  -228.91950150226856   -6.75529e-08   9.61770e-07 DIIS
   @DF-RHF iter   6:  -228.91950150880311   -6.53455e-09   2.71741e-07 DIIS
   @DF-RHF iter   7:  -228.91950150927218   -4.69072e-10   6.86763e-08 DIIS
   @DF-RHF iter   8:  -228.91950150930276   -3.05818e-11   1.45003e-08 DIIS
   @DF-RHF iter   9:  -228.91950150930361   -8.52651e-13   5.69760e-09 DIIS

  ==> Post-Iterations <==

    Orbital Energies (a.u.)
    -----------------------

    Doubly Occupied:                                                      

       1A    -20.552536     2A    -20.551821     3A    -11.270181  
       4A    -11.269512     5A     -1.370715     6A     -1.349932  
       7A     -1.002068     8A     -0.830202     9A     -0.711464  
      10A     -0.710501    11A     -0.607299    12A     -0.602986  
      13A     -0.589018    14A     -0.524922    15A     -0.472090  
      16A     -0.440172    17A     -0.439400  

    Virtual:                                                              

      18A      0.224116    19A      0.238926    20A      0.281679  
      21A      0.317193    22A      0.331514    23A      0.333033  
      24A      0.408848    25A      0.413994    26A      0.418939  
      27A      0.752563    28A      0.816999    29A      0.818515  
      30A      0.820355    31A      0.895703    32A      0.935766  
      33A      1.060966    34A      1.118913    35A      1.128727  
      36A      1.131731    37A      1.143753    38A      1.203214  
      39A      1.206312    40A      1.263805    41A      1.278912  
      42A      1.290942    43A      1.317465    44A      1.463084  
      45A      1.475401    46A      1.550205    47A      1.697985  
      48A      1.758124    49A      1.848744    50A      1.909488  
      51A      2.001621    52A      2.014744    53A      2.087920  
      54A      2.144249    55A      2.256495    56A      2.349183  
      57A      2.442306    58A      2.470290    59A      2.488168  
      60A      2.659075    61A      2.713026    62A      2.723826  
      63A      2.785530    64A      2.865437    65A      2.995355  
      66A      3.030090    67A      3.202406    68A      3.250911  
      69A      4.167178    70A      4.183086    71A      4.644442  
      72A      4.860469  

    Final Occupation by Irrep:
              A 
    DOCC [    17 ]

  Energy converged.

  @DF-RHF Final Energy:  -228.91950150930361

   => Energetics <=

    Nuclear Repulsion Energy =            133.4707939658758562
    One-Electron Energy =                -578.1909568235886354
    Two-Electron Energy =                 215.8006613484092213
    DFT Exchange-Correlation Energy =       0.0000000000000000
    Empirical Dispersion Energy =           0.0000000000000000
    PCM Polarization Energy =               0.0000000000000000
    EFP Energy =                            0.0000000000000000
    Total Energy =                       -228.9195015093035863

    Alert: EFP and PCM quantities not currently incorporated into SCF psivars.

Properties will be evaluated at   0.000000,   0.000000,   0.000000 Bohr
  ==> Properties <==


Properties computed using the SCF density matrix

  Nuclear Dipole Moment: (a.u.)
     X:     0.0881      Y:     2.5439      Z:     0.0763

  Electronic Dipole Moment: (a.u.)
     X:    -0.0282      Y:    -1.8703      Z:    -0.0051

  Dipole Moment: (a.u.)
     X:     0.0599      Y:     0.6735      Z:     0.0712     Total:     0.6799

  Dipole Moment: (Debye)
     X:     0.1523      Y:     1.7119      Z:     0.1810     Total:     1.7282


  Saving occupied orbitals to File 180.

*** tstop() called on cx1-1-1-2.cx1.hpc.ic.ac.uk at Fri Sep  2 12:02:25 2016
Module time:
	user time   =       5.34 seconds =       0.09 minutes
	system time =       0.09 seconds =       0.00 minutes
	total time  =          2 seconds =       0.03 minutes
Total time:
	user time   =      31.28 seconds =       0.52 minutes
	system time =       0.59 seconds =       0.01 minutes
	total time  =         12 seconds =       0.20 minutes

*** tstart() called on cx1-1-1-2.cx1.hpc.ic.ac.uk
*** at Fri Sep  2 12:02:25 2016


         ------------------------------------------------------------
                                   SCF GRAD                          
                          Rob Parrish, Justin Turney,                
                       Andy Simmonett, and Alex Sokolov              
         ------------------------------------------------------------

  ==> Geometry <==

    Molecular point group: c1
    Full point group: C1

    Geometry (in Angstrom), charge = 0, multiplicity = 1:

       Center              X                  Y                   Z               Mass       
    ------------   -----------------  -----------------  -----------------  -----------------
           H          2.230233201051    -0.619215011456    -0.195868640300     1.007825032070
           O          1.404544635314    -0.519316633416     0.255340992792    15.994914619560
           C          0.703628496180     0.566067677038    -0.285438986499    12.000000000000
           C         -0.697970464196     0.572739101921     0.277678327118    12.000000000000
           H          0.650524348621     0.502298902330    -1.368896329415     1.007825032070
           H          1.187672979077     1.506610834015    -0.024112373819     1.007825032070
           O         -1.414715695045    -0.506369201174    -0.254650028135    15.994914619560
           H         -1.175996408180     1.515263688217     0.014326467385     1.007825032070
           H         -0.638803513455     0.514715685130     1.361069755163     1.007825032070
           H         -2.159577725752    -0.700872802317     0.294919852175     1.007825032070

  Nuclear repulsion =  133.470793965875856

  ==> Basis Set <==

  Basis Set: 6-31G*
    Number of shells: 36
    Number of basis function: 72
    Number of Cartesian functions: 72
    Spherical Harmonics?: false
    Max angular momentum: 2

  ==> DFJKGrad: Density-Fitted SCF Gradients <==

    Gradient:                    1
    J tasked:                  Yes
    K tasked:                  Yes
    wK tasked:                  No
    OpenMP threads:              4
    Integrals threads:           4
    Memory (MB):              1430
    Schwarz Cutoff:          0E+00
    Fitting Condition:       1E-12

   => Auxiliary Basis Set <=

  Basis Set: 
    Number of shells: 150
    Number of basis function: 474
    Number of Cartesian functions: 474
    Spherical Harmonics?: false
    Max angular momentum: 3


  -Total Gradient:
     Atom            X                  Y                   Z
    ------   -----------------  -----------------  -----------------
       1       -0.000036194242     0.000346985416    -0.000025870407
       2       -0.000116221129    -0.000447740816    -0.000068492421
       3       -0.000057162325     0.000033054603    -0.000587043487
       4        0.000436446296    -0.000436552618     0.000239001249
       5        0.000332889944     0.000265595760     0.000122377076
       6        0.000151865212    -0.000012436135     0.000315184994
       7       -0.000469591996     0.000347700410     0.000222696652
       8       -0.000103285865    -0.000189964574    -0.000389931331
       9       -0.000128047405     0.000367191137     0.000068483028
      10       -0.000010698495    -0.000273833181     0.000103594646


*** tstop() called on cx1-1-1-2.cx1.hpc.ic.ac.uk at Fri Sep  2 12:02:27 2016
Module time:
	user time   =       6.91 seconds =       0.12 minutes
	system time =       0.18 seconds =       0.00 minutes
	total time  =          2 seconds =       0.03 minutes
Total time:
	user time   =      38.21 seconds =       0.64 minutes
	system time =       0.77 seconds =       0.01 minutes
	total time  =         14 seconds =       0.23 minutes
CURRENT ENERGY: -228.9195015093

			-----------------------------------------
			 OPTKING 2.0: for geometry optimizations 
			  - R.A. King,  Bethel University        
			-----------------------------------------

	Previous internal coordinate definitions found.
	---Fragment 1 Geometry and Gradient---
	 H           4.2145299625       -1.1701467890       -0.3701380882
	 O           2.6542047022       -0.9813662134        0.4825245469
	 C           1.3296651571        1.0697128823       -0.5394015121
	 C          -1.3189730262        1.0823200482        0.5247359913
	 H           1.2293128617        0.9492073623       -2.5868391669
	 H           2.2443766659        2.8470818651       -0.0455657829
	 O          -2.6734252195       -0.9568991123       -0.4812188129
	 H          -2.2223111447        2.8634333898        0.0270730998
	 H          -1.2071636932        0.9726716812        2.5720490850
	 H          -4.0810104644       -1.3244576504        0.5573177518
	            -0.0000361942        0.0003469854       -0.0000258704
	            -0.0001162211       -0.0004477408       -0.0000684924
	            -0.0000571623        0.0000330546       -0.0005870435
	             0.0004364463       -0.0004365526        0.0002390012
	             0.0003328899        0.0002655958        0.0001223771
	             0.0001518652       -0.0000124361        0.0003151850
	            -0.0004695920        0.0003477004        0.0002226967
	            -0.0001032859       -0.0001899646       -0.0003899313
	            -0.0001280474        0.0003671911        0.0000684830
	            -0.0000106985       -0.0002738332        0.0001035946

	---Fragment 1 Intrafragment Coordinates---
	 - Coordinate -           - BOHR/RAD -       - ANG/DEG -
	 R(1,2)           =         1.788096	       0.946220
	 R(2,3)           =         2.646821	       1.400638
	 R(3,4)           =         2.854441	       1.510505
	 R(3,5)           =         2.053434	       1.086631
	 R(3,6)           =         2.059032	       1.089593
	 R(4,7)           =         2.646677	       1.400561
	 R(4,8)           =         2.058167	       1.089135
	 R(4,9)           =         2.053294	       1.086556
	 R(7,10)          =         1.787443	       0.945874
	 B(1,2,3)         =         1.911747	     109.535027
	 B(2,3,4)         =         1.900573	     108.894832
	 B(2,3,5)         =         1.943299	     111.342852
	 B(2,3,6)         =         1.932647	     110.732490
	 B(3,4,7)         =         1.906846	     109.254253
	 B(3,4,8)         =         1.897517	     108.719711
	 B(3,4,9)         =         1.897530	     108.720472
	 B(4,3,5)         =         1.903526	     109.064007
	 B(4,3,6)         =         1.895459	     108.601819
	 B(4,7,10)        =         1.918354	     109.913600
	 B(5,3,6)         =         1.887574	     108.150008
	 B(7,4,8)         =         1.928636	     110.502689
	 B(7,4,9)         =         1.945178	     111.450505
	 B(8,4,9)         =         1.887260	     108.132012
	 D(1,2,3,4)       =         2.977374	     170.590966
	 D(1,2,3,5)       =         0.877904	      50.300176
	 D(1,2,3,6)       =        -1.222857	     -70.064560
	 D(2,3,4,7)       =        -1.227067	     -70.305759
	 D(2,3,4,8)       =         2.950031	     169.024348
	 D(2,3,4,9)       =         0.899235	      51.522376
	*D(3,4,7,10)      =         2.792527	     159.999995
	 D(5,3,4,7)       =         0.896775	      51.381430
	 D(5,3,4,8)       =        -1.209312	     -69.288464
	 D(5,3,4,9)       =         3.023077	     173.209565
	 D(6,3,4,7)       =         2.950146	     169.030902
	 D(6,3,4,8)       =         0.844059	      48.361009
	 D(6,3,4,9)       =        -1.206737	     -69.140963
	 D(8,4,7,10)      =        -1.403683	     -80.425100
	 D(9,4,7,10)      =         0.695228	      39.833633

	Current energy   :      -228.9195015093

	Energy change for the previous step:
		Projected    :        -0.0003328263
		Actual       :        -0.0002171884

	Performing BFGS update.
	Previous computed or guess Hessian on step 1.
	Steps to be used in Hessian update: 2 1
	Taking RFO optimization step.
	Going to follow RFO solution 1.
	Using RFO vector 1.

	Determining step-restricting scale parameter for RS-RFO.
	Maximum step size allowed    0.12500

	 Iter      |step|        alpha        rfo_root  
	------------------------------------------------
	    0     0.14482       1.00000           1
	    1     0.12889       6.85433           1
	    2     0.12520       8.61281           1
	    3     0.12500       8.71137           1
	------------------------------------------------
	Norm of target step-size    0.12500
	Projected energy change by RFO approximation:         0.0001695075

	Back-transformation to cartesian coordinates...
	Successfully converged to displaced geometry.

	Back-transformation to cartesian coordinates to adjust frozen coordinates...
	Successfully converged to displaced geometry.

	--- Internal Coordinate Step in ANG or DEG, aJ/ANG or AJ/DEG ---
	 ---------------------------------------------------------------------------
	   Coordinate                Previous        Force       Change         New 
	   ----------                --------       ------       ------       ------
	    1 R(1,2)          =      0.946220     0.000460     0.000057     0.946277
	    2 R(2,3)          =      1.400638     0.000285    -0.000145     1.400493
	    3 R(3,4)          =      1.510505    -0.002846    -0.000661     1.509844
	    4 R(3,5)          =      1.086631     0.001268     0.000269     1.086900
	    5 R(3,6)          =      1.089593    -0.001090    -0.000087     1.089505
	    6 R(4,7)          =      1.400561    -0.000534    -0.000330     1.400232
	    7 R(4,8)          =      1.089135     0.000204    -0.000042     1.089094
	    8 R(4,9)          =      1.086556    -0.000344    -0.000105     1.086451
	    9 R(7,10)         =      0.945874    -0.001029    -0.000121     0.945753
	   10 B(1,2,3)        =    109.535027     0.000040     0.234835   109.769862
	   11 B(2,3,4)        =    108.894832    -0.000006    -0.049130   108.845703
	   12 B(2,3,5)        =    111.342852     0.000016     0.041008   111.383860
	   13 B(2,3,6)        =    110.732490     0.000002     0.132596   110.865086
	   14 B(3,4,7)        =    109.254253    -0.000064    -0.256323   108.997930
	   15 B(3,4,8)        =    108.719711     0.000019     0.203761   108.923472
	   16 B(3,4,9)        =    108.720472     0.000006    -0.087246   108.633225
	   17 B(4,3,5)        =    109.064007    -0.000032    -0.335514   108.728493
	   18 B(4,3,6)        =    108.601819     0.000014     0.172028   108.773847
	   19 B(4,7,10)       =    109.913600    -0.000019    -0.109646   109.803953
	   20 B(5,3,6)        =    108.150008     0.000005     0.034956   108.184964
	   21 B(7,4,8)        =    110.502689     0.000027     0.147317   110.650006
	   22 B(7,4,9)        =    111.450505     0.000019    -0.058859   111.391646
	   23 B(8,4,9)        =    108.132012    -0.000005     0.057670   108.189683
	   24 D(1,2,3,4)      =    170.590966    -0.000006    -1.687998   168.902968
	   25 D(1,2,3,5)      =     50.300176     0.000002    -1.265280    49.034896
	   26 D(1,2,3,6)      =    -70.064560    -0.000002    -1.426792   -71.491352
	   27 D(2,3,4,7)      =    -70.305759    -0.000001    -1.929557   -72.235316
	   28 D(2,3,4,8)      =    169.024348    -0.000002    -2.078003   166.946345
	   29 D(2,3,4,9)      =     51.522376    -0.000004    -2.211958    49.310418
	   30 *D(3,4,7,10)    =    159.999995    -0.000000     0.000000   159.999995
	   31 D(5,3,4,7)      =     51.381430    -0.000002    -2.114822    49.266608
	   32 D(5,3,4,8)      =    -69.288464    -0.000003    -2.263267   -71.551730
	   33 D(5,3,4,9)      =    173.209565    -0.000005    -2.397222   170.812342
	   34 D(6,3,4,7)      =    169.030902    -0.000003    -2.164273   166.866629
	   35 D(6,3,4,8)      =     48.361009    -0.000004    -2.312718    46.048291
	   36 D(6,3,4,9)      =    -69.140963    -0.000006    -2.446674   -71.587636
	   37 D(8,4,7,10)     =    -80.425100    -0.000000     0.179858   -80.245242
	   38 D(9,4,7,10)     =     39.833633     0.000005     0.312901    40.146534
	 ---------------------------------------------------------------------------

  ==> Convergence Check <==

  Measures of convergence in internal coordinates in au.
  Criteria marked as inactive (o), active & met (*), and active & unmet ( ).
  ---------------------------------------------------------------------------------------------
   Step     Total Energy     Delta E     MAX Force     RMS Force      MAX Disp      RMS Disp   
  ---------------------------------------------------------------------------------------------
    Convergence Criteria    1.00e-06 *    3.00e-04 *             o    1.20e-03 *             o
  ---------------------------------------------------------------------------------------------
      3    -228.91950151   -2.17e-04      8.43e-04      2.49e-04 o    4.27e-02      2.03e-02 o  ~
  ---------------------------------------------------------------------------------------------

	Writing optimization data to binary file.
	Structure for next step:
	Cartesian Geometry (in Angstrom)
	    H     2.2274083649  -0.6247996755  -0.1927756831
	    O     1.4127420993  -0.5031708749   0.2730194838
	    C     0.7029969139   0.5672216447  -0.2854624325
	    C    -0.6964594025   0.5730637348   0.2812081712
	    H     0.6411607636   0.4803749026  -1.3671212672
	    H     1.1816613613   1.5165477310  -0.0473818122
	    O    -1.4146575858  -0.4966932738  -0.2669338725
	    H    -1.1728420890   1.5212549193   0.0360185976
	    H    -0.6332531689   0.4950090187   1.3630066793
	    H    -2.1592173963  -0.6968856703   0.2807911778
			--------------------------
			 OPTKING Finished Execution 
			--------------------------

    Structure for next step:
    Molecular point group: c1
    Full point group: C1

    Geometry (in Angstrom), charge = 0, multiplicity = 1:

    H            2.225257947710    -0.631299725778    -0.194700220116
    O            1.410591744340    -0.509670934441     0.271094911204
    C            0.700846613100     0.560721503404    -0.287386962426
    C           -0.698609596404     0.566563593142     0.279283598002
    H            0.639010467522     0.473874767993    -1.369045714543
    H            1.179511024014     1.510047517293    -0.049306360315
    O           -1.416807724829    -0.503193333821    -0.268858403792
    H           -1.174992246499     1.514754705155     0.034094043125
    H           -0.635403367595     0.488508882926     1.361082023517
    H           -2.161367478541    -0.703385715033     0.278866604662

gradient() will perform analytic gradient computation.

*** tstart() called on cx1-1-1-2.cx1.hpc.ic.ac.uk
*** at Fri Sep  2 12:02:27 2016


         ---------------------------------------------------------
                                   SCF
            by Justin Turney, Rob Parrish, and Andy Simmonett
                              RHF Reference
                        4 Threads,   2000 MiB Core
         ---------------------------------------------------------

  ==> Geometry <==

    Molecular point group: c1
    Full point group: C1

    Geometry (in Angstrom), charge = 0, multiplicity = 1:

       Center              X                  Y                   Z               Mass       
    ------------   -----------------  -----------------  -----------------  -----------------
           H          2.225257947710    -0.631299725778    -0.194700220116     1.007825032070
           O          1.410591744340    -0.509670934441     0.271094911204    15.994914619560
           C          0.700846613100     0.560721503404    -0.287386962426    12.000000000000
           C         -0.698609596404     0.566563593142     0.279283598002    12.000000000000
           H          0.639010467522     0.473874767993    -1.369045714543     1.007825032070
           H          1.179511024014     1.510047517293    -0.049306360315     1.007825032070
           O         -1.416807724829    -0.503193333821    -0.268858403792    15.994914619560
           H         -1.174992246499     1.514754705155     0.034094043125     1.007825032070
           H         -0.635403367595     0.488508882926     1.361082023517     1.007825032070
           H         -2.161367478541    -0.703385715033     0.278866604662     1.007825032070

  Running in c1 symmetry.

  Rotational constants: A =      0.56785  B =      0.17356  C =      0.15179 [cm^-1]
  Rotational constants: A =  17023.83154  B =   5203.22233  C =   4550.50996 [MHz]
  Nuclear repulsion =  133.485218183321450

  Charge       = 0
  Multiplicity = 1
  Electrons    = 34
  Nalpha       = 17
  Nbeta        = 17

  ==> Algorithm <==

  SCF Algorithm Type is DF.
  DIIS enabled.
  MOM disabled.
  Fractional occupation disabled.
  Guess Type is READ.
  Energy threshold   = 1.00e-08
  Density threshold  = 1.00e-08
  Integral threshold = 0.00e+00

  ==> Primary Basis <==

  Basis Set: 6-31G*
    Number of shells: 36
    Number of basis function: 72
    Number of Cartesian functions: 72
    Spherical Harmonics?: false
    Max angular momentum: 2

  ==> Pre-Iterations <==

   -------------------------------------------------------
    Irrep   Nso     Nmo     Nalpha   Nbeta   Ndocc  Nsocc
   -------------------------------------------------------
     A         72      72       0       0       0       0
   -------------------------------------------------------
    Total      72      72      17      17      17       0
   -------------------------------------------------------

 OEINTS: Overlap, kinetic, potential, dipole, and quadrupole integrals
         stored in file 35.

  ==> Integral Setup <==

  ==> DFJK: Density-Fitted J/K Matrices <==

    J tasked:                  Yes
    K tasked:                  Yes
    wK tasked:                  No
    OpenMP threads:              4
    Integrals threads:           4
    Memory (MB):              1430
    Algorithm:                Core
    Integral Cache:           NONE
    Schwarz Cutoff:          1E-12
    Fitting Condition:       1E-12

   => Auxiliary Basis Set <=

  Basis Set: 
    Number of shells: 150
    Number of basis function: 474
    Number of Cartesian functions: 474
    Spherical Harmonics?: false
    Max angular momentum: 3

  Minimum eigenvalue in the overlap matrix is 4.8889641115E-03.
  Using Symmetric Orthogonalization.
  SCF Guess: Reading in previously saved MOs, projecting if necessary.

  Using orbitals from previous SCF, no projection.
  Recomputing DOCC and SOCC from number of alpha and beta electrons from previous calculation.
              A 
    DOCC [    17 ]

  ==> Iterations <==

                           Total Energy        Delta E     RMS |[F,P]|

   @DF-RHF iter   0:  -228.91856885770616   -2.28919e+02   5.19603e-04 
   @DF-RHF iter   1:  -228.91949836039092   -9.29503e-04   9.55686e-05 
   @DF-RHF iter   2:  -228.91954356703647   -4.52066e-05   3.47657e-05 DIIS
   @DF-RHF iter   3:  -228.91955143630403   -7.86927e-06   1.03672e-05 DIIS
   @DF-RHF iter   4:  -228.91955182340851   -3.87104e-07   3.21308e-06 DIIS
   @DF-RHF iter   5:  -228.91955190894012   -8.55316e-08   8.67508e-07 DIIS
   @DF-RHF iter   6:  -228.91955191387783   -4.93770e-09   2.86946e-07 DIIS
   @DF-RHF iter   7:  -228.91955191444382   -5.65990e-10   4.49405e-08 DIIS
   @DF-RHF iter   8:  -228.91955191445774   -1.39266e-11   9.88722e-09 DIIS

  ==> Post-Iterations <==

    Orbital Energies (a.u.)
    -----------------------

    Doubly Occupied:                                                      

       1A    -20.552638     2A    -20.552045     3A    -11.269856  
       4A    -11.269191     5A     -1.370929     6A     -1.350230  
       7A     -1.002044     8A     -0.830188     9A     -0.712930  
      10A     -0.709663    11A     -0.608320    12A     -0.601354  
      13A     -0.589252    14A     -0.525305    15A     -0.471781  
      16A     -0.440306    17A     -0.439692  

    Virtual:                                                              

      18A      0.224941    19A      0.238275    20A      0.282570  
      21A      0.316613    22A      0.331067    23A      0.334171  
      24A      0.406487    25A      0.413420    26A      0.421852  
      27A      0.752098    28A      0.816494    29A      0.820220  
      30A      0.821910    31A      0.894535    32A      0.937904  
      33A      1.061426    34A      1.119191    35A      1.128590  
      36A      1.131809    37A      1.142776    38A      1.204376  
      39A      1.205349    40A      1.260274    41A      1.278439  
      42A      1.290118    43A      1.319206    44A      1.465834  
      45A      1.477025    46A      1.545086    47A      1.699908  
      48A      1.755983    49A      1.851991    50A      1.901237  
      51A      2.003757    52A      2.011343    53A      2.101483  
      54A      2.149796    55A      2.261105    56A      2.347070  
      57A      2.441014    58A      2.469303    59A      2.490257  
      60A      2.655429    61A      2.713302    62A      2.724370  
      63A      2.784001    64A      2.870993    65A      3.000583  
      66A      3.027977    67A      3.206306    68A      3.249408  
      69A      4.163563    70A      4.191193    71A      4.645635  
      72A      4.861396  

    Final Occupation by Irrep:
              A 
    DOCC [    17 ]

  Energy converged.

  @DF-RHF Final Energy:  -228.91955191445774

   => Energetics <=

    Nuclear Repulsion Energy =            133.4852181833214502
    One-Electron Energy =                -578.2180924730689640
    Two-Electron Energy =                 215.8133223752897720
    DFT Exchange-Correlation Energy =       0.0000000000000000
    Empirical Dispersion Energy =           0.0000000000000000
    PCM Polarization Energy =               0.0000000000000000
    EFP Energy =                            0.0000000000000000
    Total Energy =                       -228.9195519144577702

    Alert: EFP and PCM quantities not currently incorporated into SCF psivars.

Properties will be evaluated at   0.000000,   0.000000,   0.000000 Bohr
  ==> Properties <==


Properties computed using the SCF density matrix

  Nuclear Dipole Moment: (a.u.)
     X:     0.0675      Y:     2.4818      Z:     0.0572

  Electronic Dipole Moment: (a.u.)
     X:    -0.0179      Y:    -1.8387      Z:     0.0004

  Dipole Moment: (a.u.)
     X:     0.0496      Y:     0.6431      Z:     0.0576     Total:     0.6475

  Dipole Moment: (Debye)
     X:     0.1261      Y:     1.6345      Z:     0.1463     Total:     1.6459


  Saving occupied orbitals to File 180.

*** tstop() called on cx1-1-1-2.cx1.hpc.ic.ac.uk at Fri Sep  2 12:02:29 2016
Module time:
	user time   =       5.04 seconds =       0.08 minutes
	system time =       0.15 seconds =       0.00 minutes
	total time  =          2 seconds =       0.03 minutes
Total time:
	user time   =      43.71 seconds =       0.73 minutes
	system time =       0.93 seconds =       0.02 minutes
	total time  =         16 seconds =       0.27 minutes

*** tstart() called on cx1-1-1-2.cx1.hpc.ic.ac.uk
*** at Fri Sep  2 12:02:29 2016


         ------------------------------------------------------------
                                   SCF GRAD                          
                          Rob Parrish, Justin Turney,                
                       Andy Simmonett, and Alex Sokolov              
         ------------------------------------------------------------

  ==> Geometry <==

    Molecular point group: c1
    Full point group: C1

[...]
      30A      0.821689    31A      0.895185    32A      0.937890  
      33A      1.061456    34A      1.119270    35A      1.128333  
      36A      1.132325    37A      1.142378    38A      1.204457  
      39A      1.205237    40A      1.259577    41A      1.279116  
      42A      1.288961    43A      1.319772    44A      1.465650  
      45A      1.478880    46A      1.542915    47A      1.699536  
      48A      1.754546    49A      1.853114    50A      1.891702  
      51A      2.003680    52A      2.008430    53A      2.111030  
      54A      2.154180    55A      2.262806    56A      2.346192  
      57A      2.440416    58A      2.468944    59A      2.490770  
      60A      2.650134    61A      2.715262    62A      2.722764  
      63A      2.779153    64A      2.875845    65A      3.002669  
      66A      3.026290    67A      3.206992    68A      3.247864  
      69A      4.162350    70A      4.192671    71A      4.645824  
      72A      4.861492  

    Final Occupation by Irrep:
              A 
    DOCC [    17 ]

  Energy converged.

  @DF-RHF Final Energy:  -228.91956053694418

   => Energetics <=

    Nuclear Repulsion Energy =            133.4437717417227418
    One-Electron Energy =                -578.1373245108377432
    Two-Electron Energy =                 215.7739922321708548
    DFT Exchange-Correlation Energy =       0.0000000000000000
    Empirical Dispersion Energy =           0.0000000000000000
    PCM Polarization Energy =               0.0000000000000000
    EFP Energy =                            0.0000000000000000
    Total Energy =                       -228.9195605369441466

    Alert: EFP and PCM quantities not currently incorporated into SCF psivars.

Properties will be evaluated at   0.000000,   0.000000,   0.000000 Bohr
  ==> Properties <==


Properties computed using the SCF density matrix

  Nuclear Dipole Moment: (a.u.)
     X:     0.0430      Y:     2.4447      Z:     0.0282

  Electronic Dipole Moment: (a.u.)
     X:    -0.0092      Y:    -1.8242      Z:     0.0078

  Dipole Moment: (a.u.)
     X:     0.0338      Y:     0.6205      Z:     0.0360     Total:     0.6225

  Dipole Moment: (Debye)
     X:     0.0860      Y:     1.5772      Z:     0.0915     Total:     1.5822


  Saving occupied orbitals to File 180.

*** tstop() called on cx1-1-1-2.cx1.hpc.ic.ac.uk at Fri Sep  2 12:02:41 2016
Module time:
	user time   =       5.14 seconds =       0.09 minutes
	system time =       0.09 seconds =       0.00 minutes
	total time  =          2 seconds =       0.03 minutes
Total time:
	user time   =      79.24 seconds =       1.32 minutes
	system time =       1.65 seconds =       0.03 minutes
	total time  =         28 seconds =       0.47 minutes

*** tstart() called on cx1-1-1-2.cx1.hpc.ic.ac.uk
*** at Fri Sep  2 12:02:41 2016


         ------------------------------------------------------------
                                   SCF GRAD                          
                          Rob Parrish, Justin Turney,                
                       Andy Simmonett, and Alex Sokolov              
         ------------------------------------------------------------

  ==> Geometry <==

    Molecular point group: c1
    Full point group: C1

    Geometry (in Angstrom), charge = 0, multiplicity = 1:

       Center              X                  Y                   Z               Mass       
    ------------   -----------------  -----------------  -----------------  -----------------
           H          2.209777156984    -0.650206528941    -0.209556504791     1.007825032070
           O          1.413777663672    -0.501949063418     0.279891323925    15.994914619560
           C          0.699855735712     0.561546807189    -0.287671675197    12.000000000000
           C         -0.700890626735     0.564176805099     0.277421808089    12.000000000000
           H          0.639809266676     0.465946477571    -1.368435331371     1.007825032070
           H          1.176504064970     1.513168905734    -0.056392480758     1.007825032070
           O         -1.415894063898    -0.507254010730    -0.274095217754    15.994914619560
           H         -1.180134647268     1.511188975852     0.034013409255     1.007825032070
           H         -0.638745173477     0.483827577038     1.359084389010     1.007825032070
           H         -2.161299590328    -0.710938456593     0.271341519270     1.007825032070

  Nuclear repulsion =  133.443771741722742

  ==> Basis Set <==

  Basis Set: 6-31G*
    Number of shells: 36
    Number of basis function: 72
    Number of Cartesian functions: 72
    Spherical Harmonics?: false
    Max angular momentum: 2

  ==> DFJKGrad: Density-Fitted SCF Gradients <==

    Gradient:                    1
    J tasked:                  Yes
    K tasked:                  Yes
    wK tasked:                  No
    OpenMP threads:              4
    Integrals threads:           4
    Memory (MB):              1430
    Schwarz Cutoff:          0E+00
    Fitting Condition:       1E-12

   => Auxiliary Basis Set <=

  Basis Set: 
    Number of shells: 150
    Number of basis function: 474
    Number of Cartesian functions: 474
    Spherical Harmonics?: false
    Max angular momentum: 3


  -Total Gradient:
     Atom            X                  Y                   Z
    ------   -----------------  -----------------  -----------------
       1        0.000005895500     0.000007776155    -0.000006573064
       2       -0.000007494353    -0.000043724448     0.000025934120
       3        0.000039205253    -0.000038147701     0.000080307588
       4       -0.000011329123     0.000118003186    -0.000105461555
       5       -0.000011523983    -0.000008262233     0.000018270599
       6        0.000002091169     0.000009778900    -0.000001164001
       7       -0.000147558704     0.000121828698    -0.000115214566
       8        0.000003419675    -0.000012897985     0.000000341829
       9        0.000004416243    -0.000013393801    -0.000015559761
      10        0.000122878317    -0.000140960773     0.000119118812


*** tstop() called on cx1-1-1-2.cx1.hpc.ic.ac.uk at Fri Sep  2 12:02:43 2016
Module time:
	user time   =       6.79 seconds =       0.11 minutes
	system time =       0.14 seconds =       0.00 minutes
	total time  =          2 seconds =       0.03 minutes
Total time:
	user time   =      86.05 seconds =       1.43 minutes
	system time =       1.79 seconds =       0.03 minutes
	total time  =         30 seconds =       0.50 minutes
CURRENT ENERGY: -228.9195605369

			-----------------------------------------
			 OPTKING 2.0: for geometry optimizations 
			  - R.A. King,  Bethel University        
			-----------------------------------------

	Previous internal coordinate definitions found.
	---Fragment 1 Geometry and Gradient---
	 H           4.1758736414       -1.2287122695       -0.3960044034
	 O           2.6716525971       -0.9485462625        0.5289179492
	 C           1.3225356730        1.0611696764       -0.5436206823
	 C          -1.3244913336        1.0661396522        0.5242512406
	 H           1.2090642913        0.8805112352       -2.5859680069
	 H           2.2232704770        2.8594748246       -0.1065663446
	 O          -2.6756520139       -0.9585711601       -0.5179648959
	 H          -2.2301312833        2.8557332994        0.0642760283
	 H          -1.2070534466        0.9143016161        2.5682972867
	 H          -4.0842643168       -1.3434789803        0.5127611599
	             0.0000058955        0.0000077762       -0.0000065731
	            -0.0000074944       -0.0000437244        0.0000259341
	             0.0000392053       -0.0000381477        0.0000803076
	            -0.0000113291        0.0001180032       -0.0001054616
	            -0.0000115240       -0.0000082622        0.0000182706
	             0.0000020912        0.0000097789       -0.0000011640
	            -0.0001475587        0.0001218287       -0.0001152146
	             0.0000034197       -0.0000128980        0.0000003418
	             0.0000044162       -0.0000133938       -0.0000155598
	             0.0001228783       -0.0001409608        0.0001191188

	---Fragment 1 Intrafragment Coordinates---
	 - Coordinate -           - BOHR/RAD -       - ANG/DEG -
	 R(1,2)           =         1.787919	       0.946126
	 R(2,3)           =         2.647530	       1.401013
	 R(3,4)           =         2.854317	       1.510440
	 R(3,5)           =         2.053459	       1.086644
	 R(3,6)           =         2.058213	       1.089160
	 R(4,7)           =         2.647887	       1.401201
	 R(4,8)           =         2.057767	       1.088924
	 R(4,9)           =         2.053039	       1.086422
	 R(7,10)          =         1.787383	       0.945843
	 B(1,2,3)         =         1.915691	     109.761021
	 B(2,3,4)         =         1.898985	     108.803820
	 B(2,3,5)         =         1.943669	     111.364044
	 B(2,3,6)         =         1.932860	     110.744744
	 B(3,4,7)         =         1.901419	     108.943311
	 B(3,4,8)         =         1.902899	     109.028082
	 B(3,4,9)         =         1.895797	     108.621188
	 B(4,3,5)         =         1.897590	     108.723909
	 B(4,3,6)         =         1.901683	     108.958418
	 B(4,7,10)        =         1.917534	     109.866592
	 B(5,3,6)         =         1.888355	     108.194766
	 B(7,4,8)         =         1.930973	     110.636617
	 B(7,4,9)         =         1.943909	     111.377795
	 B(8,4,9)         =         1.888143	     108.182599
	 D(1,2,3,4)       =         2.900243	     166.171708
	 D(1,2,3,5)       =         0.808936	      46.348642
	 D(1,2,3,6)       =        -1.293204	     -74.095145
	 D(2,3,4,7)       =        -1.269622	     -72.743999
	 D(2,3,4,8)       =         2.904642	     166.423711
	 D(2,3,4,9)       =         0.850750	      48.744401
	*D(3,4,7,10)      =         2.792527	     159.999995
	 D(5,3,4,7)       =         0.850073	      48.705615
	 D(5,3,4,8)       =        -1.258848	     -72.126674
	 D(5,3,4,9)       =         2.970446	     170.194016
	 D(6,3,4,7)       =         2.904550	     166.418477
	 D(6,3,4,8)       =         0.795629	      45.586187
	 D(6,3,4,9)       =        -1.258262	     -72.093123
	 D(8,4,7,10)      =        -1.399040	     -80.159082
	 D(9,4,7,10)      =         0.701718	      40.205479

	Current energy   :      -228.9195605369

	Energy change for the previous step:
		Projected    :        -0.0000012919
		Actual       :        -0.0000002895
	Energy ratio indicates iffy step: Trust radius decreased to 7.812e-03.


	Performing BFGS update.
	Previous computed or guess Hessian on step 1.
	Steps to be used in Hessian update: 6 5
	Taking RFO optimization step.
	Going to follow RFO solution 1.
	Using RFO vector 1.
	Norm of target step-size    0.00240
	Projected energy change by RFO approximation:         0.0000000308

	Back-transformation to cartesian coordinates...
	Successfully converged to displaced geometry.

	Back-transformation to cartesian coordinates to adjust frozen coordinates...
	Successfully converged to displaced geometry.

	--- Internal Coordinate Step in ANG or DEG, aJ/ANG or AJ/DEG ---
	 ---------------------------------------------------------------------------
	   Coordinate                Previous        Force       Change         New 
	   ----------                --------       ------       ------       ------
	    1 R(1,2)          =      0.946126    -0.000059    -0.000008     0.946118
	    2 R(2,3)          =      1.401013    -0.000283    -0.000036     1.400977
	    3 R(3,4)          =      1.510440     0.000144     0.000019     1.510459
	    4 R(3,5)          =      1.086644     0.000138     0.000022     1.086666
	    5 R(3,6)          =      1.089160    -0.000076    -0.000013     1.089147
	    6 R(4,7)          =      1.401201    -0.000212    -0.000030     1.401171
	    7 R(4,8)          =      1.088924     0.000105     0.000018     1.088942
	    8 R(4,9)          =      1.086422     0.000117     0.000020     1.086442
	    9 R(7,10)         =      0.945843    -0.000018    -0.000002     0.945840
	   10 B(1,2,3)        =    109.761021     0.000001     0.006889   109.767910
	   11 B(2,3,4)        =    108.803820     0.000002     0.007893   108.811712
	   12 B(2,3,5)        =    111.364044    -0.000001     0.001708   111.365752
	   13 B(2,3,6)        =    110.744744    -0.000001    -0.007632   110.737111
	   14 B(3,4,7)        =    108.943311    -0.000000     0.000682   108.943993
	   15 B(3,4,8)        =    109.028082    -0.000000    -0.004649   109.023433
	   16 B(3,4,9)        =    108.621188     0.000000     0.005001   108.626189
	   17 B(4,3,5)        =    108.723909     0.000001     0.006396   108.730305
	   18 B(4,3,6)        =    108.958418    -0.000001    -0.004211   108.954207
	   19 B(4,7,10)       =    109.866592     0.000000     0.000816   109.867408
	   20 B(5,3,6)        =    108.194766    -0.000000    -0.004116   108.190650
	   21 B(7,4,8)        =    110.636617     0.000000    -0.001760   110.634857
	   22 B(7,4,9)        =    111.377795     0.000000     0.005792   111.383587
	   23 B(8,4,9)        =    108.182599    -0.000000    -0.005169   108.177430
	   24 D(1,2,3,4)      =    166.171708     0.000000    -0.069148   166.102560
	   25 D(1,2,3,5)      =     46.348642    -0.000000    -0.083222    46.265420
	   26 D(1,2,3,6)      =    -74.095145     0.000000    -0.073995   -74.169140
	   27 D(2,3,4,7)      =    -72.743999    -0.000000    -0.001033   -72.745033
	   28 D(2,3,4,8)      =    166.423711    -0.000000     0.003513   166.427224
	   29 D(2,3,4,9)      =     48.744401     0.000000     0.009482    48.753884
	   30 *D(3,4,7,10)    =    159.999995    -0.000000     0.000000   159.999995
	   31 D(5,3,4,7)      =     48.705615     0.000000     0.009707    48.715323
	   32 D(5,3,4,8)      =    -72.126674     0.000000     0.014253   -72.112421
	   33 D(5,3,4,9)      =    170.194016     0.000000     0.020223   170.214239
	   34 D(6,3,4,7)      =    166.418477    -0.000000     0.006024   166.424500
	   35 D(6,3,4,8)      =     45.586187    -0.000000     0.010570    45.596757
	   36 D(6,3,4,9)      =    -72.093123     0.000000     0.016539   -72.076583
	   37 D(8,4,7,10)     =    -80.159082    -0.000000    -0.006370   -80.165452
	   38 D(9,4,7,10)     =     40.205479    -0.000000    -0.010232    40.195247
	 ---------------------------------------------------------------------------

  ==> Convergence Check <==

  Measures of convergence in internal coordinates in au.
  Criteria marked as inactive (o), active & met (*), and active & unmet ( ).
  ---------------------------------------------------------------------------------------------
   Step     Total Energy     Delta E     MAX Force     RMS Force      MAX Disp      RMS Disp   
  ---------------------------------------------------------------------------------------------
    Convergence Criteria    1.00e-06 *    3.00e-04 *             o    1.20e-03 *             o
  ---------------------------------------------------------------------------------------------
      7    -228.91956054   -2.89e-07 *    3.43e-05 *    1.12e-05 o    1.45e-03      3.90e-04 o  ~
  ---------------------------------------------------------------------------------------------


  **** Optimization is complete! (in 7 steps) ****

  ==> Optimization Summary <==

  Measures of convergence in internal coordinates in au.
  --------------------------------------------------------------------------------------------------------------- ~
   Step         Total Energy             Delta E       MAX Force       RMS Force        MAX Disp        RMS Disp  ~
  --------------------------------------------------------------------------------------------------------------- ~
      1    -228.917321697873   -228.917321697873      0.01063044      0.00375165      0.18166278      0.07112666  ~
      2    -228.919284320918     -0.001962623045      0.00302815      0.00117372      0.05111061      0.02027783  ~
      3    -228.919501509304     -0.000217188386      0.00084284      0.00024862      0.04270251      0.02027776  ~
      4    -228.919551914458     -0.000050405154      0.00068620      0.00016970      0.02495441      0.00843336  ~
      5    -228.919558801770     -0.000006887312      0.00031911      0.00007355      0.01395324      0.00391958  ~
      6    -228.919560247448     -0.000001445678      0.00008068      0.00002016      0.00878832      0.00249839  ~
      7    -228.919560536944     -0.000000289497      0.00003432      0.00001117      0.00145250      0.00038990  ~
  --------------------------------------------------------------------------------------------------------------- ~

	Writing optimization data to binary file.
	Final energy is   -228.9195605369442
	Final (previous) structure:
	Cartesian Geometry (in Angstrom)
	    H     2.2097773257  -0.6502065786  -0.2095565208
	    O     1.4137777716  -0.5019491017   0.2798913453
	    C     0.6998557892   0.5615468501  -0.2876716972
	    C    -0.7008906803   0.5641768482   0.2774218293
	    H     0.6398093155   0.4659465132  -1.3684354359
	    H     1.1765041548   1.5131690213  -0.0563924851
	    O    -1.4158941720  -0.5072540495  -0.2740952387
	    H    -1.1801347374   1.5111890913   0.0340134119
	    H    -0.6387452223   0.4838276140   1.3590844928
	    H    -2.1612997554  -0.7109385109   0.2713415400
	Saving final (previous) structure.
			--------------------------
			 OPTKING Finished Execution 
			--------------------------

    Final optimized geometry and variables:
    Molecular point group: c1
    Full point group: C1

    Geometry (in Angstrom), charge = 0, multiplicity = 1:

    H            2.209777156984    -0.650206528941    -0.209556504791
    O            1.413777663672    -0.501949063418     0.279891323925
    C            0.699855735712     0.561546807189    -0.287671675197
    C           -0.700890626735     0.564176805099     0.277421808089
    H            0.639809266676     0.465946477571    -1.368435331371
    H            1.176504064970     1.513168905734    -0.056392480758
    O           -1.415894063898    -0.507254010730    -0.274095217754
    H           -1.180134647268     1.511188975852     0.034013409255
    H           -0.638745173477     0.483827577038     1.359084389010
    H           -2.161299590328    -0.710938456593     0.271341519270

	Cleaning optimization helper files.


Properties will be evaluated at   0.000000,   0.000000,   0.000000 Bohr

Properties computed using the  density matrix

  Nuclear Dipole Moment: (a.u.)
     X:     0.0430      Y:     2.4447      Z:     0.0282

  Electronic Dipole Moment: (a.u.)
     X:    -0.0092      Y:    -1.8242      Z:     0.0078

  Dipole Moment: (a.u.)
     X:     0.0338      Y:     0.6205      Z:     0.0360     Total:     0.6225

  Dipole Moment: (Debye)
     X:     0.0860      Y:     1.5772      Z:     0.0915     Total:     1.5822

  Quadrupole Moment: (Debye Ang)
    XX:   -18.1042     YY:   -25.1485     ZZ:   -25.1923
    XY:     0.1754     XZ:    -5.4574     YZ:    -0.1301

  Traceless Quadrupole Moment: (Debye Ang)
    XX:     4.7108     YY:    -2.3335     ZZ:    -2.3773
    XY:     0.1754     XZ:    -5.4574     YZ:    -0.1301

  Mulliken Charges: (a.u.)
   Center  Symbol    Alpha    Beta     Spin     Total
       1     H     0.27963  0.27963  0.00000  0.44073
       2     O     4.36695  4.36695  0.00000 -0.73390
       3     C     3.00035  3.00035  0.00000 -0.00071
       4     C     3.00047  3.00047  0.00000 -0.00094
       5     H     0.42180  0.42180  0.00000  0.15640
       6     H     0.43163  0.43163  0.00000  0.13675
       7     O     4.36710  4.36710  0.00000 -0.73419
       8     H     0.43082  0.43082  0.00000  0.13836
       9     H     0.42192  0.42192  0.00000  0.15615
      10     H     0.27933  0.27933  0.00000  0.44134

   Total alpha = 17.00000, Total beta = 17.00000, Total charge = -0.00000


*** PSI4 exiting successfully. Buy a developer a beer!
