    -----------------------------------------------------------------------
          Psi4: An Open-Source Ab Initio Electronic Structure Package
                              Psi4 (no tag) Driver

                          Git: Rev {detached?}  

    J. M. Turney, A. C. Simmonett, R. M. Parrish, E. G. Hohenstein,
    F. A. Evangelista, J. T. Fermann, B. J. Mintz, L. A. Burns, J. J. Wilke,
    M. L. Abrams, N. J. Russ, M. L. Leininger, C. L. Janssen, E. T. Seidl,
    W. D. Allen, H. F. Schaefer, R. A. King, E. F. Valeev, C. D. Sherrill,
    and T. D. Crawford, WIREs Comput. Mol. Sci. 2, 556-565 (2012)
    (doi: 10.1002/wcms.93)

                         Additional Contributions by
    A. E. DePrince, M. Saitow, U. Bozkaya, A. Yu. Sokolov
    -----------------------------------------------------------------------


    Psi4 started on: Thu Sep  1 22:09:14 2016

    Process ID:  31040
    PSI4DATADIR: /export131/home/mjharvey/miniconda3/share
    Memory level set to 256.000 MB

  ==> Input File <==

--------------------------------------------------------------------------
set {
	reference rhf
	basis 6-31G*
}


set_num_threads( 1 )
memory 2 gb

molecule MOL {
0 1

H	 3.041906	 -0.078346	 0.305805
O	 2.346107	 0.485021	 -0.001068
C	 1.135793	 0.118896	 0.612333
C	 0.031547	 1.023609	 0.088541
H	 1.207718	 0.229882	 1.692794
H	 0.905438	 -0.924555	 0.409237
C	 -1.134819	 0.293262	 -0.585751
H	 0.474374	 1.714721	 -0.623187
H	 -0.338529	 1.620940	 0.920081
C	 -1.917817	 -0.639439	 0.339494
H	 -0.758119	 -0.268455	 -1.433105
H	 -1.813832	 1.041889	 -0.986690
H	 -2.777680	 -1.057197	 -0.174994
H	 -1.310268	 -1.471279	 0.680599
H	 -2.283753	 -0.111424	 1.216626

	symmetry c1
}
set optking {
	frozen_dihedral = ("
		8 4 7 11,
		1 2 3 4
	")
}

ee = energy('scf')
oeprop('DIPOLE', 'QUADRUPOLE', 'MULLIKEN_CHARGES')
f=open( 'psi4out.xyz', 'w' )
f.write( "15  " )
f.write( str(ee) + "\n" )
f.write( MOL.save_string_xyz() )
f.close()
--------------------------------------------------------------------------

  Memory set to   2.000 GiB by Python script.

*** tstart() called on cx1-3-4-1.cx1.hpc.ic.ac.uk
*** at Thu Sep  1 22:09:15 2016


         ---------------------------------------------------------
                                   SCF
            by Justin Turney, Rob Parrish, and Andy Simmonett
                              RHF Reference
                        1 Threads,   2000 MiB Core
         ---------------------------------------------------------

  ==> Geometry <==

    Molecular point group: c1
    Full point group: C1

    Geometry (in Angstrom), charge = 0, multiplicity = 1:

       Center              X                  Y                   Z               Mass       
    ------------   -----------------  -----------------  -----------------  -----------------
           H          2.890421973151    -0.321557277630     0.205077650554     1.007825032070
           O          2.194622973151     0.241809722370    -0.101795349446    15.994914619560
           C          0.984308973151    -0.124315277630     0.511605650554    12.000000000000
           C         -0.119937026849     0.780397722370    -0.012186349446    12.000000000000
           H          1.056233973151    -0.013329277630     1.592066650554     1.007825032070
           H          0.753953973151    -1.167766277630     0.308509650554     1.007825032070
           C         -1.286303026849     0.050050722370    -0.686478349446    12.000000000000
           H          0.322889973151     1.471509722370    -0.723914349446     1.007825032070
           H         -0.490013026849     1.377728722370     0.819353650554     1.007825032070
           C         -2.069301026849    -0.882650277630     0.238766650554    12.000000000000
           H         -0.909603026849    -0.511666277630    -1.533832349446     1.007825032070
           H         -1.965316026849     0.798677722370    -1.087417349446     1.007825032070
           H         -2.929164026849    -1.300408277630    -0.275721349446     1.007825032070
           H         -1.461752026849    -1.714490277630     0.579871650554     1.007825032070
           H         -2.435237026849    -0.354635277630     1.115898650554     1.007825032070

  Running in c1 symmetry.

  Rotational constants: A =      0.40423  B =      0.07980  C =      0.07431 [cm^-1]
  Rotational constants: A =  12118.37802  B =   2392.39342  C =   2227.70846 [MHz]
  Nuclear repulsion =  188.679761150898344

  Charge       = 0
  Multiplicity = 1
  Electrons    = 42
  Nalpha       = 21
  Nbeta        = 21

  ==> Algorithm <==

  SCF Algorithm Type is DF.
  DIIS enabled.
  MOM disabled.
  Fractional occupation disabled.
  Guess Type is CORE.
  Energy threshold   = 1.00e-06
  Density threshold  = 1.00e-06
  Integral threshold = 0.00e+00

  ==> Primary Basis <==

  Basis Set: 6-31G*
    Number of shells: 50
    Number of basis function: 95
    Number of Cartesian functions: 95
    Spherical Harmonics?: false
    Max angular momentum: 2

  ==> Pre-Iterations <==

   -------------------------------------------------------
    Irrep   Nso     Nmo     Nalpha   Nbeta   Ndocc  Nsocc
   -------------------------------------------------------
     A         95      95       0       0       0       0
   -------------------------------------------------------
    Total      95      95      21      21      21       0
   -------------------------------------------------------

 OEINTS: Overlap, kinetic, potential, dipole, and quadrupole integrals
         stored in file 35.

  ==> Integral Setup <==

  ==> DFJK: Density-Fitted J/K Matrices <==

    J tasked:                  Yes
    K tasked:                  Yes
    wK tasked:                  No
    OpenMP threads:              1
    Integrals threads:           1
    Memory (MB):              1430
    Algorithm:                Core
    Integral Cache:           NONE
    Schwarz Cutoff:          1E-12
    Fitting Condition:       1E-12

   => Auxiliary Basis Set <=

  Basis Set: 
    Number of shells: 210
    Number of basis function: 655
    Number of Cartesian functions: 655
    Spherical Harmonics?: false
    Max angular momentum: 3

  Minimum eigenvalue in the overlap matrix is 4.4178025127E-03.
  Using Symmetric Orthogonalization.
  SCF Guess: Core (One-Electron) Hamiltonian.

  ==> Iterations <==

                           Total Energy        Delta E     RMS |[F,P]|

   @DF-RHF iter   1:  -182.21333562089211   -1.82213e+02   8.06652e-02 
   @DF-RHF iter   2:  -115.55029192014001    6.66630e+01   8.54190e-02 DIIS
   @DF-RHF iter   3:  -191.59934864892347   -7.60491e+01   5.62051e-02 DIIS
   @DF-RHF iter   4:  -190.92480641520007    6.74542e-01   6.54971e-02 DIIS
   @DF-RHF iter   5:  -231.50710852682323   -4.05823e+01   1.25226e-02 DIIS
   @DF-RHF iter   6:  -232.02570411512801   -5.18596e-01   4.54620e-03 DIIS
   @DF-RHF iter   7:  -232.11580596803128   -9.01019e-02   2.06501e-03 DIIS
   @DF-RHF iter   8:  -232.13602694613064   -2.02210e-02   3.82538e-04 DIIS
   @DF-RHF iter   9:  -232.13724972985978   -1.22278e-03   1.10991e-04 DIIS
   @DF-RHF iter  10:  -232.13735123848204   -1.01509e-04   3.52466e-05 DIIS
   @DF-RHF iter  11:  -232.13736177228361   -1.05338e-05   7.16282e-06 DIIS
   @DF-RHF iter  12:  -232.13736221624282   -4.43959e-07   1.78555e-06 DIIS
   @DF-RHF iter  13:  -232.13736224430642   -2.80636e-08   5.26949e-07 DIIS

  ==> Post-Iterations <==

    Orbital Energies (a.u.)
    -----------------------

    Doubly Occupied:                                                      

       1A    -20.551562     2A    -11.265854     3A    -11.216053  
       4A    -11.210724     5A    -11.209748     6A     -1.358208  
       7A     -1.068833     8A     -0.970723     9A     -0.870286  
      10A     -0.781255    11A     -0.702150    12A     -0.648307  
      13A     -0.604558    14A     -0.589258    15A     -0.557785  
      16A     -0.534767    17A     -0.510649    18A     -0.476130  
      19A     -0.470840    20A     -0.455320    21A     -0.427777  

    Virtual:                                                              

      22A      0.225064    23A      0.239188    24A      0.272193  
      25A      0.285729    26A      0.304595    27A      0.317977  
      28A      0.329734    29A      0.338523    30A      0.359921  
      31A      0.370996    32A      0.391015    33A      0.419348  
      34A      0.469376    35A      0.494923    36A      0.723633  
      37A      0.733153    38A      0.739471    39A      0.767829  
      40A      0.778253    41A      0.867934    42A      0.902295  
      43A      0.941302    44A      0.948485    45A      0.994586  
      46A      1.023688    47A      1.070884    48A      1.114800  
      49A      1.133738    50A      1.151573    51A      1.162481  
      52A      1.173028    53A      1.186608    54A      1.209123  
      55A      1.220248    56A      1.245054    57A      1.256683  
      58A      1.273913    59A      1.293363    60A      1.325046  
      61A      1.457177    62A      1.482675    63A      1.649037  
      64A      1.690573    65A      1.760421    66A      1.835173  
      67A      1.912361    68A      1.952884    69A      2.027019  
      70A      2.073677    71A      2.125618    72A      2.177896  
      73A      2.256595    74A      2.280422    75A      2.344132  
      76A      2.365240    77A      2.400614    78A      2.450662  
      79A      2.570720    80A      2.615561    81A      2.674377  
      82A      2.691045    83A      2.739974    84A      2.765016  
      85A      2.825735    86A      2.896199    87A      2.973684  
      88A      2.984132    89A      3.092843    90A      3.239206  
      91A      4.189402    92A      4.560490    93A      4.694171  
      94A      4.841440    95A      4.968638  

    Final Occupation by Irrep:
              A 
    DOCC [    21 ]

  Energy converged.

  @DF-RHF Final Energy:  -232.13736224430642

   => Energetics <=

    Nuclear Repulsion Energy =            188.6797611508983437
    One-Electron Energy =                -688.6727632761685527
    Two-Electron Energy =                 267.8556398809644179
    DFT Exchange-Correlation Energy =       0.0000000000000000
    Empirical Dispersion Energy =           0.0000000000000000
    PCM Polarization Energy =               0.0000000000000000
    EFP Energy =                            0.0000000000000000
    Total Energy =                       -232.1373622443057911

    Alert: EFP and PCM quantities not currently incorporated into SCF psivars.

Properties will be evaluated at   0.000000,   0.000000,   0.000000 Bohr
  ==> Properties <==


Properties computed using the SCF density matrix

  Nuclear Dipole Moment: (a.u.)
     X:    -4.8339      Y:    -1.6262      Z:     0.9369

  Electronic Dipole Moment: (a.u.)
     X:     4.7570      Y:     1.1492      Z:    -0.5385

  Dipole Moment: (a.u.)
     X:    -0.0769      Y:    -0.4770      Z:     0.3984     Total:     0.6262

  Dipole Moment: (Debye)
     X:    -0.1955      Y:    -1.2124      Z:     1.0125     Total:     1.5917


  Saving occupied orbitals to File 180.

*** tstop() called on cx1-3-4-1.cx1.hpc.ic.ac.uk at Thu Sep  1 22:09:25 2016
Module time:
	user time   =       5.72 seconds =       0.10 minutes
	system time =       0.04 seconds =       0.00 minutes
	total time  =         10 seconds =       0.17 minutes
Total time:
	user time   =       5.72 seconds =       0.10 minutes
	system time =       0.04 seconds =       0.00 minutes
	total time  =         10 seconds =       0.17 minutes


Properties will be evaluated at   0.000000,   0.000000,   0.000000 Bohr

Properties computed using the  density matrix

  Nuclear Dipole Moment: (a.u.)
     X:    -4.8339      Y:    -1.6262      Z:     0.9369

  Electronic Dipole Moment: (a.u.)
     X:     4.7570      Y:     1.1492      Z:    -0.5385

  Dipole Moment: (a.u.)
     X:    -0.0769      Y:    -0.4770      Z:     0.3984     Total:     0.6262

  Dipole Moment: (Debye)
     X:    -0.1955      Y:    -1.2124      Z:     1.0125     Total:     1.5917

  Quadrupole Moment: (Debye Ang)
    XX:   -31.8419     YY:   -33.4307     ZZ:   -33.3259
    XY:    -3.9423     XZ:     2.6192     YZ:     0.0051

  Traceless Quadrupole Moment: (Debye Ang)
    XX:     1.0243     YY:    -0.5645     ZZ:    -0.4598
    XY:    -3.9423     XZ:     2.6192     YZ:     0.0051

  Mulliken Charges: (a.u.)
   Center  Symbol    Alpha    Beta     Spin     Total
       1     H     0.28213  0.28213  0.00000  0.43575
       2     O     4.37171  4.37171  0.00000 -0.74342
       3     C     2.99360  2.99360  0.00000  0.01280
       4     C     3.16683  3.16683  0.00000 -0.33365
       5     H     0.43051  0.43051  0.00000  0.13897
       6     H     0.43004  0.43004  0.00000  0.13991
       7     C     3.15825  3.15825  0.00000 -0.31650
       8     H     0.40181  0.40181  0.00000  0.19638
       9     H     0.42178  0.42178  0.00000  0.15645
      10     C     3.24258  3.24258  0.00000 -0.48516
      11     H     0.41887  0.41887  0.00000  0.16227
      12     H     0.42010  0.42010  0.00000  0.15979
      13     H     0.41787  0.41787  0.00000  0.16426
      14     H     0.42223  0.42223  0.00000  0.15554
      15     H     0.42169  0.42169  0.00000  0.15663

   Total alpha = 21.00000, Total beta = 21.00000, Total charge =  0.00000


*** PSI4 exiting successfully. Buy a developer a beer!
