    -----------------------------------------------------------------------
          Psi4: An Open-Source Ab Initio Electronic Structure Package
                              Psi4 (no tag) Driver

                          Git: Rev {detached?}  

    J. M. Turney, A. C. Simmonett, R. M. Parrish, E. G. Hohenstein,
    F. A. Evangelista, J. T. Fermann, B. J. Mintz, L. A. Burns, J. J. Wilke,
    M. L. Abrams, N. J. Russ, M. L. Leininger, C. L. Janssen, E. T. Seidl,
    W. D. Allen, H. F. Schaefer, R. A. King, E. F. Valeev, C. D. Sherrill,
    and T. D. Crawford, WIREs Comput. Mol. Sci. 2, 556-565 (2012)
    (doi: 10.1002/wcms.93)

                         Additional Contributions by
    A. E. DePrince, M. Saitow, U. Bozkaya, A. Yu. Sokolov
    -----------------------------------------------------------------------


    Psi4 started on: Fri Sep  9 21:10:33 2016

    Process ID:  22131
    PSI4DATADIR: /export131/home/mjharvey/miniconda3/share
    Memory level set to 256.000 MB

  ==> Input File <==

--------------------------------------------------------------------------
set {
	reference rhf
	basis cc-pvtz
}


set_num_threads( 4 )
memory 2 gb

molecule MOL {
0 1

O	 -0.294688	 1.318815	 -0.000872
C	 -0.448732	 0.145721	 -0.000187
C	 -1.780748	 -0.548101	 0.000195
O	 0.550743	 -0.719877	 0.000412
H	 -1.859389	 -1.183260	 -0.872613
H	 -2.570236	 0.185547	 -0.001342
H	 -1.860233	 -1.180337	 0.875064
C	 0.217744	 -2.093986	 0.001202
H	 -0.355755	 -2.346085	 0.880732
H	 1.154575	 -2.626930	 0.001743
H	 -0.355404	 -2.347224	 -0.878227

	symmetry c1
}
set optking {
	frozen_dihedral = ("
		8 4 2 1
	")
}

ee = optimize('scf')
oeprop('DIPOLE', 'QUADRUPOLE', 'MULLIKEN_CHARGES')
f=open( 'psi4out.xyz', 'w' )
f.write( "11  " )
f.write( str(ee) + "\n" )
f.write( MOL.save_string_xyz() )
f.close()
--------------------------------------------------------------------------

  Memory set to   2.000 GiB by Python script.
gradient() will perform analytic gradient computation.

*** tstart() called on cx1-27-3-2
*** at Fri Sep  9 21:10:33 2016


         ---------------------------------------------------------
                                   SCF
            by Justin Turney, Rob Parrish, and Andy Simmonett
                              RHF Reference
                        4 Threads,   2000 MiB Core
         ---------------------------------------------------------

  ==> Geometry <==

    Molecular point group: c1
    Full point group: C1

    Geometry (in Angstrom), charge = 0, multiplicity = 1:

       Center              X                  Y                   Z               Mass       
    ------------   -----------------  -----------------  -----------------  -----------------
           O          0.055643888183     1.723330748437    -0.001041662404    15.994914619560
           C         -0.098400111817     0.550236748437    -0.000356662404    12.000000000000
           C         -1.430416111817    -0.143585251563     0.000025337596    12.000000000000
           O          0.901074888183    -0.315361251563     0.000242337596    15.994914619560
           H         -1.509057111817    -0.778744251563    -0.872782662404     1.007825032070
           H         -2.219904111817     0.590062748437    -0.001511662404     1.007825032070
           H         -1.509901111817    -0.775821251563     0.874894337596     1.007825032070
           C          0.568075888183    -1.689470251563     0.001032337596    12.000000000000
           H         -0.005423111817    -1.941569251563     0.880562337596     1.007825032070
           H          1.504906888183    -2.222414251563     0.001573337596     1.007825032070
           H         -0.005072111817    -1.942708251563    -0.878396662404     1.007825032070

  Running in c1 symmetry.

  Rotational constants: A =      0.32293  B =      0.15496  C =      0.10890 [cm^-1]
  Rotational constants: A =   9681.06344  B =   4645.51205  C =   3264.82641 [MHz]
  Nuclear repulsion =  185.651267430733725

  Charge       = 0
  Multiplicity = 1
  Electrons    = 40
  Nalpha       = 20
  Nbeta        = 20

  ==> Algorithm <==

  SCF Algorithm Type is DF.
  DIIS enabled.
  MOM disabled.
  Fractional occupation disabled.
  Guess Type is CORE.
  Energy threshold   = 1.00e-08
  Density threshold  = 1.00e-08
  Integral threshold = 0.00e+00

  ==> Primary Basis <==

  Basis Set: CC-PVTZ
    Number of shells: 86
    Number of basis function: 234
    Number of Cartesian functions: 265
    Spherical Harmonics?: true
    Max angular momentum: 3

  ==> Pre-Iterations <==

   -------------------------------------------------------
    Irrep   Nso     Nmo     Nalpha   Nbeta   Ndocc  Nsocc
   -------------------------------------------------------
     A        234     234       0       0       0       0
   -------------------------------------------------------
    Total     234     234      20      20      20       0
   -------------------------------------------------------

 OEINTS: Overlap, kinetic, potential, dipole, and quadrupole integrals
         stored in file 35.

  ==> Integral Setup <==

  ==> DFJK: Density-Fitted J/K Matrices <==

    J tasked:                  Yes
    K tasked:                  Yes
    wK tasked:                  No
    OpenMP threads:              4
    Integrals threads:           4
    Memory (MB):              1430
    Algorithm:                Core
    Integral Cache:           NONE
    Schwarz Cutoff:          1E-12
    Fitting Condition:       1E-12

   => Auxiliary Basis Set <=

  Basis Set: 
    Number of shells: 185
    Number of basis function: 575
    Number of Cartesian functions: 690
    Spherical Harmonics?: true
    Max angular momentum: 4

  Minimum eigenvalue in the overlap matrix is 5.7770957093E-04.
  Using Symmetric Orthogonalization.
  SCF Guess: Core (One-Electron) Hamiltonian.

  ==> Iterations <==

                           Total Energy        Delta E     RMS |[F,P]|

   @DF-RHF iter   1:  -190.66028814342732   -1.90660e+02   5.97762e-02 
   @DF-RHF iter   2:  -195.42016785008715   -4.75988e+00   2.79747e-02 DIIS
   @DF-RHF iter   3:  -207.66870434235383   -1.22485e+01   3.90325e-02 DIIS
   @DF-RHF iter   4:  -239.66301936056320   -3.19943e+01   2.70581e-02 DIIS
   @DF-RHF iter   5:  -255.72199524807783   -1.60590e+01   1.76320e-02 DIIS
   @DF-RHF iter   6:  -262.86494660667029   -7.14295e+00   1.04031e-02 DIIS
   @DF-RHF iter   7:  -266.56016829319560   -3.69522e+00   3.52224e-03 DIIS
   @DF-RHF iter   8:  -266.87540021871234   -3.15232e-01   1.12694e-03 DIIS
   @DF-RHF iter   9:  -266.91046953378941   -3.50693e-02   3.42358e-04 DIIS
   @DF-RHF iter  10:  -266.91422924419339   -3.75971e-03   1.11745e-04 DIIS
   @DF-RHF iter  11:  -266.91474271023617   -5.13466e-04   4.92466e-05 DIIS
   @DF-RHF iter  12:  -266.91482356866356   -8.08584e-05   1.59232e-05 DIIS
   @DF-RHF iter  13:  -266.91484242269121   -1.88540e-05   6.75357e-06 DIIS
   @DF-RHF iter  14:  -266.91484518760114   -2.76491e-06   1.97268e-06 DIIS
   @DF-RHF iter  15:  -266.91484551016140   -3.22560e-07   6.24455e-07 DIIS
   @DF-RHF iter  16:  -266.91484553667578   -2.65144e-08   1.47154e-07 DIIS
   @DF-RHF iter  17:  -266.91484553833379   -1.65801e-09   3.75369e-08 DIIS
   @DF-RHF iter  18:  -266.91484553843259   -9.87939e-11   1.13881e-08 DIIS
   @DF-RHF iter  19:  -266.91484553843895   -6.36646e-12   2.79134e-09 DIIS

  ==> Post-Iterations <==

    Orbital Energies (a.u.)
    -----------------------

    Doubly Occupied:                                                      

       1A    -20.603871     2A    -20.532419     3A    -11.371243  
       4A    -11.296917     5A    -11.239385     6A     -1.473306  
       7A     -1.373192     8A     -1.026800     9A     -0.991332  
      10A     -0.786133    11A     -0.704124    12A     -0.702112  
      13A     -0.687268    14A     -0.606186    15A     -0.589308  
      16A     -0.564686    17A     -0.558843    18A     -0.533335  
      19A     -0.454755    20A     -0.438124  

    Virtual:                                                              

      21A      0.122561    22A      0.166809    23A      0.178256  
      24A      0.192649    25A      0.196322    26A      0.230207  
      27A      0.247822    28A      0.286470    29A      0.308215  
      30A      0.347929    31A      0.358427    32A      0.392720  
      33A      0.395035    34A      0.450714    35A      0.469440  
      36A      0.513665    37A      0.518842    38A      0.551604  
      39A      0.573359    40A      0.575188    41A      0.612709  
      42A      0.628717    43A      0.633660    44A      0.643692  
      45A      0.663455    46A      0.675947    47A      0.681975  
      48A      0.695375    49A      0.777585    50A      0.818415  
      51A      0.824162    52A      0.844845    53A      0.902643  
      54A      0.904833    55A      0.910404    56A      0.939368  
      57A      0.994719    58A      1.007896    59A      1.011274  
      60A      1.043647    61A      1.063540    62A      1.109862  
      63A      1.142328    64A      1.167882    65A      1.177342  
      66A      1.225262    67A      1.247206    68A      1.264089  
      69A      1.264518    70A      1.299059    71A      1.299494  
      72A      1.353536    73A      1.381855    74A      1.390498  
      75A      1.423920    76A      1.456219    77A      1.460199  
      78A      1.473531    79A      1.492435    80A      1.539382  
      81A      1.555687    82A      1.578641    83A      1.604069  
      84A      1.720572    85A      1.730047    86A      1.763661  
      87A      1.785273    88A      1.831075    89A      1.865657  
      90A      1.917639    91A      1.979690    92A      2.048021  
      93A      2.101160    94A      2.254065    95A      2.256862  
      96A      2.351340    97A      2.374035    98A      2.446028  
      99A      2.449832   100A      2.461148   101A      2.490647  
     102A      2.573859   103A      2.606165   104A      2.636980  
     105A      2.723789   106A      2.767499   107A      2.798216  
     108A      2.839671   109A      2.848418   110A      2.909640  
     111A      2.956697   112A      2.964722   113A      3.014568  
     114A      3.030930   115A      3.083692   116A      3.106144  
     117A      3.111718   118A      3.123674   119A      3.149377  
     120A      3.189029   121A      3.226060   122A      3.234485  
     123A      3.277708   124A      3.304892   125A      3.310765  
     126A      3.318013   127A      3.352888   128A      3.362019  
     129A      3.428933   130A      3.435491   131A      3.446015  
     132A      3.474506   133A      3.512089   134A      3.523297  
     135A      3.582576   136A      3.589537   137A      3.617187  
     138A      3.655033   139A      3.664919   140A      3.687852  
     141A      3.709703   142A      3.728128   143A      3.743668  
     144A      3.759144   145A      3.768234   146A      3.811650  
     147A      3.832017   148A      3.848195   149A      3.929805  
     150A      3.940943   151A      3.977015   152A      4.031208  
     153A      4.073477   154A      4.077029   155A      4.104845  
     156A      4.135740   157A      4.179959   158A      4.191923  
     159A      4.225341   160A      4.241822   161A      4.276219  
     162A      4.309530   163A      4.389240   164A      4.412665  
     165A      4.420854   166A      4.443024   167A      4.459249  
     168A      4.491488   169A      4.523927   170A      4.552047  
     171A      4.568679   172A      4.624287   173A      4.640322  
     174A      4.702805   175A      4.729159   176A      4.764291  
     177A      4.824227   178A      4.890704   179A      4.948430  
     180A      4.975500   181A      5.061009   182A      5.129811  
     183A      5.156258   184A      5.172799   185A      5.256567  
     186A      5.302013   187A      5.331773   188A      5.364565  
     189A      5.420990   190A      5.445991   191A      5.498730  
     192A      5.536007   193A      5.548010   194A      5.584236  
     195A      5.594910   196A      5.635732   197A      5.647387  
     198A      5.648693   199A      5.673275   200A      5.704791  
     201A      5.731406   202A      5.788731   203A      5.898026  
     204A      5.928241   205A      6.014092   206A      6.060942  
     207A      6.151670   208A      6.250223   209A      6.271638  
     210A      6.296796   211A      6.360871   212A      6.436525  
     213A      6.536739   214A      6.574480   215A      6.726036  
     216A      6.776043   217A      6.861225   218A      6.872068  
     219A      6.925866   220A      6.984620   221A      7.263191  
     222A      7.297417   223A      7.384954   224A      7.459635  
     225A      7.464010   226A      7.591249   227A      7.691458  
     228A      7.817684   229A      8.003245   230A      9.719389  
     231A     12.267718   232A     14.257300   233A     14.296004  
     234A     14.580496  

    Final Occupation by Irrep:
              A 
    DOCC [    20 ]

  Energy converged.

  @DF-RHF Final Energy:  -266.91484553843895

   => Energetics <=

    Nuclear Repulsion Energy =            185.6512674307337250
    One-Electron Energy =                -732.0655471403538286
    Two-Electron Energy =                 279.4994341711811217
    DFT Exchange-Correlation Energy =       0.0000000000000000
    Empirical Dispersion Energy =           0.0000000000000000
    PCM Polarization Energy =               0.0000000000000000
    EFP Energy =                            0.0000000000000000
    Total Energy =                       -266.9148455384390104

    Alert: EFP and PCM quantities not currently incorporated into SCF psivars.

Properties will be evaluated at   0.000000,   0.000000,   0.000000 Bohr
  ==> Properties <==


Properties computed using the SCF density matrix

  Nuclear Dipole Moment: (a.u.)
     X:    -3.5057      Y:    -6.6223      Z:     0.0041

  Electronic Dipole Moment: (a.u.)
     X:     2.8092      Y:     4.8202      Z:    -0.0030

  Dipole Moment: (a.u.)
     X:    -0.6965      Y:    -1.8020      Z:     0.0011     Total:     1.9319

  Dipole Moment: (Debye)
     X:    -1.7704      Y:    -4.5803      Z:     0.0028     Total:     4.9105


  Saving occupied orbitals to File 180.

*** tstop() called on cx1-27-3-2 at Fri Sep  9 21:10:39 2016
Module time:
	user time   =      18.10 seconds =       0.30 minutes
	system time =       0.28 seconds =       0.00 minutes
	total time  =          6 seconds =       0.10 minutes
Total time:
	user time   =      18.10 seconds =       0.30 minutes
	system time =       0.28 seconds =       0.00 minutes
	total time  =          6 seconds =       0.10 minutes

*** tstart() called on cx1-27-3-2
*** at Fri Sep  9 21:10:39 2016


         ------------------------------------------------------------
                                   SCF GRAD                          
                          Rob Parrish, Justin Turney,                
                       Andy Simmonett, and Alex Sokolov              
         ------------------------------------------------------------

  ==> Geometry <==

    Molecular point group: c1
    Full point group: C1

    Geometry (in Angstrom), charge = 0, multiplicity = 1:

       Center              X                  Y                   Z               Mass       
    ------------   -----------------  -----------------  -----------------  -----------------
           O          0.055643888183     1.723330748437    -0.001041662404    15.994914619560
           C         -0.098400111817     0.550236748437    -0.000356662404    12.000000000000
           C         -1.430416111817    -0.143585251563     0.000025337596    12.000000000000
           O          0.901074888183    -0.315361251563     0.000242337596    15.994914619560
           H         -1.509057111817    -0.778744251563    -0.872782662404     1.007825032070
           H         -2.219904111817     0.590062748437    -0.001511662404     1.007825032070
           H         -1.509901111817    -0.775821251563     0.874894337596     1.007825032070
           C          0.568075888183    -1.689470251563     0.001032337596    12.000000000000
           H         -0.005423111817    -1.941569251563     0.880562337596     1.007825032070
           H          1.504906888183    -2.222414251563     0.001573337596     1.007825032070
           H         -0.005072111817    -1.942708251563    -0.878396662404     1.007825032070

  Nuclear repulsion =  185.651267430733725

  ==> Basis Set <==

  Basis Set: CC-PVTZ
    Number of shells: 86
    Number of basis function: 234
    Number of Cartesian functions: 265
    Spherical Harmonics?: true
    Max angular momentum: 3

  ==> DFJKGrad: Density-Fitted SCF Gradients <==

    Gradient:                    1
    J tasked:                  Yes
    K tasked:                  Yes
    wK tasked:                  No
    OpenMP threads:              4
    Integrals threads:           4
    Memory (MB):              1430
    Schwarz Cutoff:          0E+00
    Fitting Condition:       1E-12

   => Auxiliary Basis Set <=

  Basis Set: 
    Number of shells: 185
    Number of basis function: 575
    Number of Cartesian functions: 690
    Spherical Harmonics?: true
    Max angular momentum: 4


  -Total Gradient:
     Atom            X                  Y                   Z
    ------   -----------------  -----------------  -----------------
       1       -0.005045561830     0.014507405334    -0.000008162533
       2        0.011196507150    -0.002655728458     0.000005283577
       3        0.016613749267    -0.014558895945     0.000019444218
       4       -0.007719187919     0.000235911647     0.000003687608
       5        0.005715760977    -0.004526751092    -0.001643024209
       6        0.000072102299     0.000286928997    -0.000004399821
       7        0.005682772738    -0.004490051162     0.001644402635
       8       -0.014846725399     0.001463618741    -0.000011517224
       9       -0.006180168706     0.004740299350     0.000572916419
      10        0.000711366413     0.000254200876    -0.000000556152
      11       -0.006200614987     0.004743061712    -0.000578074517


*** tstop() called on cx1-27-3-2 at Fri Sep  9 21:10:48 2016
Module time:
	user time   =      33.64 seconds =       0.56 minutes
	system time =       0.37 seconds =       0.01 minutes
	total time  =          9 seconds =       0.15 minutes
Total time:
	user time   =      51.77 seconds =       0.86 minutes
	system time =       0.65 seconds =       0.01 minutes
	total time  =         15 seconds =       0.25 minutes
CURRENT ENERGY: -266.9148455384

			-----------------------------------------
			 OPTKING 2.0: for geometry optimizations 
			  - R.A. King,  Bethel University        
			-----------------------------------------

	Internal coordinates to be generated automatically.
	Detected frag with atoms:  1 2 3 4 5 6 7 8 9 10 11
	---Fragment 1 Bond Connectivity---
	 1 : 2
	 2 : 1 3 4
	 3 : 2 5 6 7
	 4 : 2 8
	 5 : 3
	 6 : 3
	 7 : 3
	 8 : 4 9 10 11
	 9 : 8
	 10 : 8
	 11 : 8

	Assuming in current code that numbering for constraints corresponds to unified fragment.
	Frozen dihedral atom list: 
	     8     4     2     1
	---Fragment 1 Geometry and Gradient---
	 O           0.1051517096        3.2566231509       -0.0019684567
	 C          -0.1859492628        1.0397967628       -0.0006739943
	 C          -2.7030947074       -0.2713368022        0.0000478811
	 O           1.7027847639       -0.5959463984        0.0004579517
	 H          -2.8517046602       -1.4716133630       -1.6493202055
	 H          -4.1950108126        1.1150569958       -0.0028566279
	 H          -2.8532995891       -1.4660896935        1.6533106933
	 C           1.0735078514       -3.1926360851        0.0019508353
	 H          -0.0102481961       -3.6690341535        1.6640216610
	 H           2.8438618742       -4.1997542893        0.0029731772
	 H          -0.0095849022       -3.6711865516       -1.6599291280
	            -0.0050455618        0.0145074053       -0.0000081625
	             0.0111965071       -0.0026557285        0.0000052836
	             0.0166137493       -0.0145588959        0.0000194442
	            -0.0077191879        0.0002359116        0.0000036876
	             0.0057157610       -0.0045267511       -0.0016430242
	             0.0000721023        0.0002869290       -0.0000043998
	             0.0056827727       -0.0044900512        0.0016444026
	            -0.0148467254        0.0014636187       -0.0000115172
	            -0.0061801687        0.0047402994        0.0005729164
	             0.0007113664        0.0002542009       -0.0000005562
	            -0.0062006150        0.0047430617       -0.0005780745

	Previous optimization step data not found.  Starting new optimization.

	---Fragment 1 Intrafragment Coordinates---
	 - Coordinate -           - BOHR/RAD -       - ANG/DEG -
	 R(1,2)           =         2.235858	       1.183165
	 R(2,3)           =         2.838150	       1.501884
	 R(2,4)           =         2.498594	       1.322199
	 R(3,5)           =         2.045278	       1.082315
	 R(3,6)           =         2.036642	       1.077745
	 R(3,7)           =         2.045305	       1.082329
	 R(4,8)           =         2.671851	       1.413883
	 R(8,9)           =         2.040579	       1.079828
	 R(8,10)          =         2.036772	       1.077814
	 R(8,11)          =         2.040575	       1.079826
	 B(1,2,3)         =         2.181576	     124.995110
	 B(1,2,4)         =         2.153969	     123.413344
	 B(2,3,5)         =         1.912766	     109.593439
	 B(2,3,6)         =         1.912626	     109.585392
	 B(2,3,7)         =         1.912607	     109.584334
	 B(2,4,8)         =         2.046782	     117.271962
	 B(3,2,4)         =         1.947640	     111.591545
	 B(4,8,9)         =         1.930969	     110.636356
	 B(4,8,10)        =         1.850264	     106.012340
	 B(4,8,11)        =         1.931010	     110.638750
	 B(5,3,6)         =         1.923151	     110.188456
	 B(5,3,7)         =         1.879380	     107.680538
	 B(6,3,7)         =         1.923033	     110.181658
	 B(9,8,10)        =         1.923870	     110.229632
	 B(9,8,11)        =         1.903609	     109.068742
	 B(10,8,11)       =         1.923885	     110.230499
	 D(1,2,3,5)       =         2.113421	     121.090095
	 D(1,2,3,6)       =         0.001076	       0.061624
	 D(1,2,3,7)       =        -2.111023	    -120.952731
	*D(1,2,4,8)       =         3.141593	     180.000000
	 D(2,4,8,9)       =        -1.055717	     -60.488147
	 D(2,4,8,10)      =        -3.141452	    -179.991967
	 D(2,4,8,11)      =         1.055957	      60.501874
	 D(3,2,4,8)       =         0.000058	       0.003309
	 D(4,2,3,5)       =        -1.028231	     -58.913298
	 D(4,2,3,6)       =        -3.140576	    -179.941769
	 D(4,2,3,7)       =         1.030510	      59.043877

	Current energy   :      -266.9148455384

	Generating empirical Hessian (Schlegel '84) for each fragment.
	Taking RFO optimization step.
	Going to follow RFO solution 1.
	Using RFO vector 1.
	Norm of target step-size    0.44737
	Projected energy change by RFO approximation:        -0.0551620274

	Back-transformation to cartesian coordinates...
	Successfully converged to displaced geometry.

	Back-transformation to cartesian coordinates to adjust frozen coordinates...
	Successfully converged to displaced geometry.

	--- Internal Coordinate Step in ANG or DEG, aJ/ANG or AJ/DEG ---
	 ---------------------------------------------------------------------------
	   Coordinate                Previous        Force       Change         New 
	   ----------                --------       ------       ------       ------
	    1 R(1,2)          =      1.183165    -0.113093    -0.006058     1.177107
	    2 R(2,3)          =      1.501884     0.116572     0.019538     1.521422
	    3 R(2,4)          =      1.322199     0.274898     0.026147     1.348346
	    4 R(3,5)          =      1.082315    -0.029381    -0.004508     1.077806
	    5 R(3,6)          =      1.077745    -0.001174    -0.000178     1.077567
	    6 R(3,7)          =      1.082329    -0.029121    -0.004469     1.077860
	    7 R(4,8)          =      1.413883     0.038236     0.004958     1.418841
	    8 R(8,9)          =      1.079828    -0.021769    -0.003317     1.076511
	    9 R(8,10)         =      1.077814    -0.004059    -0.000615     1.077199
	   10 R(8,11)         =      1.079826    -0.021829    -0.003326     1.076500
	   11 B(1,2,3)        =    124.995110    -0.002397    -5.795630   119.199481
	   12 B(1,2,4)        =    123.413344    -0.003569    -8.630435   114.782910
	   13 B(2,3,5)        =    109.593439     0.000497     1.832531   111.425971
	   14 B(2,3,6)        =    109.585392    -0.000281    -1.303112   108.282280
	   15 B(2,3,7)        =    109.584334     0.000494     1.821163   111.405496
	   16 B(2,4,8)        =    117.271962     0.006918    16.727864   133.999825
	   17 B(3,2,4)        =    111.591545     0.005966    14.426063   126.017609
	   18 B(4,8,9)        =    110.636356     0.000538     1.972311   112.608668
	   19 B(4,8,10)       =    106.012340    -0.000337    -1.513066   104.499274
	   20 B(4,8,11)       =    110.638750     0.000537     1.971487   112.610237
	   21 B(5,3,6)        =    110.188456    -0.000316    -1.413882   108.774574
	   22 B(5,3,7)        =    107.680538    -0.000065     0.436624   108.117162
	   23 B(6,3,7)        =    110.181658    -0.000314    -1.409768   108.771889
	   24 B(9,8,10)       =    110.229632    -0.000428    -1.825924   108.403708
	   25 B(9,8,11)       =    109.068742     0.000102     0.948718   110.017460
	   26 B(10,8,11)      =    110.230499    -0.000429    -1.829147   108.401353
	   27 D(1,2,3,5)      =    121.090095    -0.000058    -1.444606   119.645489
	   28 D(1,2,3,6)      =      0.061624    -0.000000    -0.004466     0.057157
	   29 D(1,2,3,7)      =   -120.952731     0.000058     1.437199  -119.515531
	   30 *D(1,2,4,8)     =    180.000000     0.000000     0.000000   180.000000
	   31 D(2,4,8,9)      =    -60.488147    -0.000097    -2.046388   -62.534535
	   32 D(2,4,8,10)     =   -179.991967     0.000000     0.009995  -179.981972
	   33 D(2,4,8,11)     =     60.501874     0.000097     2.070738    62.572612
	   34 D(3,2,4,8)      =      0.003309     0.000000     0.008164     0.011473
	   35 D(4,2,3,5)      =    -58.913298    -0.000058    -1.453060   -60.366358
	   36 D(4,2,3,6)      =   -179.941769    -0.000000    -0.012920  -179.954689
	   37 D(4,2,3,7)      =     59.043877     0.000058     1.428745    60.472622
	 ---------------------------------------------------------------------------

  ==> Convergence Check <==

  Measures of convergence in internal coordinates in au.
  Criteria marked as inactive (o), active & met (*), and active & unmet ( ).
  --------------------------------------------------------------------------------------------- ~
   Step     Total Energy     Delta E     MAX Force     RMS Force      MAX Disp      RMS Disp    ~
  --------------------------------------------------------------------------------------------- ~
    Convergence Criteria    1.00e-06 *    3.00e-04 *             o    1.20e-03 *             o  ~
  --------------------------------------------------------------------------------------------- ~
      1    -266.91484554   -2.67e+02      9.09e-02      2.30e-02 o    2.92e-01      7.35e-02 o  ~
  ---------------------------------------------------------------------------------------------

	Writing optimization data to binary file.
	Structure for next step:
	Cartesian Geometry (in Angstrom)
	    O     0.0981879019   1.5554103999  -0.0010135884
	    C    -0.2341403846   0.4261903517  -0.0003722566
	    C    -1.7177518486   0.0891117994  -0.0000965573
	    O     0.7806542198  -0.4616322291   0.0002798037
	    H    -1.9917894790  -0.4825391788  -0.8717531241
	    H    -2.2740716650   1.0119639077  -0.0015909986
	    H    -1.9917704458  -0.4796658949   0.8735100654
	    C     0.8504049275  -1.8787569923   0.0011395669
	    H     0.4128543086  -2.3141077114   0.8831234433
	    H     1.9052930904  -2.0968575329   0.0017219891
	    H     0.4136568586  -2.3151612169  -0.8807076296
			--------------------------
			 OPTKING Finished Execution 
			--------------------------

    Structure for next step:
    Molecular point group: c1
    Full point group: C1

    Geometry (in Angstrom), charge = 0, multiplicity = 1:

    O            0.134848859747     1.630983255402    -0.001022362811
    C           -0.197479401411     0.501763293488    -0.000381031074
    C           -1.681090752053     0.164684766869    -0.000105331733
    O            0.817315125503    -0.386059219515     0.000271029178
    H           -1.955128361594    -0.406966167603    -0.871761831963
    H           -2.237410526010     1.087536804718    -0.001599772933
    H           -1.955109328300    -0.404092883995     0.873501224234
    C            0.887065827912    -1.803183874463     0.001130792302
    H            0.449515242421    -2.238534560356     0.883114601382
    H            1.941953910248    -2.021284398410     0.001713214448
    H            0.450317792410    -2.239588065794    -0.880716336782

gradient() will perform analytic gradient computation.

*** tstart() called on cx1-27-3-2
*** at Fri Sep  9 21:10:48 2016


         ---------------------------------------------------------
                                   SCF
            by Justin Turney, Rob Parrish, and Andy Simmonett
                              RHF Reference
                        4 Threads,   2000 MiB Core
         ---------------------------------------------------------

  ==> Geometry <==

    Molecular point group: c1
    Full point group: C1

    Geometry (in Angstrom), charge = 0, multiplicity = 1:

       Center              X                  Y                   Z               Mass       
    ------------   -----------------  -----------------  -----------------  -----------------
           O          0.134848859747     1.630983255402    -0.001022362811    15.994914619560
           C         -0.197479401411     0.501763293488    -0.000381031074    12.000000000000
           C         -1.681090752053     0.164684766869    -0.000105331733    12.000000000000
           O          0.817315125503    -0.386059219515     0.000271029178    15.994914619560
           H         -1.955128361594    -0.406966167603    -0.871761831963     1.007825032070
           H         -2.237410526010     1.087536804718    -0.001599772933     1.007825032070
           H         -1.955109328300    -0.404092883995     0.873501224234     1.007825032070
           C          0.887065827912    -1.803183874463     0.001130792302    12.000000000000
           H          0.449515242421    -2.238534560356     0.883114601382     1.007825032070
           H          1.941953910248    -2.021284398410     0.001713214448     1.007825032070
           H          0.450317792410    -2.239588065794    -0.880716336782     1.007825032070

  Running in c1 symmetry.

  Rotational constants: A =      0.30753  B =      0.13359  C =      0.09644 [cm^-1]
  Rotational constants: A =   9219.50793  B =   4004.92729  C =   2891.17857 [MHz]
  Nuclear repulsion =  179.808592356314534

  Charge       = 0
  Multiplicity = 1
  Electrons    = 40
  Nalpha       = 20
  Nbeta        = 20

  ==> Algorithm <==

  SCF Algorithm Type is DF.
  DIIS enabled.
  MOM disabled.
  Fractional occupation disabled.
  Guess Type is READ.
  Energy threshold   = 1.00e-08
  Density threshold  = 1.00e-08
  Integral threshold = 0.00e+00

  ==> Primary Basis <==

  Basis Set: CC-PVTZ
    Number of shells: 86
    Number of basis function: 234
    Number of Cartesian functions: 265
    Spherical Harmonics?: true
    Max angular momentum: 3

  ==> Pre-Iterations <==

   -------------------------------------------------------
    Irrep   Nso     Nmo     Nalpha   Nbeta   Ndocc  Nsocc
   -------------------------------------------------------
     A        234     234       0       0       0       0
   -------------------------------------------------------
    Total     234     234      20      20      20       0
   -------------------------------------------------------

 OEINTS: Overlap, kinetic, potential, dipole, and quadrupole integrals
         stored in file 35.

  ==> Integral Setup <==

  ==> DFJK: Density-Fitted J/K Matrices <==

    J tasked:                  Yes
    K tasked:                  Yes
    wK tasked:                  No
    OpenMP threads:              4
    Integrals threads:           4
    Memory (MB):              1430
    Algorithm:                Core
    Integral Cache:           NONE
    Schwarz Cutoff:          1E-12
    Fitting Condition:       1E-12

   => Auxiliary Basis Set <=

  Basis Set: 
    Number of shells: 185
    Number of basis function: 575
    Number of Cartesian functions: 690
    Spherical Harmonics?: true
    Max angular momentum: 4

  Minimum eigenvalue in the overlap matrix is 7.7650099378E-04.
  Using Symmetric Orthogonalization.
  SCF Guess: Reading in previously saved MOs, projecting if necessary.

  Using orbitals from previous SCF, no projection.
  Recomputing DOCC and SOCC from number of alpha and beta electrons from previous calculation.
              A 
    DOCC [    20 ]

  ==> Iterations <==

                           Total Energy        Delta E     RMS |[F,P]|

   @DF-RHF iter   0:  -266.73078576702648   -2.66731e+02   2.56248e-03 
   @DF-RHF iter   1:  -266.90207913439690   -1.71293e-01   5.25230e-04 
   @DF-RHF iter   2:  -266.91180375451563   -9.72462e-03   2.42803e-04 DIIS
   @DF-RHF iter   3:  -266.91328800747362   -1.48425e-03   8.97521e-05 DIIS
   @DF-RHF iter   4:  -266.91360927227811   -3.21265e-04   2.41709e-05 DIIS
   @DF-RHF iter   5:  -266.91362840808847   -1.91358e-05   5.89917e-06 DIIS
   @DF-RHF iter   6:  -266.91362995037730   -1.54229e-06   2.24491e-06 DIIS
   @DF-RHF iter   7:  -266.91363013721264   -1.86835e-07   8.10165e-07 DIIS
   @DF-RHF iter   8:  -266.91363016723119   -3.00186e-08   2.21826e-07 DIIS
   @DF-RHF iter   9:  -266.91363017121557   -3.98438e-09   8.39821e-08 DIIS
   @DF-RHF iter  10:  -266.91363017170636   -4.90786e-10   2.72244e-08 DIIS
   @DF-RHF iter  11:  -266.91363017175934   -5.29781e-11   8.55825e-09 DIIS

  ==> Post-Iterations <==

    Orbital Energies (a.u.)
    -----------------------

    Doubly Occupied:                                                      

       1A    -20.588528     2A    -20.523813     3A    -11.372203  
       4A    -11.295056     5A    -11.244193     6A     -1.456031  
       7A     -1.357192     8A     -1.019587     9A     -0.982922  
      10A     -0.779630    11A     -0.697363    12A     -0.676297  
      13A     -0.670189    14A     -0.606226    15A     -0.597032  
      16A     -0.581532    17A     -0.542898    18A     -0.499626  
      19A     -0.447566    20A     -0.436638  

    Virtual:                                                              

      21A      0.121399    22A      0.162872    23A      0.179144  
      24A      0.184883    25A      0.204981    26A      0.222064  
      27A      0.243613    28A      0.264980    29A      0.295855  
      30A      0.320175    31A      0.375783    32A      0.376928  
      33A      0.399943    34A      0.421522    35A      0.464059  
      36A      0.485986    37A      0.527180    38A      0.546364  
      39A      0.586729    40A      0.602527    41A      0.604088  
      42A      0.613391    43A      0.626835    44A      0.635776  
      45A      0.640122    46A      0.681779    47A      0.713151  
      48A      0.723950    49A      0.731924    50A      0.775031  
      51A      0.792977    52A      0.833827    53A      0.878100  
      54A      0.899696    55A      0.944113    56A      0.970633  
      57A      1.012673    58A      1.023797    59A      1.052856  
      60A      1.054558    61A      1.076998    62A      1.107216  
      63A      1.131848    64A      1.145925    65A      1.172222  
      66A      1.191377    67A      1.209706    68A      1.244347  
      69A      1.252371    70A      1.260337    71A      1.280538  
      72A      1.331538    73A      1.335088    74A      1.417724  
      75A      1.427530    76A      1.453667    77A      1.468591  
      78A      1.471033    79A      1.507668    80A      1.508551  
      81A      1.533867    82A      1.550489    83A      1.557158  
      84A      1.591062    85A      1.634238    86A      1.688391  
      87A      1.758539    88A      1.799404    89A      1.813803  
      90A      1.871671    91A      1.911034    92A      2.070595  
      93A      2.075477    94A      2.231702    95A      2.266135  
      96A      2.325309    97A      2.362096    98A      2.393139  
      99A      2.445055   100A      2.468796   101A      2.476574  
     102A      2.542397   103A      2.565679   104A      2.610088  
     105A      2.615053   106A      2.670988   107A      2.737355  
     108A      2.844064   109A      2.860222   110A      2.883068  
     111A      2.953033   112A      3.016453   113A      3.027282  
     114A      3.066667   115A      3.083506   116A      3.090818  
     117A      3.102458   118A      3.102702   119A      3.103332  
     120A      3.131245   121A      3.199380   122A      3.212135  
     123A      3.255456   124A      3.263963   125A      3.277882  
     126A      3.288762   127A      3.303830   128A      3.324324  
     129A      3.417524   130A      3.422699   131A      3.435699  
     132A      3.448172   133A      3.511591   134A      3.537976  
     135A      3.569732   136A      3.590997   137A      3.610732  
     138A      3.618210   139A      3.640012   140A      3.661000  
     141A      3.701525   142A      3.701938   143A      3.707758  
     144A      3.740461   145A      3.752777   146A      3.783358  
     147A      3.799547   148A      3.838331   149A      3.869513  
     150A      3.898810   151A      3.912011   152A      3.979438  
     153A      4.050082   154A      4.063830   155A      4.080125  
     156A      4.121388   157A      4.128003   158A      4.138460  
     159A      4.163437   160A      4.194559   161A      4.208416  
     162A      4.259049   163A      4.315502   164A      4.367785  
     165A      4.376059   166A      4.383087   167A      4.411775  
     168A      4.415243   169A      4.459045   170A      4.524033  
     171A      4.544343   172A      4.553474   173A      4.608726  
     174A      4.642692   175A      4.658145   176A      4.730925  
     177A      4.735715   178A      4.816363   179A      4.911080  
     180A      4.927534   181A      5.066678   182A      5.096265  
     183A      5.137973   184A      5.174204   185A      5.210776  
     186A      5.244109   187A      5.297234   188A      5.343537  
     189A      5.350225   190A      5.417288   191A      5.454888  
     192A      5.480663   193A      5.497929   194A      5.553748  
     195A      5.558309   196A      5.586133   197A      5.631131  
     198A      5.637147   199A      5.652563   200A      5.691229  
     201A      5.714252   202A      5.739132   203A      5.753805  
     204A      5.865676   205A      5.911262   206A      5.944489  
     207A      6.160004   208A      6.179055   209A      6.206330  
     210A      6.226104   211A      6.265825   212A      6.424526  
     213A      6.466619   214A      6.610890   215A      6.703204  
     216A      6.735881   217A      6.855081   218A      6.932226  
     219A      6.972222   220A      7.034722   221A      7.137236  
     222A      7.228039   223A      7.375392   224A      7.443142  
     225A      7.526350   226A      7.552013   227A      7.631649  
     228A      7.845707   229A      8.017441   230A      9.466427  
     231A     11.871327   232A     14.027687   233A     14.297788  
     234A     14.312085  

    Final Occupation by Irrep:
              A 
    DOCC [    20 ]

  Energy converged.

  @DF-RHF Final Energy:  -266.91363017175934

   => Energetics <=

    Nuclear Repulsion Energy =            179.8085923563145343
    One-Electron Energy =                -720.6953972719859394
    Two-Electron Energy =                 273.9731747439120113
    DFT Exchange-Correlation Energy =       0.0000000000000000
    Empirical Dispersion Energy =           0.0000000000000000
    PCM Polarization Energy =               0.0000000000000000
    EFP Energy =                            0.0000000000000000
    Total Energy =                       -266.9136301717593938

    Alert: EFP and PCM quantities not currently incorporated into SCF psivars.

Properties will be evaluated at   0.000000,   0.000000,   0.000000 Bohr
  ==> Properties <==


Properties computed using the SCF density matrix

  Nuclear Dipole Moment: (a.u.)
     X:    -3.0946      Y:    -5.8278      Z:     0.0040

  Electronic Dipole Moment: (a.u.)
     X:     2.3303      Y:     4.1567      Z:    -0.0030

  Dipole Moment: (a.u.)
     X:    -0.7642      Y:    -1.6711      Z:     0.0010     Total:     1.8376

  Dipole Moment: (Debye)
     X:    -1.9425      Y:    -4.2475      Z:     0.0026     Total:     4.6706


  Saving occupied orbitals to File 180.

*** tstop() called on cx1-27-3-2 at Fri Sep  9 21:10:54 2016
Module time:
	user time   =      16.96 seconds =       0.28 minutes
	system time =       0.28 seconds =       0.00 minutes
	total time  =          6 seconds =       0.10 minutes
Total time:
	user time   =      69.80 seconds =       1.16 minutes
	system time =       0.97 seconds =       0.02 minutes
	total time  =         21 seconds =       0.35 minutes

*** tstart() called on cx1-27-3-2
*** at Fri Sep  9 21:10:54 2016


         ------------------------------------------------------------
                                   SCF GRAD                          
                          Rob Parrish, Justin Turney,                
                       Andy Simmonett, and Alex Sokolov              
         ------------------------------------------------------------

  ==> Geometry <==

    Molecular point group: c1
    Full point group: C1

    Geometry (in Angstrom), charge = 0, multiplicity = 1:

       Center              X                  Y                   Z               Mass       
    ------------   -----------------  -----------------  -----------------  -----------------
           O          0.134848859747     1.630983255402    -0.001022362811    15.994914619560
           C         -0.197479401411     0.501763293488    -0.000381031074    12.000000000000
           C         -1.681090752053     0.164684766869    -0.000105331733    12.000000000000
           O          0.817315125503    -0.386059219515     0.000271029178    15.994914619560
           H         -1.955128361594    -0.406966167603    -0.871761831963     1.007825032070
           H         -2.237410526010     1.087536804718    -0.001599772933     1.007825032070
           H         -1.955109328300    -0.404092883995     0.873501224234     1.007825032070
           C          0.887065827912    -1.803183874463     0.001130792302    12.000000000000
           H          0.449515242421    -2.238534560356     0.883114601382     1.007825032070
           H          1.941953910248    -2.021284398410     0.001713214448     1.007825032070
           H          0.450317792410    -2.239588065794    -0.880716336782     1.007825032070

  Nuclear repulsion =  179.808592356314534

  ==> Basis Set <==

  Basis Set: CC-PVTZ
    Number of shells: 86
    Number of basis function: 234
    Number of Cartesian functions: 265
    Spherical Harmonics?: true
    Max angular momentum: 3

  ==> DFJKGrad: Density-Fitted SCF Gradients <==

    Gradient:                    1
    J tasked:                  Yes
    K tasked:                  Yes
    wK tasked:                  No
    OpenMP threads:              4
    Integrals threads:           4
    Memory (MB):              1430
    Schwarz Cutoff:          0E+00
    Fitting Condition:       1E-12

   => Auxiliary Basis Set <=

  Basis Set: 
    Number of shells: 185
    Number of basis function: 575
    Number of Cartesian functions: 690
    Spherical Harmonics?: true
    Max angular momentum: 4


  -Total Gradient:
     Atom            X                  Y                   Z
    ------   -----------------  -----------------  -----------------
       1        0.002007042431    -0.008976709788     0.000011629369
       2       -0.009951660589    -0.002063673256    -0.000006667782
       3       -0.010297769081     0.012185045309    -0.000029522197
       4        0.008277520410     0.005633904669     0.000003226521
       5       -0.000430665709     0.003989952396     0.003038346982
       6       -0.004145043769    -0.001003986168     0.000000000179
       7       -0.000430419928     0.003959785902    -0.003022888812
       8        0.006722571817    -0.012555543687    -0.000002865528
       9        0.004352475429    -0.000645679238    -0.003484179106
      10       -0.000461011623     0.000121357049    -0.000003081170
      11        0.004356960611    -0.000644453187     0.003496001543


*** tstop() called on cx1-27-3-2 at Fri Sep  9 21:11:03 2016
Module time:
	user time   =      33.18 seconds =       0.55 minutes
	system time =       0.31 seconds =       0.01 minutes
	total time  =          9 seconds =       0.15 minutes
Total time:
	user time   =     103.00 seconds =       1.72 minutes
	system time =       1.28 seconds =       0.02 minutes
	total time  =         30 seconds =       0.50 minutes
CURRENT ENERGY: -266.9136301718

			-----------------------------------------
			 OPTKING 2.0: for geometry optimizations 
			  - R.A. King,  Bethel University        
			-----------------------------------------

	Previous internal coordinate definitions found.
	---Fragment 1 Geometry and Gradient---
	 O           0.2548274143        3.0821116800       -0.0019319857
	 C          -0.3731819856        0.9481952082       -0.0007200444
	 C          -3.1768011259        0.3112091076       -0.0001990481
	 O           1.5445017515       -0.7295461960        0.0005121709
	 H          -3.6946571581       -0.7690546021       -1.6473911155
	 H          -4.2280931410        2.0551467204       -0.0030231327
	 H          -3.6946211903       -0.7636248830        1.6506780905
	 C           1.6763114766       -3.4075236900        0.0021368878
	 H           0.8494607007       -4.2302172581        1.6688447406
	 H           3.6697610531       -3.8196739497        0.0032375061
	 H           0.8509773004       -4.2322080948       -1.6643126773
	             0.0020070424       -0.0089767098        0.0000116294
	            -0.0099516606       -0.0020636733       -0.0000066678
	            -0.0102977691        0.0121850453       -0.0000295222
	             0.0082775204        0.0056339047        0.0000032265
	            -0.0004306657        0.0039899524        0.0030383470
	            -0.0041450438       -0.0010039862        0.0000000002
	            -0.0004304199        0.0039597859       -0.0030228888
	             0.0067225718       -0.0125555437       -0.0000028655
	             0.0043524754       -0.0006456792       -0.0034841791
	            -0.0004610116        0.0001213570       -0.0000030812
	             0.0043569606       -0.0006444532        0.0034960015

	---Fragment 1 Intrafragment Coordinates---
	 - Coordinate -           - BOHR/RAD -       - ANG/DEG -
	 R(1,2)           =         2.224409	       1.177107
	 R(2,3)           =         2.875071	       1.521422
	 R(2,4)           =         2.548005	       1.348346
	 R(3,5)           =         2.036759	       1.077806
	 R(3,6)           =         2.036306	       1.077567
	 R(3,7)           =         2.036861	       1.077860
	 R(4,8)           =         2.681220	       1.418841
	 R(8,9)           =         2.034311	       1.076511
	 R(8,10)          =         2.035611	       1.077199
	 R(8,11)          =         2.034290	       1.076500
	 B(1,2,3)         =         2.080423	     119.199481
	 B(1,2,4)         =         2.003340	     114.782910
	 B(2,3,5)         =         1.944750	     111.425971
	 B(2,3,6)         =         1.889882	     108.282280
	 B(2,3,7)         =         1.944393	     111.405496
	 B(2,4,8)         =         2.338738	     133.999825
	 B(3,2,4)         =         2.199422	     126.017609
	 B(4,8,9)         =         1.965392	     112.608668
	 B(4,8,10)        =         1.823856	     104.499274
	 B(4,8,11)        =         1.965419	     112.610237
	 B(5,3,6)         =         1.898474	     108.774574
	 B(5,3,7)         =         1.887000	     108.117162
	 B(6,3,7)         =         1.898428	     108.771889
	 B(9,8,10)        =         1.892002	     108.403708
	 B(9,8,11)        =         1.920167	     110.017460
	 B(10,8,11)       =         1.891961	     108.401353
	 D(1,2,3,5)       =         2.088208	     119.645489
	 D(1,2,3,6)       =         0.000998	       0.057157
	 D(1,2,3,7)       =        -2.085940	    -119.515531
	*D(1,2,4,8)       =         3.141593	     180.000000
	 D(2,4,8,9)       =        -1.091434	     -62.534535
	 D(2,4,8,10)      =        -3.141278	    -179.981972
	 D(2,4,8,11)      =         1.092098	      62.572612
	 D(3,2,4,8)       =         0.000200	       0.011473
	 D(4,2,3,5)       =        -1.053592	     -60.366358
	 D(4,2,3,6)       =        -3.140802	    -179.954689
	 D(4,2,3,7)       =         1.055446	      60.472622

	Current energy   :      -266.9136301718

	Energy change for the previous step:
		Projected    :        -0.0551620274
		Actual       :         0.0012153667

	Performing BFGS update.
	Previous computed or guess Hessian on step 1.
	Steps to be used in Hessian update: 1
	Taking RFO optimization step.
	Going to follow RFO solution 1.
	Using RFO vector 1.
	Norm of target step-size    0.15243
	Projected energy change by RFO approximation:        -0.0119951013

	Back-transformation to cartesian coordinates...
	Successfully converged to displaced geometry.

	Back-transformation to cartesian coordinates to adjust frozen coordinates...
	Successfully converged to displaced geometry.

	--- Internal Coordinate Step in ANG or DEG, aJ/ANG or AJ/DEG ---
	 ---------------------------------------------------------------------------
	   Coordinate                Previous        Force       Change         New 
	   ----------                --------       ------       ------       ------
	    1 R(1,2)          =      1.177107     0.066280     0.002303     1.179409
	    2 R(2,3)          =      1.521422    -0.088031    -0.009856     1.511566
	    3 R(2,4)          =      1.348346    -0.188045    -0.011727     1.336619
	    4 R(3,5)          =      1.077806     0.036777     0.003943     1.081749
	    5 R(3,6)          =      1.077567    -0.010547    -0.001203     1.076364
	    6 R(3,7)          =      1.077860     0.036499     0.003914     1.081774
	    7 R(4,8)          =      1.418841    -0.118998    -0.011044     1.407797
	    8 R(8,9)          =      1.076511     0.035942     0.003888     1.080400
	    9 R(8,10)         =      1.077199     0.003922     0.000406     1.077605
	   10 R(8,11)         =      1.076500     0.036005     0.003895     1.080395
	   11 B(1,2,3)        =    119.199481     0.001274     1.925353   121.124834
	   12 B(1,2,4)        =    114.782910     0.002029     3.116869   117.899778
	   13 B(2,3,5)        =    111.425971    -0.000066     0.054691   111.480661
	   14 B(2,3,6)        =    108.282280    -0.000366    -1.262261   107.020018
	   15 B(2,3,7)        =    111.405496    -0.000065     0.056659   111.462155
	   16 B(2,4,8)        =    133.999825    -0.003544    -5.305326   128.694499
	   17 B(3,2,4)        =    126.017609    -0.003303    -5.042222   120.975387
	   18 B(4,8,9)        =    112.608668    -0.000304    -0.692038   111.916629
	   19 B(4,8,10)       =    104.499274     0.000201     0.501052   105.000327
	   20 B(4,8,11)       =    112.610237    -0.000305    -0.694650   111.915587
	   21 B(5,3,6)        =    108.774574     0.000255     0.519311   109.293885
	   22 B(5,3,7)        =    108.117162     0.000007     0.140924   108.258085
	   23 B(6,3,7)        =    108.771889     0.000254     0.518657   109.290546
	   24 B(9,8,10)       =    108.403708     0.000196     0.445067   108.848775
	   25 B(9,8,11)       =    110.017460     0.000064     0.093684   110.111144
	   26 B(10,8,11)      =    108.401353     0.000196     0.445961   108.847313
	   27 D(1,2,3,5)      =    119.645489     0.000009    -0.137744   119.507745
	   28 D(1,2,3,6)      =      0.057157    -0.000000    -0.008525     0.048633
	   29 D(1,2,3,7)      =   -119.515531    -0.000009     0.119735  -119.395797
	   30 *D(1,2,4,8)     =    180.000000    -0.000000     0.000000   180.000000
	   31 D(2,4,8,9)      =    -62.534535     0.000046     0.494273   -62.040262
	   32 D(2,4,8,10)     =   -179.981972     0.000000     0.015618  -179.966353
	   33 D(2,4,8,11)     =     62.572612    -0.000046    -0.462772    62.109841
	   34 D(3,2,4,8)      =      0.011473    -0.000000     0.001307     0.012780
	   35 D(4,2,3,5)      =    -60.366358     0.000009    -0.138935   -60.505293
	   36 D(4,2,3,6)      =   -179.954689     0.000000    -0.009716  -179.964405
	   37 D(4,2,3,7)      =     60.472622    -0.000009     0.118543    60.591165
	 ---------------------------------------------------------------------------

  ==> Convergence Check <==

  Measures of convergence in internal coordinates in au.
  Criteria marked as inactive (o), active & met (*), and active & unmet ( ).
  ---------------------------------------------------------------------------------------------
   Step     Total Energy     Delta E     MAX Force     RMS Force      MAX Disp      RMS Disp   
  ---------------------------------------------------------------------------------------------
    Convergence Criteria    1.00e-06 *    3.00e-04 *             o    1.20e-03 *             o
  ---------------------------------------------------------------------------------------------
      2    -266.91363017    1.22e-03      4.66e-02      1.29e-02 o    9.26e-02      2.51e-02 o  ~
  ---------------------------------------------------------------------------------------------

	Writing optimization data to binary file.
	Structure for next step:
	Cartesian Geometry (in Angstrom)
	    O     0.1209731601   1.6942049240  -0.0012216229
	    C    -0.1493133986   0.5461844688  -0.0004846730
	    C    -1.5879014212   0.0821833501  -0.0000021951
	    O     0.8571766511  -0.3333202015   0.0001721533
	    H    -1.8128272760  -0.5118078852  -0.8756530051
	    H    -2.2036858202   0.9650010562  -0.0013281222
	    H    -1.8127859045  -0.5090832473   0.8775316102
	    C     0.7969095030  -1.7398262264   0.0010927290
	    H     0.3100705377  -2.1220230413   0.8866302542
	    H     1.8248999422  -2.0630404551   0.0019965280
	    H     0.3112821598  -2.1232142587  -0.8845894618
			--------------------------
			 OPTKING Finished Execution 
			--------------------------

    Structure for next step:
    Molecular point group: c1
    Full point group: C1

    Geometry (in Angstrom), charge = 0, multiplicity = 1:

    O            0.108111434861     1.666978242249    -0.001155545604
    C           -0.162175103270     0.518957874734    -0.000418595715
    C           -1.600763015953     0.054956791475     0.000063882070
    O            0.844314869575    -0.360546728383     0.000238230446
    H           -1.825688853591    -0.539034398457    -0.875586861029
    H           -2.216547367993     0.937774430152    -0.001262044944
    H           -1.825647482072    -0.536309760798     0.877597620414
    C            0.784047726078    -1.767052645842     0.001158806099
    H            0.297208798025    -2.149249431614     0.886696263706
    H            1.812038086777    -2.090266849908     0.002062605063
    H            0.298420419998    -2.150440648923    -0.884523317060

gradient() will perform analytic gradient computation.

*** tstart() called on cx1-27-3-2
*** at Fri Sep  9 21:11:03 2016


         ---------------------------------------------------------
                                   SCF
            by Justin Turney, Rob Parrish, and Andy Simmonett
                              RHF Reference
                        4 Threads,   2000 MiB Core
         ---------------------------------------------------------

  ==> Geometry <==

    Molecular point group: c1
    Full point group: C1

    Geometry (in Angstrom), charge = 0, multiplicity = 1:

       Center              X                  Y                   Z               Mass       
    ------------   -----------------  -----------------  -----------------  -----------------
           O          0.108111434861     1.666978242249    -0.001155545604    15.994914619560
           C         -0.162175103270     0.518957874734    -0.000418595715    12.000000000000
           C         -1.600763015953     0.054956791475     0.000063882070    12.000000000000
           O          0.844314869575    -0.360546728383     0.000238230446    15.994914619560
           H         -1.825688853591    -0.539034398457    -0.875586861029     1.007825032070
           H         -2.216547367993     0.937774430152    -0.001262044944     1.007825032070
           H         -1.825647482072    -0.536309760798     0.877597620414     1.007825032070
           C          0.784047726078    -1.767052645842     0.001158806099    12.000000000000
           H          0.297208798025    -2.149249431614     0.886696263706     1.007825032070
           H          1.812038086777    -2.090266849908     0.002062605063     1.007825032070
           H          0.298420419998    -2.150440648923    -0.884523317060     1.007825032070

  Running in c1 symmetry.

  Rotational constants: A =      0.30626  B =      0.14183  C =      0.10056 [cm^-1]
  Rotational constants: A =   9181.45118  B =   4251.98986  C =   3014.64948 [MHz]
  Nuclear repulsion =  181.668434140081246

  Charge       = 0
  Multiplicity = 1
  Electrons    = 40
  Nalpha       = 20
  Nbeta        = 20

  ==> Algorithm <==

  SCF Algorithm Type is DF.
  DIIS enabled.
  MOM disabled.
  Fractional occupation disabled.
  Guess Type is READ.
  Energy threshold   = 1.00e-08
  Density threshold  = 1.00e-08
  Integral threshold = 0.00e+00

  ==> Primary Basis <==

  Basis Set: CC-PVTZ
    Number of shells: 86
    Number of basis function: 234
    Number of Cartesian functions: 265
    Spherical Harmonics?: true
    Max angular momentum: 3

  ==> Pre-Iterations <==

   -------------------------------------------------------
    Irrep   Nso     Nmo     Nalpha   Nbeta   Ndocc  Nsocc
   -------------------------------------------------------
     A        234     234       0       0       0       0
   -------------------------------------------------------
    Total     234     234      20      20      20       0
   -------------------------------------------------------

 OEINTS: Overlap, kinetic, potential, dipole, and quadrupole integrals
         stored in file 35.

  ==> Integral Setup <==

  ==> DFJK: Density-Fitted J/K Matrices <==

    J tasked:                  Yes
    K tasked:                  Yes
    wK tasked:                  No
    OpenMP threads:              4
    Integrals threads:           4
    Memory (MB):              1430
    Algorithm:                Core
    Integral Cache:           NONE
    Schwarz Cutoff:          1E-12
    Fitting Condition:       1E-12

   => Auxiliary Basis Set <=

  Basis Set: 
    Number of shells: 185
    Number of basis function: 575
    Number of Cartesian functions: 690
    Spherical Harmonics?: true
    Max angular momentum: 4

  Minimum eigenvalue in the overlap matrix is 7.2130363101E-04.
  Using Symmetric Orthogonalization.
  SCF Guess: Reading in previously saved MOs, projecting if necessary.

  Using orbitals from previous SCF, no projection.
  Recomputing DOCC and SOCC from number of alpha and beta electrons from previous calculation.
              A 
    DOCC [    20 ]

  ==> Iterations <==

                           Total Energy        Delta E     RMS |[F,P]|

   @DF-RHF iter   0:  -266.92608067692856   -2.66926e+02   8.48093e-04 
   @DF-RHF iter   1:  -266.92166774133364    4.41294e-03   1.36068e-04 
   @DF-RHF iter   2:  -266.92246509288202   -7.97352e-04   5.43704e-05 DIIS
   @DF-RHF iter   3:  -266.92257083614243   -1.05743e-04   2.88877e-05 DIIS
   @DF-RHF iter   4:  -266.92259494596055   -2.41098e-05   3.39777e-06 DIIS
   @DF-RHF iter   5:  -266.92259565093502   -7.04974e-07   1.25826e-06 DIIS
   @DF-RHF iter   6:  -266.92259574371781   -9.27828e-08   4.33304e-07 DIIS
   @DF-RHF iter   7:  -266.92259575776745   -1.40496e-08   1.40311e-07 DIIS
   @DF-RHF iter   8:  -266.92259575959542   -1.82797e-09   6.89322e-08 DIIS
   @DF-RHF iter   9:  -266.92259575981200   -2.16573e-10   1.90127e-08 DIIS
   @DF-RHF iter  10:  -266.92259575983576   -2.37605e-11   8.23647e-09 DIIS

  ==> Post-Iterations <==

    Orbital Energies (a.u.)
    -----------------------

    Doubly Occupied:                                                      

       1A    -20.593519     2A    -20.527216     3A    -11.371678  
       4A    -11.296202     5A    -11.242812     6A     -1.462582  
       7A     -1.365115     8A     -1.022566     9A     -0.985478  
      10A     -0.783264    11A     -0.698786    12A     -0.684287  
      13A     -0.677293    14A     -0.603868    15A     -0.597826  
      16A     -0.581402    17A     -0.545056    18A     -0.509247  
      19A     -0.450450    20A     -0.438607  

    Virtual:                                                              

      21A      0.122631    22A      0.165370    23A      0.178192  
      24A      0.186090    25A      0.201364    26A      0.225962  
      27A      0.243583    28A      0.272219    29A      0.300818  
      30A      0.328788    31A      0.373392    32A      0.373786  
      33A      0.400791    34A      0.431589    35A      0.480977  
      36A      0.486573    37A      0.540015    38A      0.562791  
      39A      0.580571    40A      0.594911    41A      0.605654  
      42A      0.612062    43A      0.620280    44A      0.637395  
      45A      0.637539    46A      0.671972    47A      0.681881  
      48A      0.724476    49A      0.747828    50A      0.793851  
      51A      0.796121    52A      0.841984    53A      0.881214  
      54A      0.895818    55A      0.937718    56A      0.972601  
      57A      0.998711    58A      1.005580    59A      1.047872  
      60A      1.067791    61A      1.091207    62A      1.107596  
      63A      1.137753    64A      1.139888    65A      1.170535  
      66A      1.175034    67A      1.194401    68A      1.246162  
      69A      1.251944    70A      1.265064    71A      1.280863  
      72A      1.347516    73A      1.349554    74A      1.420113  
      75A      1.437527    76A      1.457909    77A      1.482813  
      78A      1.484577    79A      1.490138    80A      1.505019  
      81A      1.545903    82A      1.550957    83A      1.570777  
      84A      1.607873    85A      1.642681    86A      1.703085  
      87A      1.755153    88A      1.813416    89A      1.820410  
      90A      1.883120    91A      1.912439    92A      2.061652  
      93A      2.077177    94A      2.232599    95A      2.264585  
      96A      2.354552    97A      2.357973    98A      2.400926  
      99A      2.443188   100A      2.471279   101A      2.472257  
     102A      2.541062   103A      2.596655   104A      2.631825  
     105A      2.642530   106A      2.692842   107A      2.748093  
     108A      2.849670   109A      2.866570   110A      2.909080  
     111A      2.959397   112A      2.997370   113A      3.025714  
     114A      3.040025   115A      3.076278   116A      3.088379  
     117A      3.089629   118A      3.107975   119A      3.129053  
     120A      3.141409   121A      3.212151   122A      3.231468  
     123A      3.247883   124A      3.260746   125A      3.272971  
     126A      3.284170   127A      3.323130   128A      3.328761  
     129A      3.413263   130A      3.416521   131A      3.435536  
     132A      3.461718   133A      3.505190   134A      3.551440  
     135A      3.570425   136A      3.583185   137A      3.611924  
     138A      3.620822   139A      3.663257   140A      3.672776  
     141A      3.699808   142A      3.717740   143A      3.718100  
     144A      3.732333   145A      3.757969   146A      3.776938  
     147A      3.798626   148A      3.830640   149A      3.900297  
     150A      3.900596   151A      3.924665   152A      4.007417  
     153A      4.059272   154A      4.068993   155A      4.106907  
     156A      4.123441   157A      4.140628   158A      4.153861  
     159A      4.165668   160A      4.194810   161A      4.213668  
     162A      4.261179   163A      4.312190   164A      4.351574  
     165A      4.378160   166A      4.380154   167A      4.426120  
     168A      4.430035   169A      4.458574   170A      4.509638  
     171A      4.557034   172A      4.563504   173A      4.608010  
     174A      4.652496   175A      4.665694   176A      4.727225  
     177A      4.733507   178A      4.799121   179A      4.902542  
     180A      4.952344   181A      5.064804   182A      5.086048  
     183A      5.150906   184A      5.171228   185A      5.210148  
     186A      5.240461   187A      5.303030   188A      5.338922  
     189A      5.364902   190A      5.434175   191A      5.449662  
     192A      5.491623   193A      5.497842   194A      5.550664  
     195A      5.573832   196A      5.597830   197A      5.628703  
     198A      5.636991   199A      5.659128   200A      5.686774  
     201A      5.712053   202A      5.775491   203A      5.782241  
     204A      5.915373   205A      5.931679   206A      5.958390  
     207A      6.164652   208A      6.203108   209A      6.210591  
     210A      6.215753   211A      6.275483   212A      6.454604  
     213A      6.540353   214A      6.583102   215A      6.697738  
     216A      6.744232   217A      6.854500   218A      6.930239  
     219A      6.952032   220A      7.009956   221A      7.179850  
     222A      7.264118   223A      7.378078   224A      7.481834  
     225A      7.511890   226A      7.556703   227A      7.632647  
     228A      7.854573   229A      8.021534   230A      9.545745  
     231A     12.098467   232A     14.119659   233A     14.291259  
     234A     14.438629  

    Final Occupation by Irrep:
              A 
    DOCC [    20 ]

  Energy converged.

  @DF-RHF Final Energy:  -266.92259575983576

   => Energetics <=

    Nuclear Repulsion Energy =            181.6684341400812457
    One-Electron Energy =                -724.3075525529916376
    Two-Electron Energy =                 275.7165226530746622
    DFT Exchange-Correlation Energy =       0.0000000000000000
    Empirical Dispersion Energy =           0.0000000000000000
    PCM Polarization Energy =               0.0000000000000000
    EFP Energy =                            0.0000000000000000
    Total Energy =                       -266.9225957598357581

    Alert: EFP and PCM quantities not currently incorporated into SCF psivars.

Properties will be evaluated at   0.000000,   0.000000,   0.000000 Bohr
  ==> Properties <==


Properties computed using the SCF density matrix

  Nuclear Dipole Moment: (a.u.)
     X:    -3.2393      Y:    -6.1131      Z:     0.0047

  Electronic Dipole Moment: (a.u.)
     X:     2.5070      Y:     4.4013      Z:    -0.0035

  Dipole Moment: (a.u.)
     X:    -0.7323      Y:    -1.7118      Z:     0.0012     Total:     1.8618

  Dipole Moment: (Debye)
     X:    -1.8613      Y:    -4.3509      Z:     0.0030     Total:     4.7323


  Saving occupied orbitals to File 180.

*** tstop() called on cx1-27-3-2 at Fri Sep  9 21:11:08 2016
Module time:
	user time   =      14.76 seconds =       0.25 minutes
	system time =       0.23 seconds =       0.00 minutes
	total time  =          5 seconds =       0.08 minutes
Total time:
	user time   =     118.16 seconds =       1.97 minutes
	system time =       1.52 seconds =       0.03 minutes
	total time  =         35 seconds =       0.58 minutes

*** tstart() called on cx1-27-3-2
*** at Fri Sep  9 21:11:08 2016


         ------------------------------------------------------------
                                   SCF GRAD                          
                          Rob Parrish, Justin Turney,                
                       Andy Simmonett, and Alex Sokolov              
         ------------------------------------------------------------

  ==> Geometry <==

    Molecular point group: c1
    Full point group: C1

    Geometry (in Angstrom), charge = 0, multiplicity = 1:

       Center              X                  Y                   Z               Mass       
    ------------   -----------------  -----------------  -----------------  -----------------
           O          0.108111434861     1.666978242249    -0.001155545604    15.994914619560
           C         -0.162175103270     0.518957874734    -0.000418595715    12.000000000000
           C         -1.600763015953     0.054956791475     0.000063882070    12.000000000000
           O          0.844314869575    -0.360546728383     0.000238230446    15.994914619560
           H         -1.825688853591    -0.539034398457    -0.875586861029     1.007825032070
           H         -2.216547367993     0.937774430152    -0.001262044944     1.007825032070
           H         -1.825647482072    -0.536309760798     0.877597620414     1.007825032070
           C          0.784047726078    -1.767052645842     0.001158806099    12.000000000000
           H          0.297208798025    -2.149249431614     0.886696263706     1.007825032070
           H          1.812038086777    -2.090266849908     0.002062605063     1.007825032070
           H          0.298420419998    -2.150440648923    -0.884523317060     1.007825032070

  Nuclear repulsion =  181.668434140081246

  ==> Basis Set <==

  Basis Set: CC-PVTZ
    Number of shells: 86
    Number of basis function: 234
    Number of Cartesian functions: 265
    Spherical Harmonics?: true
    Max angular momentum: 3

  ==> DFJKGrad: Density-Fitted SCF Gradients <==

    Gradient:                    1
    J tasked:                  Yes
    K tasked:                  Yes
    wK tasked:                  No
    OpenMP threads:              4
    Integrals threads:           4
    Memory (MB):              1430
    Schwarz Cutoff:          0E+00
    Fitting Condition:       1E-12

   => Auxiliary Basis Set <=

  Basis Set: 
    Number of shells: 185
    Number of basis function: 575
    Number of Cartesian functions: 690
    Spherical Harmonics?: true
    Max angular momentum: 4


  -Total Gradient:
     Atom            X                  Y                   Z
    ------   -----------------  -----------------  -----------------
       1       -0.000172242409     0.000314593760     0.000008632563
       2       -0.003541291523     0.001378256512    -0.000016204204
       3       -0.004231733852     0.004145612712    -0.000009355569
       4        0.000118953945    -0.003904701294     0.000008298312
       5       -0.001018971045     0.001580166345     0.000641880049
       6        0.000484037548     0.000043366235    -0.000000341160
       7       -0.001012781386     0.001572105961    -0.000635381150
       8        0.005141099598    -0.006047015503    -0.000000819480
       9        0.001980496708    -0.000009179824    -0.000856316536
      10        0.000268969981     0.000936866188    -0.000002238221
      11        0.001983462436    -0.000010071095     0.000861845395


*** tstop() called on cx1-27-3-2 at Fri Sep  9 21:11:16 2016
Module time:
	user time   =      33.22 seconds =       0.55 minutes
	system time =       0.32 seconds =       0.01 minutes
	total time  =          8 seconds =       0.13 minutes
Total time:
	user time   =     151.39 seconds =       2.52 minutes
	system time =       1.84 seconds =       0.03 minutes
	total time  =         43 seconds =       0.72 minutes
CURRENT ENERGY: -266.9225957598

			-----------------------------------------
			 OPTKING 2.0: for geometry optimizations 
			  - R.A. King,  Bethel University        
			-----------------------------------------

	Previous internal coordinate definitions found.
	---Fragment 1 Geometry and Gradient---
	 O           0.2043010037        3.1501323473       -0.0021836647
	 C          -0.3064665308        0.9806882578       -0.0007910313
	 C          -3.0250037038        0.1038532850        0.0001207196
	 O           1.5955238734       -0.6813345748        0.0004501903
	 H          -3.4500519371       -1.0186273893       -1.6546193729
	 H          -4.1886674861        1.7721368474       -0.0023849193
	 H          -3.4499737563       -1.0134785703        1.6584191575
	 C           1.4816354774       -3.3392455630        0.0021898262
	 H           0.5616432326       -4.0614928170        1.6756131015
	 H           3.4242557264       -3.9500318910        0.0038977587
	 H           0.5639328663       -4.0637438915       -1.6715068274
	            -0.0001722424        0.0003145938        0.0000086326
	            -0.0035412915        0.0013782565       -0.0000162042
	            -0.0042317339        0.0041456127       -0.0000093556
	             0.0001189539       -0.0039047013        0.0000082983
	            -0.0010189710        0.0015801663        0.0006418800
	             0.0004840375        0.0000433662       -0.0000003412
	            -0.0010127814        0.0015721060       -0.0006353811
	             0.0051410996       -0.0060470155       -0.0000008195
	             0.0019804967       -0.0000091798       -0.0008563165
	             0.0002689700        0.0009368662       -0.0000022382
	             0.0019834624       -0.0000100711        0.0008618454

	---Fragment 1 Intrafragment Coordinates---
	 - Coordinate -           - BOHR/RAD -       - ANG/DEG -
	 R(1,2)           =         2.228760	       1.179409
	 R(2,3)           =         2.856446	       1.511566
	 R(2,4)           =         2.525844	       1.336619
	 R(3,5)           =         2.044210	       1.081749
	 R(3,6)           =         2.034033	       1.076364
	 R(3,7)           =         2.044256	       1.081774
	 R(4,8)           =         2.660350	       1.407797
	 R(8,9)           =         2.041659	       1.080400
	 R(8,10)          =         2.036378	       1.077605
	 R(8,11)          =         2.041650	       1.080395
	 B(1,2,3)         =         2.114027	     121.124834
	 B(1,2,4)         =         2.057739	     117.899778
	 B(2,3,5)         =         1.945705	     111.480661
	 B(2,3,6)         =         1.867852	     107.020018
	 B(2,3,7)         =         1.945382	     111.462155
	 B(2,4,8)         =         2.246143	     128.694499
	 B(3,2,4)         =         2.111419	     120.975387
	 B(4,8,9)         =         1.953314	     111.916629
	 B(4,8,10)        =         1.832601	     105.000327
	 B(4,8,11)        =         1.953295	     111.915587
	 B(5,3,6)         =         1.907538	     109.293885
	 B(5,3,7)         =         1.889460	     108.258085
	 B(6,3,7)         =         1.907480	     109.290546
	 B(9,8,10)        =         1.899770	     108.848775
	 B(9,8,11)        =         1.921802	     110.111144
	 B(10,8,11)       =         1.899744	     108.847313
	 D(1,2,3,5)       =         2.085804	     119.507745
	 D(1,2,3,6)       =         0.000849	       0.048633
	 D(1,2,3,7)       =        -2.083850	    -119.395797
	*D(1,2,4,8)       =         3.141593	     180.000000
	 D(2,4,8,9)       =        -1.082807	     -62.040262
	 D(2,4,8,10)      =        -3.141005	    -179.966353
	 D(2,4,8,11)      =         1.084021	      62.109841
	 D(3,2,4,8)       =         0.000223	       0.012780
	 D(4,2,3,5)       =        -1.056017	     -60.505293
	 D(4,2,3,6)       =        -3.140971	    -179.964405
	 D(4,2,3,7)       =         1.057515	      60.591165

	Current energy   :      -266.9225957598

	Energy change for the previous step:
		Projected    :        -0.0119951013
		Actual       :        -0.0089655881

	Performing BFGS update.
	Previous computed or guess Hessian on step 1.
	Steps to be used in Hessian update: 2 1
	Taking RFO optimization step.
	Going to follow RFO solution 1.
	Using RFO vector 1.
	Norm of target step-size    0.06982
	Projected energy change by RFO approximation:        -0.0025370647

	Back-transformation to cartesian coordinates...
	Successfully converged to displaced geometry.

	Back-transformation to cartesian coordinates to adjust frozen coordinates...
	Successfully converged to displaced geometry.

	--- Internal Coordinate Step in ANG or DEG, aJ/ANG or AJ/DEG ---
	 ---------------------------------------------------------------------------
	   Coordinate                Previous        Force       Change         New 
	   ----------                --------       ------       ------       ------
	    1 R(1,2)          =      1.179409    -0.002198    -0.000689     1.178720
	    2 R(2,3)          =      1.511566    -0.026750    -0.001260     1.510306
	    3 R(2,4)          =      1.336619    -0.107868    -0.005695     1.330925
	    4 R(3,5)          =      1.081749     0.009684     0.000434     1.082183
	    5 R(3,6)          =      1.076364     0.001988     0.000459     1.076823
	    6 R(3,7)          =      1.081774     0.009591     0.000428     1.082202
	    7 R(4,8)          =      1.407797    -0.038915    -0.002411     1.405386
	    8 R(8,9)          =      1.080400     0.013108     0.000981     1.081381
	    9 R(8,10)         =      1.077605     0.000201    -0.000076     1.077529
	   10 R(8,11)         =      1.080395     0.013137     0.000983     1.081378
	   11 B(1,2,3)        =    121.124834     0.000762     1.015567   122.140401
	   12 B(1,2,4)        =    117.899778     0.000721     0.506750   118.406529
	   13 B(2,3,5)        =    111.480661    -0.000120    -0.294854   111.185807
	   14 B(2,3,6)        =    107.020018     0.000121     0.605648   107.625666
	   15 B(2,3,7)        =    111.462155    -0.000118    -0.291563   111.170592
	   16 B(2,4,8)        =    128.694499    -0.002311    -3.234216   125.460284
	   17 B(3,2,4)        =    120.975387    -0.001483    -1.522316   119.453071
	   18 B(4,8,9)        =    111.916629    -0.000101    -0.090255   111.826374
	   19 B(4,8,10)       =    105.000327     0.000194     0.552733   105.553060
	   20 B(4,8,11)       =    111.915587    -0.000102    -0.091335   111.824252
	   21 B(5,3,6)        =    109.293885     0.000055     0.061792   109.355676
	   22 B(5,3,7)        =    108.258085     0.000014    -0.130124   108.127961
	   23 B(6,3,7)        =    109.290546     0.000055     0.061882   109.352428
	   24 B(9,8,10)       =    108.848775     0.000043    -0.019178   108.829597
	   25 B(9,8,11)       =    110.111144    -0.000057    -0.294181   109.816964
	   26 B(10,8,11)      =    108.847313     0.000043    -0.018536   108.828777
	   27 D(1,2,3,5)      =    119.507745     0.000017     0.264827   119.772572
	   28 D(1,2,3,6)      =      0.048633    -0.000000    -0.018763     0.029870
	   29 D(1,2,3,7)      =   -119.395797    -0.000017    -0.304129  -119.699925
	   30 *D(1,2,4,8)     =    180.000000    -0.000000     0.000000   180.000000
	   31 D(2,4,8,9)      =    -62.040262     0.000026     0.284231   -61.756031
	   32 D(2,4,8,10)     =   -179.966353     0.000000     0.022558  -179.943795
	   33 D(2,4,8,11)     =     62.109841    -0.000026    -0.239290    61.870550
	   34 D(3,2,4,8)      =      0.012780    -0.000000    -0.011655     0.001125
	   35 D(4,2,3,5)      =    -60.505293     0.000017     0.276760   -60.228533
	   36 D(4,2,3,6)      =   -179.964405     0.000000    -0.006829  -179.971235
	   37 D(4,2,3,7)      =     60.591165    -0.000017    -0.292195    60.298970
	 ---------------------------------------------------------------------------

  ==> Convergence Check <==

[...]
     213A      6.548461   214A      6.575957   215A      6.711252  
     216A      6.755180   217A      6.855090   218A      6.925146  
     219A      6.929263   220A      7.002234   221A      7.218961  
     222A      7.285900   223A      7.379867   224A      7.485490  
     225A      7.493070   226A      7.573768   227A      7.644346  
     228A      7.842580   229A      8.010500   230A      9.592569  
     231A     12.217874   232A     14.175632   233A     14.315846  
     234A     14.472828  

    Final Occupation by Irrep:
              A 
    DOCC [    20 ]

  Energy converged.

  @DF-RHF Final Energy:  -266.92527911163847

   => Energetics <=

    Nuclear Repulsion Energy =            183.3012636733071758
    One-Electron Energy =                -727.4892916368080478
    Two-Electron Energy =                 277.2627488518623977
    DFT Exchange-Correlation Energy =       0.0000000000000000
    Empirical Dispersion Energy =           0.0000000000000000
    PCM Polarization Energy =               0.0000000000000000
    EFP Energy =                            0.0000000000000000
    Total Energy =                       -266.9252791116384742

    Alert: EFP and PCM quantities not currently incorporated into SCF psivars.

Properties will be evaluated at   0.000000,   0.000000,   0.000000 Bohr
  ==> Properties <==


Properties computed using the SCF density matrix

  Nuclear Dipole Moment: (a.u.)
     X:    -3.3997      Y:    -6.3300      Z:     0.0044

  Electronic Dipole Moment: (a.u.)
     X:     2.6650      Y:     4.5965      Z:    -0.0030

  Dipole Moment: (a.u.)
     X:    -0.7347      Y:    -1.7335      Z:     0.0014     Total:     1.8828

  Dipole Moment: (Debye)
     X:    -1.8674      Y:    -4.4061      Z:     0.0036     Total:     4.7855


  Saving occupied orbitals to File 180.

*** tstop() called on cx1-27-3-2 at Fri Sep  9 21:12:33 2016
Module time:
	user time   =      15.61 seconds =       0.26 minutes
	system time =       0.21 seconds =       0.00 minutes
	total time  =          5 seconds =       0.08 minutes
Total time:
	user time   =     416.57 seconds =       6.94 minutes
	system time =       4.89 seconds =       0.08 minutes
	total time  =        120 seconds =       2.00 minutes

*** tstart() called on cx1-27-3-2
*** at Fri Sep  9 21:12:33 2016


         ------------------------------------------------------------
                                   SCF GRAD                          
                          Rob Parrish, Justin Turney,                
                       Andy Simmonett, and Alex Sokolov              
         ------------------------------------------------------------

  ==> Geometry <==

    Molecular point group: c1
    Full point group: C1

    Geometry (in Angstrom), charge = 0, multiplicity = 1:

       Center              X                  Y                   Z               Mass       
    ------------   -----------------  -----------------  -----------------  -----------------
           O          0.090165918329     1.682711046932    -0.001203665901    15.994914619560
           C         -0.137619136923     0.526388493402    -0.000239813984    12.000000000000
           C         -1.541254990940    -0.027291877405    -0.000101365482    12.000000000000
           O          0.876103262710    -0.334790780809     0.000173914913    15.994914619560
           H         -1.715556083470    -0.640651508349    -0.874924664327     1.007825032070
           H         -2.226843402662     0.803097472788    -0.001152670054     1.007825032070
           H         -1.715993700122    -0.638749465107     0.875971261996     1.007825032070
           C          0.695912263916    -1.728086292586     0.001317643404    12.000000000000
           H          0.170829258098    -2.063505857368     0.885820119483     1.007825032070
           H          1.685663651757    -2.154400536360     0.001448489637     1.007825032070
           H          0.170465685659    -2.064893357444    -0.882446230109     1.007825032070

  Nuclear repulsion =  183.301263673307176

  ==> Basis Set <==

  Basis Set: CC-PVTZ
    Number of shells: 86
    Number of basis function: 234
    Number of Cartesian functions: 265
    Spherical Harmonics?: true
    Max angular momentum: 3

  ==> DFJKGrad: Density-Fitted SCF Gradients <==

    Gradient:                    1
    J tasked:                  Yes
    K tasked:                  Yes
    wK tasked:                  No
    OpenMP threads:              4
    Integrals threads:           4
    Memory (MB):              1430
    Schwarz Cutoff:          0E+00
    Fitting Condition:       1E-12

   => Auxiliary Basis Set <=

  Basis Set: 
    Number of shells: 185
    Number of basis function: 575
    Number of Cartesian functions: 690
    Spherical Harmonics?: true
    Max angular momentum: 4


  -Total Gradient:
     Atom            X                  Y                   Z
    ------   -----------------  -----------------  -----------------
       1       -0.000000941467     0.000048801626    -0.000032408377
       2        0.000107557961    -0.000127573976     0.000092758242
       3       -0.000016748992     0.000021277055    -0.000032249065
       4       -0.000106474840     0.000013511257    -0.000025972687
       5       -0.000006651665    -0.000002688247    -0.000001113376
       6       -0.000001455192    -0.000002508717    -0.000001331046
       7        0.000005263721     0.000005943054     0.000001485025
       8        0.000013077869     0.000025245906     0.000003495781
       9        0.000008031151    -0.000002949058    -0.000007020878
      10       -0.000005280640     0.000022409904    -0.000000564242
      11        0.000003622095    -0.000001468801     0.000002920623


*** tstop() called on cx1-27-3-2 at Fri Sep  9 21:12:42 2016
Module time:
	user time   =      33.98 seconds =       0.57 minutes
	system time =       0.36 seconds =       0.01 minutes
	total time  =          9 seconds =       0.15 minutes
Total time:
	user time   =     450.57 seconds =       7.51 minutes
	system time =       5.25 seconds =       0.09 minutes
	total time  =        129 seconds =       2.15 minutes
CURRENT ENERGY: -266.9252791116

			-----------------------------------------
			 OPTKING 2.0: for geometry optimizations 
			  - R.A. King,  Bethel University        
			-----------------------------------------

	Previous internal coordinate definitions found.
	---Fragment 1 Geometry and Gradient---
	 O           0.1703888922        3.1798630395       -0.0022745989
	 C          -0.2600624794        0.9947300920       -0.0004531828
	 C          -2.9125498338       -0.0515741739       -0.0001915530
	 O           1.6555952306       -0.6326628875        0.0003286516
	 H          -3.2419311634       -1.2106558974       -1.6533680025
	 H          -4.2081241719        1.5176342816       -0.0021782307
	 H          -3.2427581390       -1.2070615566        1.6553457855
	 C           1.3150835913       -3.2656098270        0.0024899852
	 H           0.3228205133       -3.8994609440        1.6739574288
	 H           3.1854426540       -4.0712269943        0.0027372487
	 H           0.3221334609       -3.9020829392       -1.6675817019
	            -0.0000009415        0.0000488016       -0.0000324084
	             0.0001075580       -0.0001275740        0.0000927582
	            -0.0000167490        0.0000212771       -0.0000322491
	            -0.0001064748        0.0000135113       -0.0000259727
	            -0.0000066517       -0.0000026882       -0.0000011134
	            -0.0000014552       -0.0000025087       -0.0000013310
	             0.0000052637        0.0000059431        0.0000014850
	             0.0000130779        0.0000252459        0.0000034958
	             0.0000080312       -0.0000029491       -0.0000070209
	            -0.0000052806        0.0000224099       -0.0000005642
	             0.0000036221       -0.0000014688        0.0000029206

	---Fragment 1 Intrafragment Coordinates---
	 - Coordinate -           - BOHR/RAD -       - ANG/DEG -
	 R(1,2)           =         2.227128	       1.178545
	 R(2,3)           =         2.851393	       1.508892
	 R(2,4)           =         2.513594	       1.330137
	 R(3,5)           =         2.045716	       1.082546
	 R(3,6)           =         2.034928	       1.076838
	 R(3,7)           =         2.045725	       1.082551
	 R(4,8)           =         2.654875	       1.404900
	 R(8,9)           =         2.044543	       1.081926
	 R(8,10)          =         2.036483	       1.077660
	 R(8,11)          =         2.044551	       1.081930
	 B(1,2,3)         =         2.141020	     122.671381
	 B(1,2,4)         =         2.080512	     119.204570
	 B(2,3,5)         =         1.936506	     110.953595
	 B(2,3,6)         =         1.885244	     108.016516
	 B(2,3,7)         =         1.936375	     110.946117
	 B(2,4,8)         =         2.146399	     122.979629
	 B(3,2,4)         =         2.061653	     118.124042
	 B(4,8,9)         =         1.950207	     111.738610
	 B(4,8,10)        =         1.848896	     105.933927
	 B(4,8,11)        =         1.950188	     111.737564
	 B(5,3,6)         =         1.910936	     109.488595
	 B(5,3,7)         =         1.883850	     107.936651
	 B(6,3,7)         =         1.910900	     109.486484
	 B(9,8,10)        =         1.899685	     108.843955
	 B(9,8,11)        =         1.913015	     109.607686
	 B(10,8,11)       =         1.899684	     108.843868
	 D(1,2,3,5)       =         2.094780	     120.022035
	 D(1,2,3,6)       =         0.000144	       0.008237
	 D(1,2,3,7)       =        -2.094369	    -119.998512
	*D(1,2,4,8)       =         3.141593	     180.000000
	 D(2,4,8,9)       =        -1.075269	     -61.608373
	 D(2,4,8,10)      =        -3.141541	    -179.997059
	 D(2,4,8,11)      =         1.075383	      61.614924
	 D(3,2,4,8)       =        -0.000498	      -0.028554
	 D(4,2,3,5)       =        -1.046302	     -59.948687
	 D(4,2,3,6)       =        -3.140938	    -179.962486
	 D(4,2,3,7)       =         1.047735	      60.030765

	Current energy   :      -266.9252791116

	Energy change for the previous step:
		Projected    :        -0.0000616505
		Actual       :        -0.0000282244

	Performing BFGS update.
	Previous computed or guess Hessian on step 1.
	Steps to be used in Hessian update: 8 7
	Taking RFO optimization step.
	Going to follow RFO solution 1.
	Using RFO vector 1.
	Norm of target step-size    0.00116
	Projected energy change by RFO approximation:         0.0000000193

	Back-transformation to cartesian coordinates...
	Successfully converged to displaced geometry.

	Back-transformation to cartesian coordinates to adjust frozen coordinates...
	Successfully converged to displaced geometry.

	--- Internal Coordinate Step in ANG or DEG, aJ/ANG or AJ/DEG ---
	 ---------------------------------------------------------------------------
	   Coordinate                Previous        Force       Change         New 
	   ----------                --------       ------       ------       ------
	    1 R(1,2)          =      1.178545    -0.000393    -0.000024     1.178521
	    2 R(2,3)          =      1.508892    -0.000084    -0.000014     1.508879
	    3 R(2,4)          =      1.330137     0.000849     0.000115     1.330251
	    4 R(3,5)          =      1.082546    -0.000029    -0.000004     1.082542
	    5 R(3,6)          =      1.076838     0.000008     0.000002     1.076839
	    6 R(3,7)          =      1.082551     0.000025    -0.000002     1.082549
	    7 R(4,8)          =      1.404900     0.000374     0.000071     1.404971
	    8 R(8,9)          =      1.081926     0.000072     0.000009     1.081935
	    9 R(8,10)         =      1.077660     0.000113     0.000022     1.077683
	   10 R(8,11)         =      1.081930     0.000030     0.000005     1.081935
	   11 B(1,2,3)        =    122.671381     0.000003     0.004974   122.676356
	   12 B(1,2,4)        =    119.204570     0.000001     0.001717   119.206286
	   13 B(2,3,5)        =    110.953595    -0.000001    -0.000813   110.952781
	   14 B(2,3,6)        =    108.016516    -0.000000    -0.000911   108.015605
	   15 B(2,3,7)        =    110.946117     0.000001     0.001327   110.947445
	   16 B(2,4,8)        =    122.979629    -0.000007    -0.015433   122.964196
	   17 B(3,2,4)        =    118.124042    -0.000003    -0.006684   118.117358
	   18 B(4,8,9)        =    111.738610    -0.000001    -0.004315   111.734295
	   19 B(4,8,10)       =    105.933927     0.000003     0.014129   105.948057
	   20 B(4,8,11)       =    111.737564    -0.000001    -0.003577   111.733987
	   21 B(5,3,6)        =    109.488595     0.000000     0.000244   109.488839
	   22 B(5,3,7)        =    107.936651    -0.000000    -0.000535   107.936116
	   23 B(6,3,7)        =    109.486484    -0.000000     0.000714   109.487199
	   24 B(9,8,10)       =    108.843955    -0.000000    -0.001435   108.842520
	   25 B(9,8,11)       =    109.607686    -0.000000    -0.002706   109.604979
	   26 B(10,8,11)      =    108.843868    -0.000000    -0.001514   108.842353
	   27 D(1,2,3,5)      =    120.022035     0.000000     0.006544   120.028579
	   28 D(1,2,3,6)      =      0.008237     0.000000     0.007304     0.015541
	   29 D(1,2,3,7)      =   -119.998512     0.000000     0.006211  -119.992302
	   30 *D(1,2,4,8)     =    180.000000     0.000000     0.000000   180.000000
	   31 D(2,4,8,9)      =    -61.608373     0.000000     0.017401   -61.590972
	   32 D(2,4,8,10)     =   -179.997059     0.000000     0.012876  -179.984184
	   33 D(2,4,8,11)     =     61.614924    -0.000000     0.008047    61.622972
	   34 D(3,2,4,8)      =     -0.028554     0.000000     0.031353     0.002800
	   35 D(4,2,3,5)      =    -59.948687    -0.000000    -0.025971   -59.974659
	   36 D(4,2,3,6)      =   -179.962486    -0.000000    -0.025211  -179.987697
	   37 D(4,2,3,7)      =     60.030765    -0.000000    -0.026305    60.004460
	 ---------------------------------------------------------------------------

  ==> Convergence Check <==

  Measures of convergence in internal coordinates in au.
  Criteria marked as inactive (o), active & met (*), and active & unmet ( ).
  ---------------------------------------------------------------------------------------------
   Step     Total Energy     Delta E     MAX Force     RMS Force      MAX Disp      RMS Disp   
  ---------------------------------------------------------------------------------------------
    Convergence Criteria    1.00e-06 *    3.00e-04 *             o    1.20e-03 *             o
  ---------------------------------------------------------------------------------------------
      9    -266.92527911   -2.82e-05      1.03e-04 *    2.81e-05 o    5.47e-04 *    1.91e-04 o  ~
  ---------------------------------------------------------------------------------------------


  **** Optimization is complete! (in 9 steps) ****

  ==> Optimization Summary <==

  Measures of convergence in internal coordinates in au.
  --------------------------------------------------------------------------------------------------------------- ~
   Step         Total Energy             Delta E       MAX Force       RMS Force        MAX Disp        RMS Disp  ~
  --------------------------------------------------------------------------------------------------------------- ~
      1    -266.914845538439   -266.914845538439      0.09092241      0.02301293      0.29195630      0.07354197  ~
      2    -266.913630171759      0.001215366680      0.04657450      0.01288964      0.09259541      0.02505886  ~
      3    -266.922595759836     -0.008965588076      0.03036895      0.00684263      0.05644771      0.01147867  ~
      4    -266.924707945950     -0.002112186114      0.01538172      0.00343449      0.07196801      0.01486502  ~
      5    -266.924967817131     -0.000259871181      0.01341847      0.00306179      0.03928710      0.00793627  ~
      6    -266.925247455701     -0.000279638569      0.00413929      0.00086103      0.01269385      0.00312555  ~
      7    -266.925275528602     -0.000028072901      0.00076417      0.00020426      0.02771136      0.00749363  ~
      8    -266.925250887268      0.000024641334      0.00097427      0.00029733      0.02090253      0.00564604  ~
      9    -266.925279111638     -0.000028224371      0.00010307      0.00002811      0.00054722      0.00019120  ~
  --------------------------------------------------------------------------------------------------------------- ~

	Writing optimization data to binary file.
	Final energy is   -266.9252791116385
	Final (previous) structure:
	Cartesian Geometry (in Angstrom)
	    O     0.0901659252   1.6827111754  -0.0012036660
	    C    -0.1376191474   0.5263885336  -0.0002398140
	    C    -1.5412551086  -0.0272918795  -0.0001013655
	    O     0.8761033296  -0.3347908064   0.0001739149
	    H    -1.7155562145  -0.6406515573  -0.8749247311
	    H    -2.2268435727   0.8030975341  -0.0011526701
	    H    -1.7159938312  -0.6387495139   0.8759713289
	    C     0.6959123171  -1.7280864245   0.0013176435
	    H     0.1708292711  -2.0635060149   0.8858201871
	    H     1.6856637805  -2.1544007009   0.0014484897
	    H     0.1704656987  -2.0648935151  -0.8824462975
	Saving final (previous) structure.
			--------------------------
			 OPTKING Finished Execution 
			--------------------------

    Final optimized geometry and variables:
    Molecular point group: c1
    Full point group: C1

    Geometry (in Angstrom), charge = 0, multiplicity = 1:

    O            0.090165918329     1.682711046932    -0.001203665901
    C           -0.137619136923     0.526388493402    -0.000239813984
    C           -1.541254990940    -0.027291877405    -0.000101365482
    O            0.876103262710    -0.334790780809     0.000173914913
    H           -1.715556083470    -0.640651508349    -0.874924664327
    H           -2.226843402662     0.803097472788    -0.001152670054
    H           -1.715993700122    -0.638749465107     0.875971261996
    C            0.695912263916    -1.728086292586     0.001317643404
    H            0.170829258098    -2.063505857368     0.885820119483
    H            1.685663651757    -2.154400536360     0.001448489637
    H            0.170465685659    -2.064893357444    -0.882446230109

	Cleaning optimization helper files.


Properties will be evaluated at   0.000000,   0.000000,   0.000000 Bohr

Properties computed using the  density matrix

  Nuclear Dipole Moment: (a.u.)
     X:    -3.3997      Y:    -6.3300      Z:     0.0044

  Electronic Dipole Moment: (a.u.)
     X:     2.6650      Y:     4.5965      Z:    -0.0030

  Dipole Moment: (a.u.)
     X:    -0.7347      Y:    -1.7335      Z:     0.0014     Total:     1.8828

  Dipole Moment: (Debye)
     X:    -1.8674      Y:    -4.4061      Z:     0.0036     Total:     4.7855

  Quadrupole Moment: (Debye Ang)
    XX:   -29.2019     YY:   -32.7244     ZZ:   -29.0483
    XY:    -2.1521     XZ:     0.0020     YZ:     0.0026

  Traceless Quadrupole Moment: (Debye Ang)
    XX:     1.1230     YY:    -2.3995     ZZ:     1.2766
    XY:    -2.1521     XZ:     0.0020     YZ:     0.0026

  Mulliken Charges: (a.u.)
   Center  Symbol    Alpha    Beta     Spin     Total
       1     O     4.18080  4.18080  0.00000 -0.36160
       2     C     2.81195  2.81195  0.00000  0.37611
       3     C     3.16629  3.16629  0.00000 -0.33259
       4     O     4.12624  4.12624  0.00000 -0.25248
       5     H     0.44689  0.44689  0.00000  0.10621
       6     H     0.42519  0.42519  0.00000  0.14962
       7     H     0.44689  0.44689  0.00000  0.10621
       8     C     3.04132  3.04132  0.00000 -0.08265
       9     H     0.46111  0.46111  0.00000  0.07778
      10     H     0.43218  0.43218  0.00000  0.13564
      11     H     0.46112  0.46112  0.00000  0.07776

   Total alpha = 20.00000, Total beta = 20.00000, Total charge =  0.00000


*** PSI4 exiting successfully. Buy a developer a beer!
