    -----------------------------------------------------------------------
          Psi4: An Open-Source Ab Initio Electronic Structure Package
                              Psi4 (no tag) Driver

                          Git: Rev {detached?}  

    J. M. Turney, A. C. Simmonett, R. M. Parrish, E. G. Hohenstein,
    F. A. Evangelista, J. T. Fermann, B. J. Mintz, L. A. Burns, J. J. Wilke,
    M. L. Abrams, N. J. Russ, M. L. Leininger, C. L. Janssen, E. T. Seidl,
    W. D. Allen, H. F. Schaefer, R. A. King, E. F. Valeev, C. D. Sherrill,
    and T. D. Crawford, WIREs Comput. Mol. Sci. 2, 556-565 (2012)
    (doi: 10.1002/wcms.93)

                         Additional Contributions by
    A. E. DePrince, M. Saitow, U. Bozkaya, A. Yu. Sokolov
    -----------------------------------------------------------------------


    Psi4 started on: Fri Sep  2 15:45:53 2016

    Process ID:   4806
    PSI4DATADIR: /export131/home/mjharvey/miniconda3/share
    Memory level set to 256.000 MB

  ==> Input File <==

--------------------------------------------------------------------------
set {
	reference rhf
	basis 6-31G*
}


set_num_threads( 4 )
memory 2 gb

molecule MOL {
0 1

O	 1.846825	 1.296220	 0.000415
C	 1.705091	 0.115954	 0.001797
C	 0.381791	 -0.609817	 0.001258
O	 2.721346	 -0.737485	 -0.000216
C	 -0.823008	 0.326187	 0.001381
H	 0.371250	 -1.265087	 -0.865474
H	 0.370908	 -1.265746	 0.867490
C	 -1.624954	 0.240161	 -1.298059
H	 -0.484086	 1.345240	 0.159025
H	 -1.461750	 0.086827	 0.845789
C	 -2.836856	 1.173354	 -1.315444
H	 -0.978040	 0.477742	 -2.141299
H	 -1.959960	 -0.784560	 -1.451681
C	 -3.638430	 1.086062	 -2.613562
H	 -2.503626	 2.197739	 -1.164669
H	 -3.484483	 0.936686	 -0.474193
H	 -3.026493	 1.351120	 -3.471169
H	 -4.490456	 1.758496	 -2.595245
H	 -4.014781	 0.079847	 -2.775436
C	 4.024888	 -0.184556	 -0.001949
H	 4.179030	 0.422472	 -0.882452
H	 4.701782	 -1.024608	 -0.003642
H	 4.181981	 0.421185	 0.878906

	symmetry c1
}
set optking {
	frozen_dihedral = ("
		9 5 3 6
	")
}

ee = optimize('scf')
oeprop('DIPOLE', 'QUADRUPOLE', 'MULLIKEN_CHARGES')
f=open( 'psi4out.xyz', 'w' )
f.write( "23  " )
f.write( str(ee) + "\n" )
f.write( MOL.save_string_xyz() )
f.close()
--------------------------------------------------------------------------

  Memory set to   2.000 GiB by Python script.
gradient() will perform analytic gradient computation.

*** tstart() called on cx1-1-1-1.cx1.hpc.ic.ac.uk
*** at Fri Sep  2 15:45:53 2016


         ---------------------------------------------------------
                                   SCF
            by Justin Turney, Rob Parrish, and Andy Simmonett
                              RHF Reference
                        4 Threads,   2000 MiB Core
         ---------------------------------------------------------

  ==> Geometry <==

    Molecular point group: c1
    Full point group: C1

    Geometry (in Angstrom), charge = 0, multiplicity = 1:

       Center              X                  Y                   Z               Mass       
    ------------   -----------------  -----------------  -----------------  -----------------
           O          1.611130103568     0.992763660287     0.583570031595    15.994914619560
           C          1.469396103568    -0.187502339713     0.584952031595    12.000000000000
           C          0.146096103568    -0.913273339713     0.584413031595    12.000000000000
           O          2.485651103568    -1.040941339713     0.582939031595    15.994914619560
           C         -1.058702896432     0.022730660287     0.584536031595    12.000000000000
           H          0.135555103568    -1.568543339713    -0.282318968405     1.007825032070
           H          0.135213103568    -1.569202339713     1.450645031595     1.007825032070
           C         -1.860648896432    -0.063295339713    -0.714903968405    12.000000000000
           H         -0.719780896432     1.041783660287     0.742180031595     1.007825032070
           H         -1.697444896432    -0.216629339713     1.428944031595     1.007825032070
           C         -3.072550896432     0.869897660287    -0.732288968405    12.000000000000
           H         -1.213734896432     0.174285660287    -1.558143968405     1.007825032070
           H         -2.195654896432    -1.088016339713    -0.868525968405     1.007825032070
           C         -3.874124896432     0.782605660287    -2.030406968405    12.000000000000
           H         -2.739320896432     1.894282660287    -0.581513968405     1.007825032070
           H         -3.720177896432     0.633229660287     0.108962031595     1.007825032070
           H         -3.262187896432     1.047663660287    -2.888013968405     1.007825032070
           H         -4.726150896432     1.455039660287    -2.012089968405     1.007825032070
           H         -4.250475896432    -0.223609339713    -2.192280968405     1.007825032070
           C          3.789193103568    -0.488012339713     0.581206031595    12.000000000000
           H          3.943335103568     0.119015660287    -0.299296968405     1.007825032070
           H          4.466087103568    -1.328064339713     0.579513031595     1.007825032070
           H          3.946286103568     0.117728660287     1.462061031595     1.007825032070

  Running in c1 symmetry.

  Rotational constants: A =      0.17226  B =      0.01755  C =      0.01724 [cm^-1]
  Rotational constants: A =   5164.17453  B =    526.06914  C =    516.71304 [MHz]
  Nuclear repulsion =  456.763653592796345

  Charge       = 0
  Multiplicity = 1
  Electrons    = 72
  Nalpha       = 36
  Nbeta        = 36

  ==> Algorithm <==

  SCF Algorithm Type is DF.
  DIIS enabled.
  MOM disabled.
  Fractional occupation disabled.
  Guess Type is CORE.
  Energy threshold   = 1.00e-08
  Density threshold  = 1.00e-08
  Integral threshold = 0.00e+00

  ==> Primary Basis <==

  Basis Set: 6-31G*
    Number of shells: 82
    Number of basis function: 163
    Number of Cartesian functions: 163
    Spherical Harmonics?: false
    Max angular momentum: 2

  ==> Pre-Iterations <==

   -------------------------------------------------------
    Irrep   Nso     Nmo     Nalpha   Nbeta   Ndocc  Nsocc
   -------------------------------------------------------
     A        163     163       0       0       0       0
   -------------------------------------------------------
    Total     163     163      36      36      36       0
   -------------------------------------------------------

 OEINTS: Overlap, kinetic, potential, dipole, and quadrupole integrals
         stored in file 35.

  ==> Integral Setup <==

  ==> DFJK: Density-Fitted J/K Matrices <==

    J tasked:                  Yes
    K tasked:                  Yes
    wK tasked:                  No
    OpenMP threads:              4
    Integrals threads:           4
    Memory (MB):              1430
    Algorithm:                Core
    Integral Cache:           NONE
    Schwarz Cutoff:          1E-12
    Fitting Condition:       1E-12

   => Auxiliary Basis Set <=

  Basis Set: 
    Number of shells: 342
    Number of basis function: 1079
    Number of Cartesian functions: 1079
    Spherical Harmonics?: false
    Max angular momentum: 3

  Minimum eigenvalue in the overlap matrix is 2.9616862709E-03.
  Using Symmetric Orthogonalization.
  SCF Guess: Core (One-Electron) Hamiltonian.

  ==> Iterations <==

                           Total Energy        Delta E     RMS |[F,P]|

   @DF-RHF iter   1:  -274.46889335204150   -2.74469e+02   6.90745e-02 
   @DF-RHF iter   2:     4.43472245937346    2.78904e+02   7.58656e-02 DIIS
   @DF-RHF iter   3:  -222.87314818611549   -2.27308e+02   6.51283e-02 DIIS
   @DF-RHF iter   4:  -289.50396562494871   -6.66308e+01   6.36182e-02 DIIS
   @DF-RHF iter   5:  -384.54374377946681   -9.50398e+01   4.11206e-02 DIIS
   @DF-RHF iter   6:  -414.43470742942202   -2.98910e+01   1.54760e-02 DIIS
   @DF-RHF iter   7:  -398.72402327668806    1.57107e+01   2.46045e-02 DIIS
   @DF-RHF iter   8:  -422.90848145062125   -2.41845e+01   2.02474e-03 DIIS
   @DF-RHF iter   9:  -422.95859404561247   -5.01126e-02   1.03616e-03 DIIS
   @DF-RHF iter  10:  -422.96989268701577   -1.12986e-02   3.00138e-04 DIIS
   @DF-RHF iter  11:  -422.97132408654181   -1.43140e-03   1.18371e-04 DIIS
   @DF-RHF iter  12:  -422.97154324720645   -2.19161e-04   6.66344e-05 DIIS
   @DF-RHF iter  13:  -422.97163497967244   -9.17325e-05   1.99476e-05 DIIS
   @DF-RHF iter  14:  -422.97164420745128   -9.22778e-06   5.95740e-06 DIIS
   @DF-RHF iter  15:  -422.97164505231990   -8.44869e-07   1.57575e-06 DIIS
   @DF-RHF iter  16:  -422.97164511970709   -6.73872e-08   3.81474e-07 DIIS
   @DF-RHF iter  17:  -422.97164512339077   -3.68368e-09   9.62498e-08 DIIS
   @DF-RHF iter  18:  -422.97164512364702   -2.56250e-10   2.92719e-08 DIIS
   @DF-RHF iter  19:  -422.97164512367817   -3.11502e-11   9.21063e-09 DIIS

  ==> Post-Iterations <==

    Orbital Energies (a.u.)
    -----------------------

    Doubly Occupied:                                                      

       1A    -20.604399     2A    -20.546484     3A    -11.373018  
       4A    -11.281255     5A    -11.234017     6A    -11.215755  
       7A    -11.214882     8A    -11.213999     9A    -11.207811  
      10A     -1.470137    11A     -1.363965    12A     -1.091662  
      13A     -1.042195    14A     -0.986434    15A     -0.930703  
      16A     -0.843027    17A     -0.794651    18A     -0.766644  
      19A     -0.703393    20A     -0.681121    21A     -0.672805  
      22A     -0.641673    23A     -0.613011    24A     -0.599795  
      25A     -0.569739    26A     -0.556480    27A     -0.554126  
      28A     -0.529782    29A     -0.523434    30A     -0.500366  
      31A     -0.485771    32A     -0.468285    33A     -0.462034  
      34A     -0.457550    35A     -0.452087    36A     -0.439214  

    Virtual:                                                              

      37A      0.197169    38A      0.233772    39A      0.245948  
      40A      0.263586    41A      0.275633    42A      0.284940  
      43A      0.295589    44A      0.307699    45A      0.316642  
      46A      0.319759    47A      0.329310    48A      0.342366  
      49A      0.344824    50A      0.350550    51A      0.356753  
      52A      0.377520    53A      0.392280    54A      0.434094  
      55A      0.452587    56A      0.459753    57A      0.493116  
      58A      0.521304    59A      0.569648    60A      0.697512  
      61A      0.710106    62A      0.739330    63A      0.744323  
      64A      0.753958    65A      0.761552    66A      0.776749  
      67A      0.807515    68A      0.813919    69A      0.829525  
      70A      0.856843    71A      0.902425    72A      0.920589  
      73A      0.962533    74A      0.967398    75A      0.983567  
      76A      1.006130    77A      1.022867    78A      1.039155  
      79A      1.080460    80A      1.099665    81A      1.120626  
      82A      1.126242    83A      1.130691    84A      1.135500  
      85A      1.148350    86A      1.174172    87A      1.190141  
      88A      1.190935    89A      1.195084    90A      1.203013  
      91A      1.209740    92A      1.219446    93A      1.222158  
      94A      1.243445    95A      1.252029    96A      1.272245  
      97A      1.291366    98A      1.302411    99A      1.355767  
     100A      1.391046   101A      1.413364   102A      1.515802  
     103A      1.564576   104A      1.638703   105A      1.647141  
     106A      1.663735   107A      1.714694   108A      1.750241  
     109A      1.796513   110A      1.810762   111A      1.852199  
     112A      1.894414   113A      1.941280   114A      1.977871  
     115A      2.049111   116A      2.063477   117A      2.093671  
     118A      2.117211   119A      2.150508   120A      2.186081  
     121A      2.213476   122A      2.226633   123A      2.244558  
     124A      2.279446   125A      2.305126   126A      2.315752  
     127A      2.341212   128A      2.367403   129A      2.396556  
     130A      2.401050   131A      2.439332   132A      2.444431  
     133A      2.492625   134A      2.526846   135A      2.610701  
     136A      2.625318   137A      2.649479   138A      2.668165  
     139A      2.691114   140A      2.711303   141A      2.765415  
     142A      2.771408   143A      2.808764   144A      2.858261  
     145A      2.904338   146A      2.933799   147A      2.990643  
     148A      3.059516   149A      3.096858   150A      3.125719  
     151A      3.187995   152A      3.350358   153A      3.444760  
     154A      3.579013   155A      4.417875   156A      4.538863  
     157A      4.606466   158A      4.654548   159A      4.722330  
     160A      4.748616   161A      4.851223   162A      4.966153  
     163A      5.003623  

    Final Occupation by Irrep:
              A 
    DOCC [    36 ]

  Energy converged.

  @DF-RHF Final Energy:  -422.97164512367817

   => Energetics <=

    Nuclear Repulsion Energy =            456.7636535927963450
    One-Electron Energy =               -1481.2871933870155772
    Two-Electron Energy =                 601.5518946705408325
    DFT Exchange-Correlation Energy =       0.0000000000000000
    Empirical Dispersion Energy =           0.0000000000000000
    PCM Polarization Energy =               0.0000000000000000
    EFP Energy =                            0.0000000000000000
    Total Energy =                       -422.9716451236783996

    Alert: EFP and PCM quantities not currently incorporated into SCF psivars.

Properties will be evaluated at   0.000000,   0.000000,   0.000000 Bohr
  ==> Properties <==


Properties computed using the SCF density matrix

  Nuclear Dipole Moment: (a.u.)
     X:   -11.1348      Y:     0.4582      Z:    -4.5973

  Electronic Dipole Moment: (a.u.)
     X:    11.2809      Y:    -1.1194      Z:     4.6131

  Dipole Moment: (a.u.)
     X:     0.1461      Y:    -0.6613      Z:     0.0159     Total:     0.6774

  Dipole Moment: (Debye)
     X:     0.3714      Y:    -1.6807      Z:     0.0403     Total:     1.7218


  Saving occupied orbitals to File 180.

*** tstop() called on cx1-1-1-1.cx1.hpc.ic.ac.uk at Fri Sep  2 15:46:03 2016
Module time:
	user time   =      27.85 seconds =       0.46 minutes
	system time =       0.38 seconds =       0.01 minutes
	total time  =         10 seconds =       0.17 minutes
Total time:
	user time   =      27.85 seconds =       0.46 minutes
	system time =       0.38 seconds =       0.01 minutes
	total time  =         10 seconds =       0.17 minutes

*** tstart() called on cx1-1-1-1.cx1.hpc.ic.ac.uk
*** at Fri Sep  2 15:46:03 2016


         ------------------------------------------------------------
                                   SCF GRAD                          
                          Rob Parrish, Justin Turney,                
                       Andy Simmonett, and Alex Sokolov              
         ------------------------------------------------------------

  ==> Geometry <==

    Molecular point group: c1
    Full point group: C1

    Geometry (in Angstrom), charge = 0, multiplicity = 1:

       Center              X                  Y                   Z               Mass       
    ------------   -----------------  -----------------  -----------------  -----------------
           O          1.611130103568     0.992763660287     0.583570031595    15.994914619560
           C          1.469396103568    -0.187502339713     0.584952031595    12.000000000000
           C          0.146096103568    -0.913273339713     0.584413031595    12.000000000000
           O          2.485651103568    -1.040941339713     0.582939031595    15.994914619560
           C         -1.058702896432     0.022730660287     0.584536031595    12.000000000000
           H          0.135555103568    -1.568543339713    -0.282318968405     1.007825032070
           H          0.135213103568    -1.569202339713     1.450645031595     1.007825032070
           C         -1.860648896432    -0.063295339713    -0.714903968405    12.000000000000
           H         -0.719780896432     1.041783660287     0.742180031595     1.007825032070
           H         -1.697444896432    -0.216629339713     1.428944031595     1.007825032070
           C         -3.072550896432     0.869897660287    -0.732288968405    12.000000000000
           H         -1.213734896432     0.174285660287    -1.558143968405     1.007825032070
           H         -2.195654896432    -1.088016339713    -0.868525968405     1.007825032070
           C         -3.874124896432     0.782605660287    -2.030406968405    12.000000000000
           H         -2.739320896432     1.894282660287    -0.581513968405     1.007825032070
           H         -3.720177896432     0.633229660287     0.108962031595     1.007825032070
           H         -3.262187896432     1.047663660287    -2.888013968405     1.007825032070
           H         -4.726150896432     1.455039660287    -2.012089968405     1.007825032070
           H         -4.250475896432    -0.223609339713    -2.192280968405     1.007825032070
           C          3.789193103568    -0.488012339713     0.581206031595    12.000000000000
           H          3.943335103568     0.119015660287    -0.299296968405     1.007825032070
           H          4.466087103568    -1.328064339713     0.579513031595     1.007825032070
           H          3.946286103568     0.117728660287     1.462061031595     1.007825032070

  Nuclear repulsion =  456.763653592796345

  ==> Basis Set <==

  Basis Set: 6-31G*
    Number of shells: 82
    Number of basis function: 163
    Number of Cartesian functions: 163
    Spherical Harmonics?: false
    Max angular momentum: 2

  ==> DFJKGrad: Density-Fitted SCF Gradients <==

    Gradient:                    1
    J tasked:                  Yes
    K tasked:                  Yes
    wK tasked:                  No
    OpenMP threads:              4
    Integrals threads:           4
    Memory (MB):              1430
    Schwarz Cutoff:          0E+00
    Fitting Condition:       1E-12

   => Auxiliary Basis Set <=

  Basis Set: 
    Number of shells: 342
    Number of basis function: 1079
    Number of Cartesian functions: 1079
    Spherical Harmonics?: false
    Max angular momentum: 3


  -Total Gradient:
     Atom            X                  Y                   Z
    ------   -----------------  -----------------  -----------------
       1       -0.002213052439     0.000022437378    -0.000083259041
       2       -0.001733422552     0.001046071752     0.001065698158
       3       -0.002052364439     0.002593772510    -0.002684816197
       4        0.000576395861    -0.000532158862    -0.000089726667
       5        0.003652195492    -0.003957234314     0.000359012036
       6       -0.001570932357     0.000308118697    -0.001098056605
       7       -0.002282121030    -0.000028131819     0.001123362861
       8        0.003150339288    -0.002339731128    -0.000302194801
       9        0.001127227890     0.001948418441     0.001123648285
      10        0.002042705612     0.000745355948     0.001044534235
      11       -0.000340410988     0.000041243801     0.000591448724
      12       -0.000610353871    -0.000240275654    -0.000724909184
      13        0.000051782632     0.000173024343    -0.000226719017
      14        0.000163209765    -0.000076006195    -0.000052427446
      15       -0.000114301987     0.000137389980     0.000034962896
      16        0.000194724516     0.000117569836    -0.000128018748
      17       -0.000020075087    -0.000024516426    -0.000059419322
      18        0.000043670811     0.000004276675     0.000076108521
      19        0.000046719467     0.000047375548     0.000023580002
      20       -0.000101991708    -0.000058004972     0.000018043631
      21       -0.000003158677     0.000035000588     0.000005225338
      22       -0.000011211195     0.000016115214    -0.000000753778
      23        0.000004424991     0.000019888659    -0.000015323878


*** tstop() called on cx1-1-1-1.cx1.hpc.ic.ac.uk at Fri Sep  2 15:46:12 2016
Module time:
	user time   =      33.74 seconds =       0.56 minutes
	system time =       0.28 seconds =       0.00 minutes
	total time  =          9 seconds =       0.15 minutes
Total time:
	user time   =      61.61 seconds =       1.03 minutes
	system time =       0.66 seconds =       0.01 minutes
	total time  =         19 seconds =       0.32 minutes
CURRENT ENERGY: -422.9716451237

			-----------------------------------------
			 OPTKING 2.0: for geometry optimizations 
			  - R.A. King,  Bethel University        
			-----------------------------------------

	Internal coordinates to be generated automatically.
	Detected frag with atoms:  1 2 3 4 5 6 7 8 9 10 11 12 13 14 15 16 17 18 19 20
	 21 22 23
	---Fragment 1 Bond Connectivity---
	 1 : 2
	 2 : 1 3 4
	 3 : 2 5 6 7
	 4 : 2 20
	 5 : 3 8 9 10
	 6 : 3
	 7 : 3
	 8 : 5 11 12 13
	 9 : 5
	 10 : 5
	 11 : 8 14 15 16
	 12 : 8
	 13 : 8
	 14 : 11 17 18 19
	 15 : 11
	 16 : 11
	 17 : 14
	 18 : 14
	 19 : 14
	 20 : 4 21 22 23
	 21 : 20
	 22 : 20
	 23 : 20

	Assuming in current code that numbering for constraints corresponds to unified fragment.
	Frozen dihedral atom list: 
	     9     5     3     6
	---Fragment 1 Geometry and Gradient---
	 O           3.0445946602        1.8760514326        1.1027875391
	 C           2.7767562165       -0.3543280713        1.1053991406
	 C           0.2760816248       -1.7258364965        1.1043805782
	 O           4.6971998476       -1.9670940525        1.1015951219
	 C          -2.0006585303        0.0429547228        1.1046130145
	 H           0.2561620217       -2.9641173396       -0.5335055324
	 H           0.2555157353       -2.9653626691        2.7413218257
	 C          -3.5161168437       -0.1196108575       -1.3509727116
	 H          -1.3601887699        1.9686858077        1.4025170010
	 H          -3.2077059799       -0.4093701244        2.7003128789
	 C          -5.8062797236        1.6438683416       -1.3838256004
	 H          -2.2936265522        0.3293521668       -2.9444653759
	 H          -4.1491864366       -2.0560529102       -1.6412762196
	 C          -7.3210350589        1.4789103680       -3.8369131086
	 H          -5.1765662843        3.5796754462       -1.0989021427
	 H          -7.0301173899        1.1966306372        0.2059083986
	 H          -6.1646417183        1.9797973973       -5.4575554682
	 H          -8.9311308569        2.7496264704       -3.8022989950
	 H          -8.0322353787       -0.4225604128       -4.1428106366
	 C           7.1605372304       -0.9222096715        1.0983202265
	 H           7.4518233959        0.2249070035       -0.5655893027
	 H           8.4396815114       -2.5096778889        1.0951209202
	 H           7.4573999778        0.2224749259        2.7628949393
	            -0.0022130524        0.0000224374       -0.0000832590
	            -0.0017334226        0.0010460718        0.0010656982
	            -0.0020523644        0.0025937725       -0.0026848162
	             0.0005763959       -0.0005321589       -0.0000897267
	             0.0036521955       -0.0039572343        0.0003590120
	            -0.0015709324        0.0003081187       -0.0010980566
	            -0.0022821210       -0.0000281318        0.0011233629
	             0.0031503393       -0.0023397311       -0.0003021948
	             0.0011272279        0.0019484184        0.0011236483
	             0.0020427056        0.0007453559        0.0010445342
	            -0.0003404110        0.0000412438        0.0005914487
	            -0.0006103539       -0.0002402757       -0.0007249092
	             0.0000517826        0.0001730243       -0.0002267190
	             0.0001632098       -0.0000760062       -0.0000524274
	            -0.0001143020        0.0001373900        0.0000349629
	             0.0001947245        0.0001175698       -0.0001280187
	            -0.0000200751       -0.0000245164       -0.0000594193
	             0.0000436708        0.0000042767        0.0000761085
	             0.0000467195        0.0000473755        0.0000235800
	            -0.0001019917       -0.0000580050        0.0000180436
	            -0.0000031587        0.0000350006        0.0000052253
	            -0.0000112112        0.0000161152       -0.0000007538
	             0.0000044250        0.0000198887       -0.0000153239

	Previous optimization step data not found.  Starting new optimization.

	---Fragment 1 Intrafragment Coordinates---
	 - Coordinate -           - BOHR/RAD -       - ANG/DEG -
	 R(1,2)           =         2.246405	       1.188747
	 R(2,3)           =         2.852089	       1.509260
	 R(2,4)           =         2.507814	       1.327078
	 R(3,5)           =         2.883083	       1.525662
	 R(3,6)           =         2.053389	       1.086607
	 R(3,7)           =         2.053393	       1.086609
	 R(4,20)          =         2.675785	       1.415965
	 R(5,8)           =         2.890146	       1.529399
	 R(5,9)           =         2.051192	       1.085444
	 R(5,10)          =         2.051297	       1.085500
	 R(8,11)          =         2.890637	       1.529660
	 R(8,12)          =         2.057977	       1.089035
	 R(8,13)          =         2.057878	       1.088982
	 R(11,14)         =         2.887790	       1.528153
	 R(11,15)         =         2.055497	       1.087722
	 R(11,16)         =         2.055494	       1.087721
	 R(14,17)         =         2.052953	       1.086376
	 R(14,18)         =         2.051420	       1.085565
	 R(14,19)         =         2.053039	       1.086422
	 R(20,21)         =         2.041891	       1.080522
	 R(20,22)         =         2.038695	       1.078831
	 R(20,23)         =         2.041872	       1.080512
	 B(1,2,3)         =         2.191966	     125.590402
	 B(1,2,4)         =         2.149814	     123.175297
	 B(2,3,5)         =         1.979442	     113.413689
	 B(2,3,6)         =         1.874211	     107.384381
	 B(2,3,7)         =         1.874208	     107.384226
	 B(2,4,20)        =         2.041887	     116.991511
	 B(3,2,4)         =         1.941399	     111.233992
	 B(3,5,8)         =         1.960051	     112.302671
	 B(3,5,9)         =         1.906484	     109.233498
	 B(3,5,10)        =         1.906526	     109.235900
	 B(4,20,21)       =         1.930187	     110.591552
	 B(4,20,22)       =         1.847880	     105.875718
	 B(4,20,23)       =         1.930248	     110.595066
	 B(5,3,6)         =         1.941610	     111.246083
	 B(5,3,7)         =         1.941604	     111.245727
	 B(5,8,11)        =         1.972265	     113.002448
	 B(5,8,12)        =         1.911475	     109.519464
	 B(5,8,13)        =         1.911442	     109.517537
	 B(6,3,7)         =         1.846013	     105.768727
	 B(8,5,9)         =         1.917639	     109.872647
	 B(8,5,10)        =         1.917697	     109.875940
	 B(8,11,14)       =         1.971842	     112.978214
	 B(8,11,15)       =         1.907365	     109.283981
	 B(8,11,16)       =         1.907298	     109.280107
	 B(9,5,10)        =         1.852274	     106.127467
	 B(11,8,12)       =         1.905763	     109.192155
	 B(11,8,13)       =         1.905760	     109.192009
	 B(11,14,17)      =         1.940337	     111.173144
	 B(11,14,18)      =         1.941184	     111.221630
	 B(11,14,19)      =         1.940330	     111.172741
	 B(12,8,13)       =         1.853336	     106.188311
	 B(14,11,15)      =         1.909475	     109.404847
	 B(14,11,16)      =         1.909482	     109.405249
	 B(15,11,16)      =         1.854705	     106.266746
	 B(17,14,18)      =         1.879991	     107.715567
	 B(17,14,19)      =         1.879138	     107.666649
	 B(18,14,19)      =         1.880028	     107.717671
	 B(21,20,22)      =         1.924809	     110.283415
	 B(21,20,23)      =         1.905647	     109.185537
	 B(22,20,23)      =         1.924724	     110.278552
	 D(1,2,3,5)       =        -0.001928	      -0.110450
	 D(1,2,3,6)       =         2.150469	     123.212819
	 D(1,2,3,7)       =        -2.154315	    -123.433152
	 D(1,2,4,20)      =         0.001780	       0.101971
	 D(2,3,5,8)       =         1.978068	     113.334925
	 D(2,3,5,9)       =        -0.153981	      -8.822450
	 D(2,3,5,10)      =        -2.172967	    -124.501821
	 D(2,4,20,21)     =        -1.056367	     -60.525393
	 D(2,4,20,22)     =        -3.141388	    -179.988281
	 D(2,4,20,23)     =         1.056845	      60.552755
	 D(3,2,4,20)      =         3.140019	     179.909848
	 D(3,5,8,11)      =        -3.140962	    -179.963879
	 D(3,5,8,12)      =        -1.012267	     -57.998615
	 D(3,5,8,13)      =         1.013555	      58.072436
	 D(4,2,3,5)       =        -3.140069	    -179.912703
	 D(4,2,3,6)       =        -0.987672	     -56.589434
	 D(4,2,3,7)       =         0.990729	      56.764595
	 D(5,8,11,14)     =        -3.140717	    -179.949855
	 D(5,8,11,15)     =         1.012263	      57.998397
	 D(5,8,11,16)     =        -1.010552	     -57.900380
	 D(6,3,5,8)       =        -0.136880	      -7.842647
	*D(6,3,5,9)       =        -2.268928	    -130.000021
	 D(6,3,5,10)      =         1.995271	     114.320607
	 D(7,3,5,8)       =        -2.190178	    -125.487970
	 D(7,3,5,9)       =         1.960959	     112.354656
	 D(7,3,5,10)      =        -0.058027	      -3.324716
	 D(8,11,14,17)    =        -1.046925	     -59.984362
	 D(8,11,14,18)    =         3.141329	     179.984873
	 D(8,11,14,19)    =         1.046355	      59.951715
	 D(9,5,8,11)      =        -1.015260	     -58.170129
	 D(9,5,8,12)      =         1.113435	      63.795134
	 D(9,5,8,13)      =         3.139257	     179.866186
	 D(10,5,8,11)     =         1.016427	      58.236977
	 D(10,5,8,12)     =        -3.138063	    -179.797759
	 D(10,5,8,13)     =        -1.112241	     -63.726708
	 D(12,8,11,14)    =         1.010568	      57.901282
	 D(12,8,11,15)    =        -1.119637	     -64.150466
	 D(12,8,11,16)    =         3.140733	     179.950757
	 D(13,8,11,14)    =        -1.008863	     -57.803565
	 D(13,8,11,15)    =        -3.139067	    -179.855313
	 D(13,8,11,16)    =         1.121303	      64.245910
	 D(15,11,14,17)   =         1.082096	      61.999528
	 D(15,11,14,18)   =        -1.012836	     -58.031237
	 D(15,11,14,19)   =        -3.107810	    -178.064395
	 D(16,11,14,17)   =         3.107322	     178.036425
	 D(16,11,14,18)   =         1.012390	      58.005659
	 D(16,11,14,19)   =        -1.082584	     -62.027498

	Current energy   :      -422.9716451237

	Generating empirical Hessian (Schlegel '84) for each fragment.
	Taking RFO optimization step.
	Going to follow RFO solution 1.
	Using RFO vector 1.
	Norm of target step-size    0.11184
	Projected energy change by RFO approximation:        -0.0010196148

	Back-transformation to cartesian coordinates...
	Successfully converged to displaced geometry.

	Back-transformation to cartesian coordinates to adjust frozen coordinates...
	Successfully converged to displaced geometry.

	--- Internal Coordinate Step in ANG or DEG, aJ/ANG or AJ/DEG ---
	 ---------------------------------------------------------------------------
	   Coordinate                Previous        Force       Change         New 
	   ----------                --------       ------       ------       ------
	    1 R(1,2)          =      1.188747     0.001990     0.000115     1.188862
	    2 R(2,3)          =      1.509260     0.022974     0.004679     1.513939
	    3 R(2,4)          =      1.327078    -0.005682    -0.000605     1.326473
	    4 R(3,5)          =      1.525662     0.078376     0.016814     1.542476
	    5 R(3,6)          =      1.086607    -0.005811    -0.001057     1.085550
	    6 R(3,7)          =      1.086609    -0.007706    -0.001401     1.085208
	    7 R(4,20)         =      1.415965     0.000807     0.000120     1.416085
	    8 R(5,8)          =      1.529399     0.004708     0.001022     1.530421
	    9 R(5,9)          =      1.085444    -0.019315    -0.003499     1.081945
	   10 R(5,10)         =      1.085500     0.004563     0.000827     1.086326
	   11 R(8,11)         =      1.529660    -0.001370    -0.000298     1.529362
	   12 R(8,12)         =      1.089035    -0.001205    -0.000221     1.088814
	   13 R(8,13)         =      1.088982     0.001209     0.000222     1.089204
	   14 R(11,14)        =      1.528153     0.000901     0.000195     1.528348
	   15 R(11,15)        =      1.087722    -0.000817    -0.000149     1.087573
	   16 R(11,16)        =      1.087721     0.001982     0.000362     1.088082
	   17 R(14,17)        =      1.086376    -0.000244    -0.000044     1.086332
	   18 R(14,18)        =      1.085565     0.000250     0.000045     1.085610
	   19 R(14,19)        =      1.086422     0.000524     0.000095     1.086517
	   20 R(20,21)        =      1.080522    -0.000123    -0.000022     1.080500
	   21 R(20,22)        =      1.078831     0.000161     0.000029     1.078859
	   22 R(20,23)        =      1.080512     0.000006     0.000001     1.080513
	   23 B(1,2,3)        =    125.590402     0.000249     0.744926   126.335328
	   24 B(1,2,4)        =    123.175297    -0.000127    -0.382519   122.792779
	   25 B(2,3,5)        =    113.413689     0.000455     1.571630   114.985318
	   26 B(2,3,6)        =    107.384381    -0.000248    -1.751847   105.632534
	   27 B(2,3,7)        =    107.384226    -0.000234    -0.893207   106.491019
	   28 B(2,4,20)       =    116.991511     0.000013     0.037988   117.029499
	   29 B(3,2,4)        =    111.233992    -0.000121    -0.363950   110.870042
	   30 B(3,5,8)        =    112.302671     0.000325     0.984740   113.287412
	   31 B(3,5,9)        =    109.233498    -0.000069    -0.013769   109.219729
	   32 B(3,5,10)       =    109.235900    -0.000025     0.552521   109.788421
	   33 B(4,20,21)      =    110.591552     0.000000     0.001743   110.593295
	   34 B(4,20,22)      =    105.875718    -0.000001    -0.006369   105.869349
	   35 B(4,20,23)      =    110.595066    -0.000001    -0.002390   110.592677
	   36 B(5,3,6)        =    111.246083    -0.000031     0.164925   111.411009
	   37 B(5,3,7)        =    111.245727     0.000011     0.952588   112.198315
	   38 B(5,8,11)       =    113.002448     0.000090     0.288395   113.290843
	   39 B(5,8,12)       =    109.519464    -0.000079    -0.587011   108.932453
	   40 B(5,8,13)       =    109.517537    -0.000024    -0.019373   109.498164
	   41 B(6,3,7)        =    105.768727     0.000004    -0.323598   105.445129
	   42 B(8,5,9)        =    109.872647    -0.000149    -1.252639   108.620008
	   43 B(8,5,10)       =    109.875940    -0.000184    -0.989195   108.886746
	   44 B(8,11,14)      =    112.978214     0.000023     0.073728   113.051942
	   45 B(8,11,15)      =    109.283981    -0.000015    -0.079787   109.204194
	   46 B(8,11,16)      =    109.280107    -0.000004    -0.006296   109.273810
	   47 B(9,5,10)       =    106.127467     0.000088     0.701890   106.829357
	   48 B(11,8,12)      =    109.192155     0.000003     0.037655   109.229810
	   49 B(11,8,13)      =    109.192009    -0.000024     0.099313   109.291322
	   50 B(11,14,17)     =    111.173144    -0.000008    -0.044934   111.128210
	   51 B(11,14,18)     =    111.221630     0.000009     0.047008   111.268638
	   52 B(11,14,19)     =    111.172741     0.000003     0.016065   111.188806
	   53 B(12,8,13)      =    106.188311     0.000030     0.174935   106.363247
	   54 B(14,11,15)     =    109.404847    -0.000001     0.015754   109.420601
	   55 B(14,11,16)     =    109.405249    -0.000012    -0.045456   109.359793
	   56 B(15,11,16)     =    106.266746     0.000007     0.040148   106.306895
	   57 B(17,14,18)     =    107.715567    -0.000002    -0.013766   107.701801
	   58 B(17,14,19)     =    107.666649     0.000002     0.005396   107.672045
	   59 B(18,14,19)     =    107.717671    -0.000005    -0.010921   107.706750
	   60 B(21,20,22)     =    110.283415    -0.000001    -0.006523   110.276892
	   61 B(21,20,23)     =    109.185537     0.000003     0.016920   109.202456
	   62 B(22,20,23)     =    110.278552    -0.000000    -0.004321   110.274231
	   63 D(1,2,3,5)      =     -0.110450     0.000005     0.774923     0.664473
	   64 D(1,2,3,6)      =    123.212819     0.000024     0.723346   123.936165
	   65 D(1,2,3,7)      =   -123.433152    -0.000028    -0.838157  -124.271309
	   66 D(1,2,4,20)     =      0.101971    -0.000001    -0.361024    -0.259053
	   67 D(2,3,5,8)      =    113.334925    -0.000009    -1.989097   111.345828
	   68 D(2,3,5,9)      =     -8.822450    -0.000005    -1.041775    -9.864224
	   69 D(2,3,5,10)     =   -124.501821    -0.000017    -2.188639  -126.690460
	   70 D(2,4,20,21)    =    -60.525393    -0.000000    -0.107572   -60.632964
	   71 D(2,4,20,22)    =   -179.988281    -0.000000    -0.096936  -180.085217
	   72 D(2,4,20,23)    =     60.552755     0.000000    -0.086708    60.466048
	   73 D(3,2,4,20)     =    179.909848     0.000001     0.297591   180.207439
	   74 D(3,5,8,11)     =   -179.963879     0.000003     1.012748  -178.951131
	   75 D(3,5,8,12)     =    -57.998615     0.000005     0.833263   -57.165353
	   76 D(3,5,8,13)     =     58.072436     0.000000     0.701067    58.773503
	   77 D(4,2,3,5)      =   -179.912703     0.000004     0.090374  -179.822329
	   78 D(4,2,3,6)      =    -56.589434     0.000022     0.038798   -56.550637
	   79 D(4,2,3,7)      =     56.764595    -0.000029    -1.522705    55.241889
	   80 D(5,8,11,14)    =   -179.949855    -0.000004    -0.280345  -180.230201
	   81 D(5,8,11,15)    =     57.998397    -0.000004    -0.293069    57.705328
	   82 D(5,8,11,16)    =    -57.900380    -0.000004    -0.293082   -58.193462
	   83 D(6,3,5,8)      =     -7.842647    -0.000005    -0.947323    -8.789969
	   84 *D(6,3,5,9)     =   -130.000021     0.000000    -0.000000  -130.000021
	   85 D(6,3,5,10)     =    114.320607    -0.000012    -1.146864   113.173743
	   86 D(7,3,5,8)      =   -125.487970    -0.000003    -1.269035  -126.757005
	   87 D(7,3,5,9)      =    112.354656     0.000002    -0.321713   112.032943
	   88 D(7,3,5,10)     =     -3.324716    -0.000010    -1.468577    -4.793293
	   89 D(8,11,14,17)   =    -59.984362     0.000000    -0.012676   -59.997038
	   90 D(8,11,14,18)   =    179.984873     0.000001     0.003404   179.988277
	   91 D(8,11,14,19)   =     59.951715     0.000000    -0.025199    59.926517
	   92 D(9,5,8,11)     =    -58.170129     0.000009     0.766101   -57.404028
	   93 D(9,5,8,12)     =     63.795134     0.000011     0.586616    64.381751
	   94 D(9,5,8,13)     =    179.866186     0.000006     0.454421   180.320606
	   95 D(10,5,8,11)    =     58.236977    -0.000010     0.345984    58.582961
	   96 D(10,5,8,12)    =   -179.797759    -0.000008     0.166499  -179.631261
	   97 D(10,5,8,13)    =    -63.726708    -0.000014     0.034303   -63.692405
	   98 D(12,8,11,14)   =     57.901282     0.000005     0.249267    58.150549
	   99 D(12,8,11,15)   =    -64.150466     0.000004     0.236543   -63.913923
	  100 D(12,8,11,16)   =    179.950757     0.000005     0.236530   180.187288
	  101 D(13,8,11,14)   =    -57.803565    -0.000000    -0.036227   -57.839792
	  102 D(13,8,11,15)   =   -179.855313    -0.000001    -0.048951  -179.904264
	  103 D(13,8,11,16)   =     64.245910    -0.000001    -0.048964    64.196947
	  104 D(15,11,14,17)  =     61.999528    -0.000000    -0.053441    61.946087
	  105 D(15,11,14,18)  =    -58.031237    -0.000000    -0.037361   -58.068599
	  106 D(15,11,14,19)  =   -178.064395    -0.000001    -0.065963  -178.130359
	  107 D(16,11,14,17)  =    178.036425    -0.000000    -0.021993   178.014432
	  108 D(16,11,14,18)  =     58.005659     0.000000    -0.005913    57.999747
	  109 D(16,11,14,19)  =    -62.027498    -0.000000    -0.034515   -62.062013
	 ---------------------------------------------------------------------------

  ==> Convergence Check <==

  Measures of convergence in internal coordinates in au.
  Criteria marked as inactive (o), active & met (*), and active & unmet ( ).
  --------------------------------------------------------------------------------------------- ~
   Step     Total Energy     Delta E     MAX Force     RMS Force      MAX Disp      RMS Disp    ~
  --------------------------------------------------------------------------------------------- ~
    Convergence Criteria    1.00e-06 *    3.00e-04 *             o    1.20e-03 *             o  ~
  --------------------------------------------------------------------------------------------- ~
      1    -422.97164512   -4.23e+02      9.51e-03      1.44e-03 o    3.82e-02      1.07e-02 o  ~
  ---------------------------------------------------------------------------------------------

	Writing optimization data to binary file.
	Structure for next step:
	Cartesian Geometry (in Angstrom)
	    O     1.6510818153   1.0008932794   0.5698733145
	    C     1.4897166152  -0.1768929121   0.5830513706
	    C     0.1597440569  -0.8999007330   0.6041460376
	    O     2.4969643095  -1.0399770688   0.5913486577
	    C    -1.0805523023   0.0170243285   0.5921024539
	    H     0.1723717067  -1.5607734333  -0.2569619430
	    H     0.1780928859  -1.5534273115   1.4703112043
	    C    -1.8778286178  -0.0607364169  -0.7119271291
	    H    -0.7676986480   1.0413768741   0.7451709261
	    H    -1.7352332310  -0.2389857273   1.4203275040
	    C    -3.0932563276   0.8672735573  -0.7338503952
	    H    -1.2206455982   0.1893577038  -1.5432384254
	    H    -2.2051396330  -1.0863473113  -0.8773192938
	    C    -3.8821732403   0.7893927525  -2.0405223471
	    H    -2.7646779502   1.8910402875  -0.5702853801
	    H    -3.7488874648   0.6201422526   0.0986139162
	    H    -3.2625240363   1.0652323776  -2.8890879592
	    H    -4.7371112211   1.4582605465  -2.0248133896
	    H    -4.2529163512  -0.2167173989  -2.2160524770
	    C     3.8064015267  -0.5010013857   0.5781219548
	    H     3.9653321774   0.0895381799  -0.3126558497
	    H     4.4742684387  -1.3482144191   0.5891419659
	    H     3.9716565353   0.1173792002   1.4486416372
			--------------------------
			 OPTKING Finished Execution 
			--------------------------

    Structure for next step:
    Molecular point group: c1
    Full point group: C1

    Geometry (in Angstrom), charge = 0, multiplicity = 1:

    O            1.646579171890     0.998831000589     0.569332015926
    C            1.485213984138    -0.178955100903     0.582510071087
    C            0.155241527345    -0.901962866591     0.603604736444
    O            2.492461601478    -1.042039191695     0.590807357522
    C           -1.085054737154     0.014962124820     0.591561153679
    H            0.167869176180    -1.562835516472    -0.257503178373
    H            0.173590354957    -1.555489395278     1.469769837026
    C           -1.882330991750    -0.062798614614    -0.712468329808
    H           -0.772201106732     1.039314592175     0.744629614127
    H           -1.739735615805    -0.241047911431     1.419786140499
    C           -3.097758608682     0.865211288730    -0.734391594210
    H           -1.225148022263     0.187295486994    -1.543779562633
    H           -2.209641981956    -1.088409430725    -0.877860481793
    C           -3.886675461186     0.787330489826    -2.041063446329
    H           -2.769180256405     1.888977940763    -0.570826591543
    H           -3.753389695833     0.618080002925     0.098072653600
    H           -3.267026304480     1.063170093918    -2.889628993581
    H           -4.741613376634     1.456198232796    -2.025354490058
    H           -4.257418543748    -0.218779584721    -2.216593562805
    C            3.801898718706    -0.503063549835     0.577580655600
    H            3.960829357250     0.087475970740    -0.313197080860
    H            4.469765579710    -1.350276518470     0.588600665885
    H            3.967153714666     0.115316988911     1.448100271582

gradient() will perform analytic gradient computation.

*** tstart() called on cx1-1-1-1.cx1.hpc.ic.ac.uk
*** at Fri Sep  2 15:46:13 2016


         ---------------------------------------------------------
                                   SCF
            by Justin Turney, Rob Parrish, and Andy Simmonett
                              RHF Reference
                        4 Threads,   2000 MiB Core
         ---------------------------------------------------------

  ==> Geometry <==

    Molecular point group: c1
    Full point group: C1

    Geometry (in Angstrom), charge = 0, multiplicity = 1:

       Center              X                  Y                   Z               Mass       
    ------------   -----------------  -----------------  -----------------  -----------------
           O          1.646579171890     0.998831000589     0.569332015926    15.994914619560
           C          1.485213984138    -0.178955100903     0.582510071087    12.000000000000
           C          0.155241527345    -0.901962866591     0.603604736444    12.000000000000
           O          2.492461601478    -1.042039191695     0.590807357522    15.994914619560
           C         -1.085054737154     0.014962124820     0.591561153679    12.000000000000
           H          0.167869176180    -1.562835516472    -0.257503178373     1.007825032070
           H          0.173590354957    -1.555489395278     1.469769837026     1.007825032070
           C         -1.882330991750    -0.062798614614    -0.712468329808    12.000000000000
           H         -0.772201106732     1.039314592175     0.744629614127     1.007825032070
           H         -1.739735615805    -0.241047911431     1.419786140499     1.007825032070
           C         -3.097758608682     0.865211288730    -0.734391594210    12.000000000000
           H         -1.225148022263     0.187295486994    -1.543779562633     1.007825032070
           H         -2.209641981956    -1.088409430725    -0.877860481793     1.007825032070
           C         -3.886675461186     0.787330489826    -2.041063446329    12.000000000000
           H         -2.769180256405     1.888977940763    -0.570826591543     1.007825032070
           H         -3.753389695833     0.618080002925     0.098072653600     1.007825032070
           H         -3.267026304480     1.063170093918    -2.889628993581     1.007825032070
           H         -4.741613376634     1.456198232796    -2.025354490058     1.007825032070
           H         -4.257418543748    -0.218779584721    -2.216593562805     1.007825032070
           C          3.801898718706    -0.503063549835     0.577580655600    12.000000000000
           H          3.960829357250     0.087475970740    -0.313197080860     1.007825032070
           H          4.469765579710    -1.350276518470     0.588600665885     1.007825032070
           H          3.967153714666     0.115316988911     1.448100271582     1.007825032070

  Running in c1 symmetry.

  Rotational constants: A =      0.17096  B =      0.01736  C =      0.01705 [cm^-1]
  Rotational constants: A =   5125.35044  B =    520.32211  C =    511.06033 [MHz]
  Nuclear repulsion =  455.301700979597172

  Charge       = 0
  Multiplicity = 1
  Electrons    = 72
  Nalpha       = 36
  Nbeta        = 36

  ==> Algorithm <==

  SCF Algorithm Type is DF.
  DIIS enabled.
  MOM disabled.
  Fractional occupation disabled.
  Guess Type is READ.
  Energy threshold   = 1.00e-08
  Density threshold  = 1.00e-08
  Integral threshold = 0.00e+00

  ==> Primary Basis <==

  Basis Set: 6-31G*
    Number of shells: 82
    Number of basis function: 163
    Number of Cartesian functions: 163
    Spherical Harmonics?: false
    Max angular momentum: 2

  ==> Pre-Iterations <==

   -------------------------------------------------------
    Irrep   Nso     Nmo     Nalpha   Nbeta   Ndocc  Nsocc
   -------------------------------------------------------
     A        163     163       0       0       0       0
   -------------------------------------------------------
    Total     163     163      36      36      36       0
   -------------------------------------------------------

 OEINTS: Overlap, kinetic, potential, dipole, and quadrupole integrals
         stored in file 35.

  ==> Integral Setup <==

  ==> DFJK: Density-Fitted J/K Matrices <==

    J tasked:                  Yes
    K tasked:                  Yes
    wK tasked:                  No
    OpenMP threads:              4
    Integrals threads:           4
    Memory (MB):              1430
    Algorithm:                Core
    Integral Cache:           NONE
    Schwarz Cutoff:          1E-12
    Fitting Condition:       1E-12

   => Auxiliary Basis Set <=

  Basis Set: 
    Number of shells: 342
    Number of basis function: 1079
    Number of Cartesian functions: 1079
    Spherical Harmonics?: false
    Max angular momentum: 3

  Minimum eigenvalue in the overlap matrix is 3.0159857847E-03.
  Using Symmetric Orthogonalization.
  SCF Guess: Reading in previously saved MOs, projecting if necessary.

  Using orbitals from previous SCF, no projection.
  Recomputing DOCC and SOCC from number of alpha and beta electrons from previous calculation.
              A 
    DOCC [    36 ]

  ==> Iterations <==

                           Total Energy        Delta E     RMS |[F,P]|

   @DF-RHF iter   0:  -422.96748211939803   -4.22967e+02   4.57516e-04 
   @DF-RHF iter   1:  -422.97185581295935   -4.37369e-03   6.19222e-05 
   @DF-RHF iter   2:  -422.97194365886332   -8.78459e-05   2.07010e-05 DIIS
   @DF-RHF iter   3:  -422.97195503221883   -1.13734e-05   7.79729e-06 DIIS
   @DF-RHF iter   4:  -422.97195622184449   -1.18963e-06   1.85422e-06 DIIS
   @DF-RHF iter   5:  -422.97195633834519   -1.16501e-07   8.46055e-07 DIIS
   @DF-RHF iter   6:  -422.97195636330332   -2.49581e-08   3.15184e-07 DIIS
   @DF-RHF iter   7:  -422.97195636747620   -4.17288e-09   1.04994e-07 DIIS
   @DF-RHF iter   8:  -422.97195636800495   -5.28757e-10   4.20770e-08 DIIS
   @DF-RHF iter   9:  -422.97195636806373   -5.87761e-11   1.93779e-08 DIIS
   @DF-RHF iter  10:  -422.97195636808237   -1.86446e-11   7.49701e-09 DIIS

  ==> Post-Iterations <==

    Orbital Energies (a.u.)
    -----------------------

    Doubly Occupied:                                                      

       1A    -20.603909     2A    -20.545785     3A    -11.373121  
       4A    -11.281103     5A    -11.236321     6A    -11.218439  
       7A    -11.216146     8A    -11.215036     9A    -11.208493  
      10A     -1.470145    11A     -1.362673    12A     -1.089856  
      13A     -1.041841    14A     -0.986463    15A     -0.931407  
      16A     -0.844430    17A     -0.794379    18A     -0.766701  
      19A     -0.700686    20A     -0.680997    21A     -0.671914  
      22A     -0.642640    23A     -0.611653    24A     -0.598765  
      25A     -0.570463    26A     -0.557424    27A     -0.555581  
      28A     -0.529169    29A     -0.523123    30A     -0.499709  
      31A     -0.488589    32A     -0.466680    33A     -0.463286  
      34A     -0.457223    35A     -0.453731    36A     -0.438286  

    Virtual:                                                              

      37A      0.198810    38A      0.233212    39A      0.246053  
      40A      0.264002    41A      0.275415    42A      0.283773  
      43A      0.294875    44A      0.306801    45A      0.316583  
      46A      0.319272    47A      0.329182    48A      0.341356  
      49A      0.344056    50A      0.349615    51A      0.356372  
      52A      0.375474    53A      0.389624    54A      0.432697  
      55A      0.450713    56A      0.457527    57A      0.488918  
      58A      0.522421    59A      0.565139    60A      0.697270  
      61A      0.710200    62A      0.738134    63A      0.742610  
      64A      0.753638    65A      0.760696    66A      0.775695  
      67A      0.805172    68A      0.812823    69A      0.830238  
      70A      0.857722    71A      0.898734    72A      0.917386  
      73A      0.958751    74A      0.962610    75A      0.982483  
      76A      1.006635    77A      1.024424    78A      1.039882  
      79A      1.080806    80A      1.101254    81A      1.121431  
      82A      1.128179    83A      1.131044    84A      1.135418  
      85A      1.148206    86A      1.174584    87A      1.189077  
      88A      1.191366    89A      1.194816    90A      1.203801  
      91A      1.209855    92A      1.218180    93A      1.220385  
      94A      1.243235    95A      1.250383    96A      1.270815  
      97A      1.292111    98A      1.301560    99A      1.355159  
     100A      1.388870   101A      1.413465   102A      1.505645  
     103A      1.566225   104A      1.636994   105A      1.649512  
     106A      1.664005   107A      1.708549   108A      1.746690  
     109A      1.794930   110A      1.807722   111A      1.847286  
     112A      1.892285   113A      1.944104   114A      1.974481  
     115A      2.049867   116A      2.060955   117A      2.087903  
     118A      2.117547   119A      2.144571   120A      2.181708  
     121A      2.211035   122A      2.223346   123A      2.239592  
     124A      2.273155   125A      2.300487   126A      2.314703  
     127A      2.336801   128A      2.369241   129A      2.389968  
     130A      2.399576   131A      2.440078   132A      2.445455  
     133A      2.493091   134A      2.524432   135A      2.609388  
     136A      2.621851   137A      2.649897   138A      2.667557  
     139A      2.690534   140A      2.710902   141A      2.758067  
     142A      2.771209   143A      2.806190   144A      2.853673  
     145A      2.895917   146A      2.934385   147A      2.990469  
     148A      3.059069   149A      3.090281   150A      3.124271  
     151A      3.185194   152A      3.349197   153A      3.439985  
     154A      3.574785   155A      4.417381   156A      4.528916  
     157A      4.601685   158A      4.656103   159A      4.718833  
     160A      4.750171   161A      4.849229   162A      4.966568  
     163A      4.997344  

    Final Occupation by Irrep:
              A 
    DOCC [    36 ]

  Energy converged.

  @DF-RHF Final Energy:  -422.97195636808237

   => Energetics <=

    Nuclear Repulsion Energy =            455.3017009795971717
    One-Electron Energy =               -1478.3549785890304520
    Two-Electron Energy =                 600.0813212413504516
    DFT Exchange-Correlation Energy =       0.0000000000000000
    Empirical Dispersion Energy =           0.0000000000000000
    PCM Polarization Energy =               0.0000000000000000
    EFP Energy =                            0.0000000000000000
    Total Energy =                       -422.9719563680828287

    Alert: EFP and PCM quantities not currently incorporated into SCF psivars.

Properties will be evaluated at   0.000000,   0.000000,   0.000000 Bohr
  ==> Properties <==


Properties computed using the SCF density matrix

  Nuclear Dipole Moment: (a.u.)
     X:   -11.2261      Y:     0.4113      Z:    -4.6122

  Electronic Dipole Moment: (a.u.)
     X:    11.3418      Y:    -1.0800      Z:     4.6257

  Dipole Moment: (a.u.)
     X:     0.1157      Y:    -0.6687      Z:     0.0135     Total:     0.6787

  Dipole Moment: (Debye)
     X:     0.2940      Y:    -1.6996      Z:     0.0344     Total:     1.7252


  Saving occupied orbitals to File 180.

*** tstop() called on cx1-1-1-1.cx1.hpc.ic.ac.uk at Fri Sep  2 15:46:21 2016
Module time:
	user time   =      23.68 seconds =       0.39 minutes
	system time =       0.32 seconds =       0.01 minutes
	total time  =          8 seconds =       0.13 minutes
Total time:
	user time   =      86.96 seconds =       1.45 minutes
	system time =       1.04 seconds =       0.02 minutes
	total time  =         28 seconds =       0.47 minutes

*** tstart() called on cx1-1-1-1.cx1.hpc.ic.ac.uk
*** at Fri Sep  2 15:46:21 2016


         ------------------------------------------------------------
                                   SCF GRAD                          
                          Rob Parrish, Justin Turney,                
                       Andy Simmonett, and Alex Sokolov              
         ------------------------------------------------------------

  ==> Geometry <==

    Molecular point group: c1
    Full point group: C1

    Geometry (in Angstrom), charge = 0, multiplicity = 1:

       Center              X                  Y                   Z               Mass       
    ------------   -----------------  -----------------  -----------------  -----------------
           O          1.646579171890     0.998831000589     0.569332015926    15.994914619560
           C          1.485213984138    -0.178955100903     0.582510071087    12.000000000000
           C          0.155241527345    -0.901962866591     0.603604736444    12.000000000000
           O          2.492461601478    -1.042039191695     0.590807357522    15.994914619560
           C         -1.085054737154     0.014962124820     0.591561153679    12.000000000000
           H          0.167869176180    -1.562835516472    -0.257503178373     1.007825032070
           H          0.173590354957    -1.555489395278     1.469769837026     1.007825032070
           C         -1.882330991750    -0.062798614614    -0.712468329808    12.000000000000
           H         -0.772201106732     1.039314592175     0.744629614127     1.007825032070
           H         -1.739735615805    -0.241047911431     1.419786140499     1.007825032070
           C         -3.097758608682     0.865211288730    -0.734391594210    12.000000000000
           H         -1.225148022263     0.187295486994    -1.543779562633     1.007825032070
           H         -2.209641981956    -1.088409430725    -0.877860481793     1.007825032070
           C         -3.886675461186     0.787330489826    -2.041063446329    12.000000000000
           H         -2.769180256405     1.888977940763    -0.570826591543     1.007825032070
           H         -3.753389695833     0.618080002925     0.098072653600     1.007825032070
           H         -3.267026304480     1.063170093918    -2.889628993581     1.007825032070
           H         -4.741613376634     1.456198232796    -2.025354490058     1.007825032070
           H         -4.257418543748    -0.218779584721    -2.216593562805     1.007825032070
           C          3.801898718706    -0.503063549835     0.577580655600    12.000000000000
           H          3.960829357250     0.087475970740    -0.313197080860     1.007825032070
           H          4.469765579710    -1.350276518470     0.588600665885     1.007825032070
           H          3.967153714666     0.115316988911     1.448100271582     1.007825032070

  Nuclear repulsion =  455.301700979597172

  ==> Basis Set <==

  Basis Set: 6-31G*
    Number of shells: 82
    Number of basis function: 163
    Number of Cartesian functions: 163
    Spherical Harmonics?: false
    Max angular momentum: 2

  ==> DFJKGrad: Density-Fitted SCF Gradients <==

    Gradient:                    1
    J tasked:                  Yes
    K tasked:                  Yes
    wK tasked:                  No
    OpenMP threads:              4
    Integrals threads:           4
    Memory (MB):              1430
    Schwarz Cutoff:          0E+00
    Fitting Condition:       1E-12

   => Auxiliary Basis Set <=

  Basis Set: 
    Number of shells: 342
    Number of basis function: 1079
    Number of Cartesian functions: 1079
    Spherical Harmonics?: false
    Max angular momentum: 3


  -Total Gradient:
     Atom            X                  Y                   Z
    ------   -----------------  -----------------  -----------------
       1        0.001093515922    -0.000293285384     0.000870474805
       2        0.000926282482    -0.002162054521    -0.002213332433
       3        0.000071639437    -0.001289690754     0.001321183123
       4        0.000282288270     0.001289656461     0.000544687519
       5       -0.001171251536     0.000169997809     0.000793606248
       6        0.001472331057     0.001346388147    -0.000205879857
       7        0.000469529665    -0.000459375879    -0.000177756257
       8       -0.000883354636     0.000965035321     0.001435368201
       9       -0.001040205479    -0.000340614631    -0.001833866899
      10       -0.001080783925     0.000684857292    -0.000272007406
      11       -0.000362295328     0.000015412743    -0.000712261748
      12        0.000202685589     0.000042476146     0.000313425254
      13        0.000055505842    -0.000063117479     0.000193696888
      14       -0.000207787862     0.000199907292     0.000100338276
      15        0.000060209894    -0.000039276589     0.000014123696
      16        0.000075594170    -0.000052744402    -0.000039258877
      17        0.000008163102     0.000012178079    -0.000011221581
      18       -0.000073312382     0.000001535401    -0.000124282319
      19       -0.000018309487    -0.000031139920    -0.000017864852
      20        0.000009935843    -0.000072623081    -0.000016191585
      21        0.000007849546     0.000008649692    -0.000022938212
      22        0.000058303094     0.000046499765     0.000016271940
      23        0.000043466722     0.000021328492     0.000043686075


*** tstop() called on cx1-1-1-1.cx1.hpc.ic.ac.uk at Fri Sep  2 15:46:30 2016
Module time:
	user time   =      33.80 seconds =       0.56 minutes
	system time =       0.31 seconds =       0.01 minutes
	total time  =          9 seconds =       0.15 minutes
Total time:
	user time   =     120.78 seconds =       2.01 minutes
	system time =       1.35 seconds =       0.02 minutes
	total time  =         37 seconds =       0.62 minutes
CURRENT ENERGY: -422.9719563681

			-----------------------------------------
			 OPTKING 2.0: for geometry optimizations 
			  - R.A. King,  Bethel University        
			-----------------------------------------

	Previous internal coordinate definitions found.
	---Fragment 1 Geometry and Gradient---
	 O           3.1115836910        1.8875170441        1.0758815888
	 C           2.8066476788       -0.3381761308        1.1007845040
	 C           0.2933639711       -1.7044627999        1.1406476444
	 O           4.7100698235       -1.9691686920        1.1164641030
	 C          -2.0504562924        0.0282743183        1.1178885713
	 H           0.3172267691       -2.9533311169       -0.4866104855
	 H           0.3280382302       -2.9394489597        2.7774624704
	 C          -3.5570900659       -0.1186721831       -1.3463700217
	 H          -1.4592486112        1.9640199451        1.4071460411
	 H          -3.2876238575       -0.4555145375        2.6830069728
	 C          -5.8539153962        1.6350123828       -1.3877989874
	 H          -2.3151942343        0.3539371763       -2.9173205829
	 H          -4.1756181976       -2.0567957445       -1.6589158935
	 C          -7.3447521890        1.4878390018       -3.8570509334
	 H          -5.2329922972        3.5696509791       -1.0787059274
	 H          -7.0928785951        1.1680019337        0.1853304564
	 H          -6.1737849844        2.0091003102       -5.4606074235
	 H          -8.9603507099        2.7518158552       -3.8273653082
	 H          -8.0453550808       -0.4134334986       -4.1887547816
	 C           7.1845473633       -0.9506523366        1.0914692587
	 H           7.4848827443        0.1653056279       -0.5918567084
	 H           8.4466328239       -2.5516528236        1.1122940602
	 H           7.4968340478        0.2179175275        2.7365129262
	             0.0010935159       -0.0002932854        0.0008704748
	             0.0009262825       -0.0021620545       -0.0022133324
	             0.0000716394       -0.0012896908        0.0013211831
	             0.0002822883        0.0012896565        0.0005446875
	            -0.0011712515        0.0001699978        0.0007936062
	             0.0014723311        0.0013463881       -0.0002058799
	             0.0004695297       -0.0004593759       -0.0001777563
	            -0.0008833546        0.0009650353        0.0014353682
	            -0.0010402055       -0.0003406146       -0.0018338669
	            -0.0010807839        0.0006848573       -0.0002720074
	            -0.0003622953        0.0000154127       -0.0007122617
	             0.0002026856        0.0000424761        0.0003134253
	             0.0000555058       -0.0000631175        0.0001936969
	            -0.0002077879        0.0001999073        0.0001003383
	             0.0000602099       -0.0000392766        0.0000141237
	             0.0000755942       -0.0000527444       -0.0000392589
	             0.0000081631        0.0000121781       -0.0000112216
	            -0.0000733124        0.0000015354       -0.0001242823
	            -0.0000183095       -0.0000311399       -0.0000178649
	             0.0000099358       -0.0000726231       -0.0000161916
	             0.0000078495        0.0000086497       -0.0000229382
	             0.0000583031        0.0000464998        0.0000162719
	             0.0000434667        0.0000213285        0.0000436861

	---Fragment 1 Intrafragment Coordinates---
	 - Coordinate -           - BOHR/RAD -       - ANG/DEG -
	 R(1,2)           =         2.246623	       1.188862
	 R(2,3)           =         2.860931	       1.513939
	 R(2,4)           =         2.506671	       1.326473
	 R(3,5)           =         2.914857	       1.542476
	 R(3,6)           =         2.051392	       1.085550
	 R(3,7)           =         2.050745	       1.085208
	 R(4,20)          =         2.676012	       1.416085
	 R(5,8)           =         2.892077	       1.530421
	 R(5,9)           =         2.044580	       1.081945
	 R(5,10)          =         2.052859	       1.086326
	 R(8,11)          =         2.890075	       1.529362
	 R(8,12)          =         2.057559	       1.088814
	 R(8,13)          =         2.058297	       1.089204
	 R(11,14)         =         2.888158	       1.528348
	 R(11,15)         =         2.055215	       1.087573
	 R(11,16)         =         2.056177	       1.088082
	 R(14,17)         =         2.052869	       1.086332
	 R(14,18)         =         2.051506	       1.085610
	 R(14,19)         =         2.053219	       1.086517
	 R(20,21)         =         2.041850	       1.080500
	 R(20,22)         =         2.038749	       1.078859
	 R(20,23)         =         2.041873	       1.080513
	 B(1,2,3)         =         2.204967	     126.335328
	 B(1,2,4)         =         2.143138	     122.792779
	 B(2,3,5)         =         2.006872	     114.985318
	 B(2,3,6)         =         1.843636	     105.632534
	 B(2,3,7)         =         1.858619	     106.491019
	 B(2,4,20)        =         2.042550	     117.029499
	 B(3,2,4)         =         1.935047	     110.870042
	 B(3,5,8)         =         1.977238	     113.287412
	 B(3,5,9)         =         1.906244	     109.219729
	 B(3,5,10)        =         1.916169	     109.788421
	 B(4,20,21)       =         1.930217	     110.593295
	 B(4,20,22)       =         1.847769	     105.869349
	 B(4,20,23)       =         1.930206	     110.592677
	 B(5,3,6)         =         1.944489	     111.411009
	 B(5,3,7)         =         1.958230	     112.198315
	 B(5,8,11)        =         1.977298	     113.290843
	 B(5,8,12)        =         1.901230	     108.932453
	 B(5,8,13)        =         1.911103	     109.498164
	 B(6,3,7)         =         1.840365	     105.445129
	 B(8,5,9)         =         1.895777	     108.620008
	 B(8,5,10)        =         1.900432	     108.886746
	 B(8,11,14)       =         1.973129	     113.051942
	 B(8,11,15)       =         1.905973	     109.204194
	 B(8,11,16)       =         1.907188	     109.273810
	 B(9,5,10)        =         1.864524	     106.829357
	 B(11,8,12)       =         1.906420	     109.229810
	 B(11,8,13)       =         1.907493	     109.291322
	 B(11,14,17)      =         1.939553	     111.128210
	 B(11,14,18)      =         1.942004	     111.268638
	 B(11,14,19)      =         1.940611	     111.188806
	 B(12,8,13)       =         1.856389	     106.363247
	 B(14,11,15)      =         1.909750	     109.420601
	 B(14,11,16)      =         1.908688	     109.359793
	 B(15,11,16)      =         1.855405	     106.306895
	 B(17,14,18)      =         1.879751	     107.701801
	 B(17,14,19)      =         1.879232	     107.672045
	 B(18,14,19)      =         1.879837	     107.706750
	 B(21,20,22)      =         1.924695	     110.276892
	 B(21,20,23)      =         1.905942	     109.202456
	 B(22,20,23)      =         1.924648	     110.274231
	 D(1,2,3,5)       =         0.011597	       0.664473
	 D(1,2,3,6)       =         2.163094	     123.936165
	 D(1,2,3,7)       =        -2.168944	    -124.271309
	 D(1,2,4,20)      =        -0.004521	      -0.259053
	 D(2,3,5,8)       =         1.943351	     111.345828
	 D(2,3,5,9)       =        -0.172163	      -9.864224
	 D(2,3,5,10)      =        -2.211166	    -126.690460
	 D(2,4,20,21)     =        -1.058245	     -60.632964
	 D(2,4,20,22)     =         3.140105	     179.914783
	 D(2,4,20,23)     =         1.055332	      60.466048
	 D(3,2,4,20)      =        -3.137972	    -179.792561
	 D(3,5,8,11)      =        -3.123286	    -178.951131
	 D(3,5,8,12)      =        -0.997724	     -57.165353
	 D(3,5,8,13)      =         1.025791	      58.773503
	 D(4,2,3,5)       =        -3.138492	    -179.822329
	 D(4,2,3,6)       =        -0.986995	     -56.550637
	 D(4,2,3,7)       =         0.964153	      55.241889
	 D(5,8,11,14)     =         3.137575	     179.769799
	 D(5,8,11,15)     =         1.007148	      57.705328
	 D(5,8,11,16)     =        -1.015668	     -58.193462
	 D(6,3,5,8)       =        -0.153414	      -8.789969
	*D(6,3,5,9)       =        -2.268928	    -130.000021
	 D(6,3,5,10)      =         1.975254	     113.173743
	 D(7,3,5,8)       =        -2.212327	    -126.757005
	 D(7,3,5,9)       =         1.955344	     112.032943
	 D(7,3,5,10)      =        -0.083659	      -4.793293
	 D(8,11,14,17)    =        -1.047146	     -59.997038
	 D(8,11,14,18)    =         3.141388	     179.988277
	 D(8,11,14,19)    =         1.045915	      59.926517
	 D(9,5,8,11)      =        -1.001889	     -57.404028
	 D(9,5,8,12)      =         1.123674	      64.381751
	 D(9,5,8,13)      =        -3.135997	    -179.679394
	 D(10,5,8,11)     =         1.022466	      58.582961
	 D(10,5,8,12)     =        -3.135157	    -179.631261
	 D(10,5,8,13)     =        -1.111642	     -63.692405
	 D(12,8,11,14)    =         1.014919	      58.150549
	 D(12,8,11,15)    =        -1.115508	     -63.913923
	 D(12,8,11,16)    =        -3.138324	    -179.812712
	 D(13,8,11,14)    =        -1.009495	     -57.839792
	 D(13,8,11,15)    =        -3.139922	    -179.904264
	 D(13,8,11,16)    =         1.120448	      64.196947
	 D(15,11,14,17)   =         1.081163	      61.946087
	 D(15,11,14,18)   =        -1.013488	     -58.068599
	 D(15,11,14,19)   =        -3.108961	    -178.130359
	 D(16,11,14,17)   =         3.106938	     178.014432
	 D(16,11,14,18)   =         1.012287	      57.999747
	 D(16,11,14,19)   =        -1.083186	     -62.062013

	Current energy   :      -422.9719563681

	Energy change for the previous step:
		Projected    :        -0.0010196148
		Actual       :        -0.0003112444

	Performing BFGS update.
	Previous computed or guess Hessian on step 1.
	Steps to be used in Hessian update: 1
	Taking RFO optimization step.
	Going to follow RFO solution 1.
	Using RFO vector 1.
	Norm of target step-size    0.11968
	Projected energy change by RFO approximation:        -0.0000308554

	Back-transformation to cartesian coordinates...
	Successfully converged to displaced geometry.

	Back-transformation to cartesian coordinates to adjust frozen coordinates...
	Successfully converged to displaced geometry.

	--- Internal Coordinate Step in ANG or DEG, aJ/ANG or AJ/DEG ---
	 ---------------------------------------------------------------------------
	   Coordinate                Previous        Force       Change         New 
	   ----------                --------       ------       ------       ------
	    1 R(1,2)          =      1.188862     0.001250     0.000063     1.188925
	    2 R(2,3)          =      1.513939    -0.013045    -0.001353     1.512587
	    3 R(2,4)          =      1.326473     0.004391     0.000262     1.326735
	    4 R(3,5)          =      1.542476    -0.037054    -0.003739     1.538736
	    5 R(3,6)          =      1.085550     0.005266     0.000557     1.086107
	    6 R(3,7)          =      1.085208    -0.001176    -0.000303     1.084904
	    7 R(4,20)         =      1.416085    -0.000921    -0.000083     1.416002
	    8 R(5,8)          =      1.530421     0.003622     0.000664     1.531085
	    9 R(5,9)          =      1.081945     0.007272     0.000542     1.082487
	   10 R(5,10)         =      1.086326    -0.002328    -0.000206     1.086121
	   11 R(8,11)         =      1.529362    -0.004012    -0.000645     1.528717
	   12 R(8,12)         =      1.088814     0.000883     0.000089     1.088903
	   13 R(8,13)         =      1.089204    -0.000110     0.000010     1.089214
	   14 R(11,14)        =      1.528348    -0.001536    -0.000212     1.528136
	   15 R(11,15)        =      1.087573     0.000137     0.000001     1.087575
	   16 R(11,16)        =      1.088082     0.000524     0.000107     1.088189
	   17 R(14,17)        =      1.086332    -0.000136    -0.000022     1.086309
	   18 R(14,18)        =      1.085610    -0.000469    -0.000055     1.085556
	   19 R(14,19)        =      1.086517    -0.000313    -0.000029     1.086487
	   20 R(20,21)        =      1.080500    -0.000204    -0.000028     1.080472
	   21 R(20,22)        =      1.078859     0.000002     0.000003     1.078863
	   22 R(20,23)        =      1.080513    -0.000445    -0.000056     1.080457
	   23 B(1,2,3)        =    126.335328    -0.000049    -0.062827   126.272501
	   24 B(1,2,4)        =    122.792779     0.000142     0.214878   123.007657
	   25 B(2,3,5)        =    114.985318    -0.000259    -0.530951   114.454367
	   26 B(2,3,6)        =    105.632534     0.000120     0.155426   105.787960
	   27 B(2,3,7)        =    106.491019     0.000109     0.124686   106.615705
	   28 B(2,4,20)       =    117.029499    -0.000001     0.002431   117.031930
	   29 B(3,2,4)        =    110.870042    -0.000093    -0.276900   110.593142
	   30 B(3,5,8)        =    113.287412    -0.000094    -0.193714   113.093698
	   31 B(3,5,9)        =    109.219729    -0.000012    -0.242505   108.977224
	   32 B(3,5,10)       =    109.788421    -0.000037    -0.265970   109.522451
	   33 B(4,20,21)      =    110.593295     0.000001     0.004580   110.597875
	   34 B(4,20,22)      =    105.869349    -0.000008    -0.027122   105.842227
	   35 B(4,20,23)      =    110.592677    -0.000002    -0.006412   110.586264
	   36 B(5,3,6)        =    111.411009     0.000033     0.033663   111.444671
	   37 B(5,3,7)        =    112.198315     0.000032     0.040945   112.239260
	   38 B(5,8,11)       =    113.290843    -0.000101    -0.223327   113.067517
	   39 B(5,8,12)       =    108.932453     0.000049     0.128856   109.061309
	   40 B(5,8,13)       =    109.498164     0.000037     0.084491   109.582655
	   41 B(6,3,7)        =    105.445129    -0.000010     0.243982   105.689111
	   42 B(8,5,9)        =    108.620008     0.000059     0.112437   108.732445
	   43 B(8,5,10)       =    108.886746     0.000087     0.291970   109.178716
	   44 B(8,11,14)      =    113.051942    -0.000036    -0.083124   112.968818
	   45 B(8,11,15)      =    109.204194     0.000014     0.029917   109.234111
	   46 B(8,11,16)      =    109.273810     0.000014     0.043860   109.317670
	   47 B(9,5,10)       =    106.829357     0.000003     0.331608   107.160964
	   48 B(11,8,12)      =    109.229810     0.000019     0.026513   109.256323
	   49 B(11,8,13)      =    109.291322     0.000023    -0.006452   109.284870
	   50 B(11,14,17)     =    111.128210     0.000003     0.009492   111.137702
	   51 B(11,14,18)     =    111.268638    -0.000015    -0.048663   111.219975
	   52 B(11,14,19)     =    111.188806     0.000001     0.006280   111.195086
	   53 B(12,8,13)      =    106.363247    -0.000022     0.003771   106.367018
	   54 B(14,11,15)     =    109.420601     0.000008     0.004521   109.425121
	   55 B(14,11,16)     =    109.359793     0.000008     0.003615   109.363409
	   56 B(15,11,16)     =    106.306895    -0.000007     0.006686   106.313581
	   57 B(17,14,18)     =    107.701801     0.000006     0.014023   107.715825
	   58 B(17,14,19)     =    107.672045    -0.000000     0.011044   107.683089
	   59 B(18,14,19)     =    107.706750     0.000006     0.009880   107.716630
	   60 B(21,20,22)     =    110.276892     0.000003     0.006348   110.283240
	   61 B(21,20,23)     =    109.202456     0.000001     0.006258   109.208715
	   62 B(22,20,23)     =    110.274231     0.000005     0.015749   110.289980
	   63 D(1,2,3,5)      =      0.664473    -0.000009    -2.615386    -1.950913
	   64 D(1,2,3,6)      =    123.936165    -0.000016    -2.796768   121.139397
	   65 D(1,2,3,7)      =   -124.271309     0.000003    -2.401809  -126.673118
	   66 D(1,2,4,20)     =     -0.259053     0.000006     2.140734     1.881681
	   67 D(2,3,5,8)      =    111.345828     0.000000    -0.309533   111.036295
	   68 D(2,3,5,9)      =     -9.864224    -0.000001    -0.152228   -10.016452
	   69 D(2,3,5,10)     =   -126.690460     0.000005    -0.260685  -126.951145
	   70 D(2,4,20,21)    =    -60.632964    -0.000000     0.014983   -60.617981
	   71 D(2,4,20,22)    =    179.914783     0.000000     0.020978   179.935761
	   72 D(2,4,20,23)    =     60.466048     0.000000     0.021640    60.487688
	   73 D(3,2,4,20)     =   -179.792561    -0.000006    -2.186378  -181.978939
	   74 D(3,5,8,11)     =   -178.951131    -0.000002    -0.594906  -179.546037
	   75 D(3,5,8,12)     =    -57.165353    -0.000004    -0.618321   -57.783673
	   76 D(3,5,8,13)     =     58.773503     0.000001    -0.494294    58.279209
	   77 D(4,2,3,5)      =   -179.822329     0.000005     1.887366  -177.934963
	   78 D(4,2,3,6)      =    -56.550637    -0.000003     1.705983   -54.844653
	   79 D(4,2,3,7)      =     55.241889     0.000017     2.100943    57.342832
	   80 D(5,8,11,14)    =    179.769799     0.000001     0.245849   180.015649
	   81 D(5,8,11,15)    =     57.705328     0.000002     0.274833    57.980161
	   82 D(5,8,11,16)    =    -58.193462     0.000000     0.225647   -57.967814
	   83 D(6,3,5,8)      =     -8.789969     0.000001    -0.157305    -8.947275
	   84 *D(6,3,5,9)     =   -130.000021    -0.000000    -0.000000  -130.000021
	   85 D(6,3,5,10)     =    113.173743     0.000006    -0.108458   113.065285
	   86 D(7,3,5,8)      =   -126.757005    -0.000006    -0.516454  -127.273459
	   87 D(7,3,5,9)      =    112.032943    -0.000007    -0.359149   111.673794
	   88 D(7,3,5,10)     =     -4.793293    -0.000001    -0.467607    -5.260899
	   89 D(8,11,14,17)   =    -59.997038    -0.000000    -0.008139   -60.005177
	   90 D(8,11,14,18)   =    179.988277    -0.000000     0.000384   179.988661
	   91 D(8,11,14,19)   =     59.926517     0.000000     0.016386    59.942903
	   92 D(9,5,8,11)     =    -57.404028    -0.000010    -0.950811   -58.354839
	   93 D(9,5,8,12)     =     64.381751    -0.000012    -0.974226    63.407524
	   94 D(9,5,8,13)     =   -179.679394    -0.000007    -0.850200  -180.529593
	   95 D(10,5,8,11)    =     58.582961     0.000009    -0.333929    58.249032
	   96 D(10,5,8,12)    =   -179.631261     0.000007    -0.357344  -179.988605
	   97 D(10,5,8,13)    =    -63.692405     0.000012    -0.233317   -63.925722
	   98 D(12,8,11,14)   =     58.150549    -0.000001     0.212408    58.362956
	   99 D(12,8,11,15)   =    -63.913923     0.000000     0.241392   -63.672531
	  100 D(12,8,11,16)   =   -179.812712    -0.000001     0.192206  -179.620507
	  101 D(13,8,11,14)   =    -57.839792    -0.000000     0.196660   -57.643132
[...]
	 D(1,2,3,7)       =        -2.228770	    -127.699092
	 D(1,2,4,20)      =        -0.001812	      -0.103814
	 D(2,3,5,8)       =         1.929031	     110.525357
	 D(2,3,5,9)       =        -0.182168	     -10.437486
	 D(2,3,5,10)      =        -2.224456	    -127.451956
	 D(2,4,20,21)     =        -1.058279	     -60.634905
	 D(2,4,20,22)     =         3.140111	     179.915081
	 D(2,4,20,23)     =         1.055305	      60.464518
	 D(3,2,4,20)      =         3.130102	     179.341637
	 D(3,5,8,11)      =        -3.128965	    -179.276500
	 D(3,5,8,12)      =        -1.003879	     -57.518012
	 D(3,5,8,13)      =         1.022064	      58.559935
	 D(4,2,3,5)       =         3.101438	     177.699294
	 D(4,2,3,6)       =        -1.039522	     -59.560205
	 D(4,2,3,7)       =         0.922883	      52.877308
	 D(5,8,11,14)     =         3.140721	     179.950049
	 D(5,8,11,15)     =         1.010752	      57.911806
	 D(5,8,11,16)     =        -1.012785	     -58.028304
	 D(6,3,5,8)       =        -0.157729	      -9.037179
	*D(6,3,5,9)       =        -2.268928	    -130.000021
	 D(6,3,5,10)      =         1.971969	     112.985508
	 D(7,3,5,8)       =        -2.225392	    -127.505580
	 D(7,3,5,9)       =         1.946593	     111.531577
	 D(7,3,5,10)      =        -0.095695	      -5.482893
	 D(8,11,14,17)    =        -1.047717	     -60.029760
	 D(8,11,14,18)    =         3.140844	     179.957085
	 D(8,11,14,19)    =         1.045608	      59.908939
	 D(9,5,8,11)      =        -1.014418	     -58.121888
	 D(9,5,8,12)      =         1.110668	      63.636600
	 D(9,5,8,13)      =         3.136611	     179.714548
	 D(10,5,8,11)     =         1.022122	      58.563289
	 D(10,5,8,12)     =        -3.135977	    -179.678223
	 D(10,5,8,13)     =        -1.110034	     -63.600275
	 D(12,8,11,14)    =         1.017759	      58.313309
	 D(12,8,11,15)    =        -1.112210	     -63.724933
	 D(12,8,11,16)    =        -3.135747	    -179.665043
	 D(13,8,11,14)    =        -1.007461	     -57.723290
	 D(13,8,11,15)    =        -3.137431	    -179.761533
	 D(13,8,11,16)    =         1.122218	      64.298357
	 D(15,11,14,17)   =         1.080567	      61.911937
	 D(15,11,14,18)   =        -1.014058	     -58.101218
	 D(15,11,14,19)   =        -3.109293	    -178.149364
	 D(16,11,14,17)   =         3.106257	     177.975442
	 D(16,11,14,18)   =         1.011633	      57.962287
	 D(16,11,14,19)   =        -1.083603	     -62.085859

	Current energy   :      -422.9720696062

	Energy change for the previous step:
		Projected    :         0.0000000269
		Actual       :        -0.0000007216

	Performing BFGS update.
	Previous computed or guess Hessian on step 1.
	Steps to be used in Hessian update: 7 6
	Taking RFO optimization step.
	Going to follow RFO solution 1.
	Using RFO vector 1.
	Norm of target step-size    0.01510
	Projected energy change by RFO approximation:         0.0000006934

	Back-transformation to cartesian coordinates...
	Successfully converged to displaced geometry.

	Back-transformation to cartesian coordinates to adjust frozen coordinates...
	Successfully converged to displaced geometry.

	--- Internal Coordinate Step in ANG or DEG, aJ/ANG or AJ/DEG ---
	 ---------------------------------------------------------------------------
	   Coordinate                Previous        Force       Change         New 
	   ----------                --------       ------       ------       ------
	    1 R(1,2)          =      1.188703     0.000584     0.000042     1.188745
	    2 R(2,3)          =      1.512785    -0.000392    -0.000124     1.512661
	    3 R(2,4)          =      1.327147    -0.000630    -0.000094     1.327053
	    4 R(3,5)          =      1.537048     0.000245     0.000071     1.537118
	    5 R(3,6)          =      1.086481     0.000137     0.000051     1.086532
	    6 R(3,7)          =      1.084580     0.000013    -0.000014     1.084566
	    7 R(4,20)         =      1.415994     0.000109     0.000021     1.416015
	    8 R(5,8)          =      1.531302    -0.000395    -0.000111     1.531191
	    9 R(5,9)          =      1.082712     0.000090     0.000026     1.082738
	   10 R(5,10)         =      1.085803     0.000155     0.000043     1.085846
	   11 R(8,11)         =      1.528868    -0.000058    -0.000010     1.528858
	   12 R(8,12)         =      1.088798    -0.000012    -0.000002     1.088796
	   13 R(8,13)         =      1.089147     0.000081     0.000015     1.089161
	   14 R(11,14)        =      1.528272    -0.000030    -0.000009     1.528263
	   15 R(11,15)        =      1.087571     0.000004     0.000001     1.087572
	   16 R(11,16)        =      1.088138     0.000010     0.000004     1.088141
	   17 R(14,17)        =      1.086301     0.000025     0.000002     1.086303
	   18 R(14,18)        =      1.085576     0.000001     0.000001     1.085577
	   19 R(14,19)        =      1.086477    -0.000028    -0.000003     1.086474
	   20 R(20,21)        =      1.080517     0.000000    -0.000000     1.080517
	   21 R(20,22)        =      1.078871    -0.000015    -0.000003     1.078868
	   22 R(20,23)        =      1.080479    -0.000041    -0.000008     1.080472
	   23 B(1,2,3)        =    126.226134    -0.000001    -0.006922   126.219212
	   24 B(1,2,4)        =    123.020425    -0.000000    -0.001409   123.019017
	   25 B(2,3,5)        =    114.216981     0.000002     0.010754   114.227735
	   26 B(2,3,6)        =    105.636063    -0.000001    -0.009422   105.626641
	   27 B(2,3,7)        =    106.959765    -0.000000     0.020662   106.980427
	   28 B(2,4,20)       =    117.025673     0.000001     0.003001   117.028674
	   29 B(3,2,4)        =    110.750832     0.000001     0.008108   110.758940
	   30 B(3,5,8)        =    113.003122     0.000000     0.007665   113.010787
	   31 B(3,5,9)        =    109.021993    -0.000001    -0.003059   109.018934
	   32 B(3,5,10)       =    109.495367     0.000000    -0.007558   109.487809
	   33 B(4,20,21)      =    110.597312    -0.000001    -0.004783   110.592529
	   34 B(4,20,22)      =    105.865841    -0.000000    -0.000123   105.865719
	   35 B(4,20,23)      =    110.591567     0.000001     0.001914   110.593481
	   36 B(5,3,6)        =    111.372490    -0.000000    -0.013178   111.359311
	   37 B(5,3,7)        =    112.239263    -0.000000     0.006583   112.245846
	   38 B(5,8,11)       =    113.034237     0.000000     0.004978   113.039215
	   39 B(5,8,12)       =    109.056890    -0.000000    -0.004246   109.052644
	   40 B(5,8,13)       =    109.584476     0.000000     0.001321   109.585796
	   41 B(6,3,7)        =    105.839610    -0.000000    -0.017335   105.822274
	   42 B(8,5,9)        =    108.683756     0.000001     0.007751   108.691507
	   43 B(8,5,10)       =    109.250103    -0.000000     0.002998   109.253101
	   44 B(8,11,14)      =    112.994302    -0.000001    -0.004252   112.990050
	   45 B(8,11,15)      =    109.239055     0.000000    -0.001833   109.237222
	   46 B(8,11,16)      =    109.310238     0.000000     0.004186   109.314424
	   47 B(9,5,10)       =    107.218733     0.000000    -0.008573   107.210160
	   48 B(11,8,12)      =    109.273220    -0.000000    -0.003942   109.269278
	   49 B(11,8,13)      =    109.292942    -0.000000     0.001183   109.294126
	   50 B(11,14,17)     =    111.133466     0.000001     0.001733   111.135198
	   51 B(11,14,18)     =    111.233277     0.000000     0.000664   111.233941
	   52 B(11,14,19)     =    111.187886    -0.000000    -0.001196   111.186690
	   53 B(12,8,13)      =    106.380812     0.000000     0.000406   106.381218
	   54 B(14,11,15)     =    109.411018    -0.000000    -0.002080   109.408938
	   55 B(14,11,16)     =    109.358071     0.000001     0.004375   109.362446
	   56 B(15,11,16)     =    106.308170    -0.000000    -0.000153   106.308018
	   57 B(17,14,18)     =    107.716548    -0.000000    -0.000517   107.716031
	   58 B(17,14,19)     =    107.681727    -0.000000    -0.000438   107.681289
	   59 B(18,14,19)     =    107.715278     0.000000    -0.000319   107.714958
	   60 B(21,20,22)     =    110.274949     0.000000     0.000615   110.275564
	   61 B(21,20,23)     =    109.201246     0.000000     0.000625   109.201871
	   62 B(22,20,23)     =    110.277993     0.000000     0.001736   110.279729
	   63 D(1,2,3,5)      =     -2.877106    -0.000000    -0.227213    -3.104319
	   64 D(1,2,3,6)      =    119.863394    -0.000000    -0.243872   119.619523
	   65 D(1,2,3,7)      =   -127.699092    -0.000000    -0.258803  -127.957895
	   66 D(1,2,4,20)     =     -0.103814     0.000000     0.002776    -0.101038
	   67 D(2,3,5,8)      =    110.525357     0.000000    -0.001713   110.523644
	   68 D(2,3,5,9)      =    -10.437486    -0.000000    -0.014441   -10.451927
	   69 D(2,3,5,10)     =   -127.451956     0.000000     0.001912  -127.450044
	   70 D(2,4,20,21)    =    -60.634905     0.000000     0.039207   -60.595697
	   71 D(2,4,20,22)    =    179.915081     0.000000     0.041120   179.956201
	   72 D(2,4,20,23)    =     60.464518    -0.000000     0.038085    60.502603
	   73 D(3,2,4,20)     =    179.341637     0.000000    -0.020483   179.321154
	   74 D(3,5,8,11)     =   -179.276500     0.000000    -0.058085  -179.334585
	   75 D(3,5,8,12)     =    -57.518012     0.000000    -0.062815   -57.580827
	   76 D(3,5,8,13)     =     58.559935     0.000000    -0.063989    58.495946
	   77 D(4,2,3,5)      =    177.699294    -0.000000    -0.203080   177.496213
	   78 D(4,2,3,6)      =    -59.560205     0.000000    -0.219740   -59.779945
	   79 D(4,2,3,7)      =     52.877308    -0.000000    -0.234670    52.642637
	   80 D(5,8,11,14)    =    179.950049    -0.000000    -0.184235   179.765814
	   81 D(5,8,11,15)    =     57.911806    -0.000000    -0.177376    57.734431
	   82 D(5,8,11,16)    =    -58.028304    -0.000000    -0.178505   -58.206809
	   83 D(6,3,5,8)      =     -9.037179     0.000000     0.012728    -9.024450
	   84 *D(6,3,5,9)     =   -130.000021    -0.000000     0.000000  -130.000021
	   85 D(6,3,5,10)     =    112.985508     0.000000     0.016353   113.001862
	   86 D(7,3,5,8)      =   -127.505580     0.000000     0.039271  -127.466309
	   87 D(7,3,5,9)      =    111.531577     0.000000     0.026543   111.558120
	   88 D(7,3,5,10)     =     -5.482893     0.000000     0.042896    -5.439997
	   89 D(8,11,14,17)   =    -60.029760     0.000000     0.111311   -59.918450
	   90 D(8,11,14,18)   =    179.957085     0.000000     0.110355   180.067440
	   91 D(8,11,14,19)   =     59.908939     0.000000     0.111117    60.020056
	   92 D(9,5,8,11)     =    -58.121888     0.000000    -0.051532   -58.173420
	   93 D(9,5,8,12)     =     63.636600    -0.000000    -0.056262    63.580338
	   94 D(9,5,8,13)     =    179.714548    -0.000000    -0.057436   179.657112
	   95 D(10,5,8,11)    =     58.563289     0.000000    -0.055771    58.507519
	   96 D(10,5,8,12)    =   -179.678223    -0.000000    -0.060501  -179.738724
	   97 D(10,5,8,13)    =    -63.600275    -0.000000    -0.061675   -63.661950
	   98 D(12,8,11,14)   =     58.313309    -0.000000    -0.179339    58.133970
	   99 D(12,8,11,15)   =    -63.724933    -0.000000    -0.172480   -63.897413
	  100 D(12,8,11,16)   =   -179.665043    -0.000000    -0.173609  -179.838652
	  101 D(13,8,11,14)   =    -57.723290    -0.000000    -0.178280   -57.901570
	  102 D(13,8,11,15)   =   -179.761533     0.000000    -0.171421  -179.932953
	  103 D(13,8,11,16)   =     64.298357     0.000000    -0.172550    64.125807
	  104 D(15,11,14,17)  =     61.911937     0.000000     0.104575    62.016512
	  105 D(15,11,14,18)  =    -58.101218     0.000000     0.103619   -57.997599
	  106 D(15,11,14,19)  =   -178.149364     0.000000     0.104381  -178.044983
	  107 D(16,11,14,17)  =    177.975442     0.000000     0.105687   178.081129
	  108 D(16,11,14,18)  =     57.962287     0.000000     0.104732    58.067019
	  109 D(16,11,14,19)  =    -62.085859     0.000000     0.105494   -61.980366
	 ---------------------------------------------------------------------------

  ==> Convergence Check <==

  Measures of convergence in internal coordinates in au.
  Criteria marked as inactive (o), active & met (*), and active & unmet ( ).
  ---------------------------------------------------------------------------------------------
   Step     Total Energy     Delta E     MAX Force     RMS Force      MAX Disp      RMS Disp   
  ---------------------------------------------------------------------------------------------
    Convergence Criteria    1.00e-06 *    3.00e-04 *             o    1.20e-03 *             o
  ---------------------------------------------------------------------------------------------
      8    -422.97206961   -7.22e-07 *    7.65e-05 *    1.40e-05 o    4.52e-03      1.45e-03 o  ~
  ---------------------------------------------------------------------------------------------


  **** Optimization is complete! (in 8 steps) ****

  ==> Optimization Summary <==

  Measures of convergence in internal coordinates in au.
  --------------------------------------------------------------------------------------------------------------- ~
   Step         Total Energy             Delta E       MAX Force       RMS Force        MAX Disp        RMS Disp  ~
  --------------------------------------------------------------------------------------------------------------- ~
      1    -422.971645123678   -422.971645123678      0.00951312      0.00143848      0.03819896      0.01071131  ~
      2    -422.971956368082     -0.000311244404      0.00449754      0.00073171      0.04881281      0.01146057  ~
      3    -422.971795611133      0.000160756950      0.00231142      0.00060011      0.03626279      0.00890467  ~
      4    -422.972059695513     -0.000264084380      0.00044504      0.00008173      0.01842539      0.00638807  ~
      5    -422.972062048811     -0.000002353298      0.00020027      0.00004165      0.00816941      0.00299319  ~
      6    -422.972066310450     -0.000004261639      0.00015727      0.00003091      0.01802677      0.00422596  ~
      7    -422.972068884541     -0.000002574091      0.00013760      0.00002831      0.01144016      0.00252699  ~
      8    -422.972069606173     -0.000000721632      0.00007648      0.00001400      0.00451696      0.00144671  ~
  --------------------------------------------------------------------------------------------------------------- ~

	Writing optimization data to binary file.
	Final energy is   -422.9720696061731
	Final (previous) structure:
	Cartesian Geometry (in Angstrom)
	    O     1.6251229365   0.9946630256   0.4944230871
	    C     1.4758119356  -0.1820915304   0.5716811158
	    C     0.1529149174  -0.9151119021   0.6054760217
	    O     2.4889382119  -1.0374730971   0.6283954167
	    C    -1.0781547129   0.0051877859   0.5998745298
	    H     0.1600192044  -1.5721683096  -0.2597800661
	    H     0.1743454668  -1.5667472299   1.4722085580
	    C    -1.8700872218  -0.0627030835  -0.7089874276
	    H    -0.7558317481   1.0266958625   0.7576518035
	    H    -1.7306331160  -0.2573781619   1.4270981784
	    C    -3.0848359905   0.8655495892  -0.7220308642
	    H    -1.2115719586   0.1955073413  -1.5367353061
	    H    -2.1975903418  -1.0864482183  -0.8848510932
	    C    -3.8738236980   0.7979696187  -2.0291449713
	    H    -2.7563631822   1.8880540531  -0.5505644979
	    H    -3.7404657687   0.6118888790   0.1085412463
	    H    -3.2545192324   1.0810834814  -2.8755244572
	    H    -4.7289176472   1.4664078432  -2.0072401694
	    H    -4.2442406881  -0.2067790232  -2.2127332361
	    C     3.7948830769  -0.4914532312   0.5908693883
	    H     3.9531604645   0.0525265834  -0.3292127874
	    H     4.4680258497  -1.3326020715   0.6484005583
	    H     3.9532329040   0.1728351787   1.4281757859
	Saving final (previous) structure.
			--------------------------
			 OPTKING Finished Execution 
			--------------------------

    Final optimized geometry and variables:
    Molecular point group: c1
    Full point group: C1

    Geometry (in Angstrom), charge = 0, multiplicity = 1:

    O            1.625122812387     0.994662949645     0.494423049319
    C            1.475811822929    -0.182091516500     0.571681072130
    C            0.152914905676    -0.915111832223     0.605475975509
    O            2.488938021869    -1.037473017887     0.628395368733
    C           -1.078154630592     0.005187785524     0.599874483988
    H            0.160019192221    -1.572168189495    -0.259780046244
    H            0.174345453474    -1.566747110280     1.472208445626
    C           -1.870087078977    -0.062703078718    -0.708987373466
    H           -0.755831690346     1.026695784077     0.757651745677
    H           -1.730632983802    -0.257378142254     1.427098069374
    C           -3.084835754975     0.865549523141    -0.722030809060
    H           -1.211571866053     0.195507326338    -1.536735188746
    H           -2.197590173986    -1.086448135300    -0.884851025614
    C           -3.873823402180     0.797969557714    -2.029144816346
    H           -2.756362971669     1.888053908919    -0.550564455820
    H           -3.740465483031     0.611888832267     0.108541238006
    H           -3.254518983909     1.081083398815    -2.875524237580
    H           -4.728917286069     1.466407731234    -2.007240016113
    H           -4.244240363982    -0.206779007385    -2.212733067115
    C            3.794882787064    -0.491453193678     0.590869343207
    H            3.953160162651     0.052526579383    -0.329212762251
    H            4.468025508465    -1.332601969706     0.648400508783
    H            3.953232602106     0.172835165464     1.428175676885

	Cleaning optimization helper files.


Properties will be evaluated at   0.000000,   0.000000,   0.000000 Bohr

Properties computed using the  density matrix

  Nuclear Dipole Moment: (a.u.)
     X:   -11.1468      Y:     0.4431      Z:    -4.5081

  Electronic Dipole Moment: (a.u.)
     X:    11.2792      Y:    -1.1075      Z:     4.5569

  Dipole Moment: (a.u.)
     X:     0.1325      Y:    -0.6644      Z:     0.0488     Total:     0.6792

  Dipole Moment: (Debye)
     X:     0.3368      Y:    -1.6887      Z:     0.1240     Total:     1.7264

  Quadrupole Moment: (Debye Ang)
    XX:   -49.4278     YY:   -60.4172     ZZ:   -56.0396
    XY:    -2.1893     XZ:    -0.1327     YZ:    -0.9225

  Traceless Quadrupole Moment: (Debye Ang)
    XX:     5.8671     YY:    -5.1224     ZZ:    -0.7447
    XY:    -2.1893     XZ:    -0.1327     YZ:    -0.9225

  Mulliken Charges: (a.u.)
   Center  Symbol    Alpha    Beta     Spin     Total
       1     O     4.28521  4.28521  0.00000 -0.57043
       2     C     2.61274  2.61274  0.00000  0.77451
       3     C     3.20946  3.20946  0.00000 -0.41891
       4     O     4.30559  4.30559  0.00000 -0.61117
       5     C     3.16177  3.16177  0.00000 -0.32354
       6     H     0.39788  0.39788  0.00000  0.20424
       7     H     0.39700  0.39700  0.00000  0.20601
       8     C     3.15476  3.15476  0.00000 -0.30953
       9     H     0.39511  0.39511  0.00000  0.20978
      10     H     0.41900  0.41900  0.00000  0.16199
      11     C     3.15276  3.15276  0.00000 -0.30552
      12     H     0.42056  0.42056  0.00000  0.15888
      13     H     0.42485  0.42485  0.00000  0.15030
      14     C     3.23945  3.23945  0.00000 -0.47890
      15     H     0.41950  0.41950  0.00000  0.16101
      16     H     0.42337  0.42337  0.00000  0.15325
      17     H     0.42099  0.42099  0.00000  0.15801
      18     H     0.41896  0.41896  0.00000  0.16207
      19     H     0.42241  0.42241  0.00000  0.15517
      20     C     3.09204  3.09204  0.00000 -0.18409
      21     H     0.40918  0.40918  0.00000  0.18164
      22     H     0.40846  0.40846  0.00000  0.18307
      23     H     0.40893  0.40893  0.00000  0.18213

   Total alpha = 36.00000, Total beta = 36.00000, Total charge =  0.00000


*** PSI4 exiting successfully. Buy a developer a beer!
