    -----------------------------------------------------------------------
          Psi4: An Open-Source Ab Initio Electronic Structure Package
                              Psi4 1.0.54 Driver

                          Git: Rev {master} 8d4cec3 dirty

    J. M. Turney, A. C. Simmonett, R. M. Parrish, E. G. Hohenstein,
    F. A. Evangelista, J. T. Fermann, B. J. Mintz, L. A. Burns, J. J. Wilke,
    M. L. Abrams, N. J. Russ, M. L. Leininger, C. L. Janssen, E. T. Seidl,
    W. D. Allen, H. F. Schaefer, R. A. King, E. F. Valeev, C. D. Sherrill,
    and T. D. Crawford, WIREs Comput. Mol. Sci. 2, 556-565 (2012)
    (doi: 10.1002/wcms.93)

                         Additional Contributions by
    A. E. DePrince, U. Bozkaya, A. Yu. Sokolov, D. G. A. Smith, R. Di Remigio,
    R. M. Richard, J. F. Gonthier, H. R. McAlexander, M. Saitow, and
    B. P. Pritchard
    -----------------------------------------------------------------------


    Psi4 started on: Sat Sep 10 22:11:04 2016

    Process ID:  41410
    PSI4DATADIR: /export131/home/mjharvey/miniconda3/share/psi4
    Memory level set to 256.000 MB

  ==> Input File <==

--------------------------------------------------------------------------
set {
	reference rhf
	basis cc-pvtz
}


set_num_threads( 4 )
memory 2 gb

molecule MOL {
0 1

H	 0.482112	 3.214670	 0.978152
C	 0.349048	 2.418466	 1.723295
C	 -0.948986	 1.664576	 1.620104
O	 1.188958	 2.217425	 2.530414
C	 -1.216901	 1.136108	 0.207794
H	 -0.942446	 0.865919	 2.350473
H	 -1.736137	 2.363028	 1.895535
C	 -0.247837	 0.040196	 -0.230469
H	 -2.231870	 0.755557	 0.170946
H	 -1.178476	 1.961725	 -0.498657
C	 1.181757	 0.280428	 0.247371
H	 -0.259600	 -0.030819	 -1.314870
H	 -0.591284	 -0.923375	 0.136958
C	 2.151032	 -0.811012	 -0.202643
H	 1.515939	 1.247397	 -0.115449
H	 1.191514	 0.341223	 1.333422
C	 3.580021	 -0.656538	 0.320835
H	 2.170545	 -0.847575	 -1.289412
H	 1.766632	 -1.772905	 0.124928
C	 4.327657	 0.562694	 -0.213579
H	 4.138806	 -1.549270	 0.057813
H	 3.561991	 -0.620783	 1.406976
H	 4.355973	 0.557257	 -1.298551
H	 3.867136	 1.491650	 0.100501
H	 5.351524	 0.571613	 0.142204

	symmetry c1
}
set optking {
	frozen_dihedral = ("
		3 5 8 12
	")
}

ee,wfn = optimize('scf', return_wfn=True)
oeprop( wfn, 'DIPOLE', 'QUADRUPOLE', 'MULLIKEN_CHARGES')
f=open( 'psi4out.xyz', 'w' )
f.write( "25  " )
f.write( str(ee) + "\n" )
f.write( MOL.save_string_xyz() )
f.close()
--------------------------------------------------------------------------

  Memory set to   2.000 GiB by Python script.
gradient() will perform analytic gradient computation.

*** tstart() called on cx1-27-2-1
*** at Sat Sep 10 22:11:05 2016


         ---------------------------------------------------------
                                   SCF
            by Justin Turney, Rob Parrish, and Andy Simmonett
                              RHF Reference
                        4 Threads,   2000 MiB Core
         ---------------------------------------------------------

  ==> Geometry <==

    Molecular point group: c1
    Full point group: C1

    Geometry (in Angstrom), charge = 0, multiplicity = 1:

       Center              X                  Y                   Z               Mass       
    ------------   -----------------  -----------------  -----------------  -----------------
           H         -0.694573457920     2.443740940508     0.304097523783     1.007825032070
           C         -0.827637457920     1.647536940508     1.049240523783    12.000000000000
           C         -2.125671457920     0.893646940508     0.946049523783    12.000000000000
           O          0.012272542080     1.446495940508     1.856359523783    15.994914619560
           C         -2.393586457920     0.365178940508    -0.466260476217    12.000000000000
           H         -2.119131457920     0.094989940508     1.676418523783     1.007825032070
           H         -2.912822457920     1.592098940508     1.221480523783     1.007825032070
           C         -1.424522457920    -0.730733059492    -0.904523476217    12.000000000000
           H         -3.408555457920    -0.015372059492    -0.503108476217     1.007825032070
           H         -2.355161457920     1.190795940508    -1.172711476217     1.007825032070
           C          0.005071542080    -0.490501059492    -0.426683476217    12.000000000000
           H         -1.436285457920    -0.801748059492    -1.988924476217     1.007825032070
           H         -1.767969457920    -1.694304059492    -0.537096476217     1.007825032070
           C          0.974346542080    -1.581941059492    -0.876697476217    12.000000000000
           H          0.339253542080     0.476467940508    -0.789503476217     1.007825032070
           H          0.014828542080    -0.429706059492     0.659367523783     1.007825032070
           C          2.403335542080    -1.427467059492    -0.353219476217    12.000000000000
           H          0.993859542080    -1.618504059492    -1.963466476217     1.007825032070
           H          0.589946542080    -2.543834059492    -0.549126476217     1.007825032070
           C          3.150971542080    -0.208235059492    -0.887633476217    12.000000000000
           H          2.962120542080    -2.320199059492    -0.616241476217     1.007825032070
           H          2.385305542080    -1.391712059492     0.732921523783     1.007825032070
           H          3.179287542080    -0.213672059492    -1.972605476217     1.007825032070
           H          2.690450542080     0.720720940508    -0.573553476217     1.007825032070
           H          4.174838542080    -0.199316059492    -0.531850476217     1.007825032070

  Running in c1 symmetry.

  Rotational constants: A =      0.07370  B =      0.03031  C =      0.02356 [cm^-1]
  Rotational constants: A =   2209.55817  B =    908.77874  C =    706.39479 [MHz]
  Nuclear repulsion =  469.641520536219730

  Charge       = 0
  Multiplicity = 1
  Electrons    = 72
  Nalpha       = 36
  Nbeta        = 36

  ==> Algorithm <==

  SCF Algorithm Type is DF.
  DIIS enabled.
  MOM disabled.
  Fractional occupation disabled.
  Guess Type is SAD.
  Energy threshold   = 1.00e-08
  Density threshold  = 1.00e-08
  Integral threshold = 0.00e+00

  ==> Primary Basis <==

  Basis Set: CC-PVTZ
    Number of shells: 186
    Number of basis function: 494
    Number of Cartesian functions: 555
    Spherical Harmonics?: true
    Max angular momentum: 3

  ==> Pre-Iterations <==

   -------------------------------------------------------
    Irrep   Nso     Nmo     Nalpha   Nbeta   Ndocc  Nsocc
   -------------------------------------------------------
     A        494     494       0       0       0       0
   -------------------------------------------------------
    Total     494     494      36      36      36       0
   -------------------------------------------------------

  ==> Integral Setup <==

  ==> DFJK: Density-Fitted J/K Matrices <==

    J tasked:                  Yes
    K tasked:                  Yes
    wK tasked:                  No
    OpenMP threads:              4
    Integrals threads:           4
    Memory (MB):              1430
    Algorithm:                Core
    Integral Cache:           NONE
    Schwarz Cutoff:          1E-12
    Fitting Condition:       1E-12

   => Auxiliary Basis Set <=

  Basis Set: 
    Number of shells: 385
    Number of basis function: 1191
    Number of Cartesian functions: 1424
    Spherical Harmonics?: true
    Max angular momentum: 4

  Minimum eigenvalue in the overlap matrix is 2.5528356506E-04.
  Using Symmetric Orthogonalization.
  SCF Guess: Superposition of Atomic Densities via on-the-fly atomic UHF.

  ==> Iterations <==

                           Total Energy        Delta E     RMS |[F,P]|

   @DF-RHF iter   0:  -391.56898128769677   -3.91569e+02   1.20660e-02 
   @DF-RHF iter   1:  -386.92999469277703    4.63899e+00   1.39805e-03 
   @DF-RHF iter   2:  -387.16842067714430   -2.38426e-01   8.70108e-04 DIIS
   @DF-RHF iter   3:  -387.23538373907553   -6.69631e-02   2.41777e-04 DIIS
   @DF-RHF iter   4:  -387.24460598015622   -9.22224e-03   5.46037e-05 DIIS
   @DF-RHF iter   5:  -387.24532702658956   -7.21046e-04   1.93307e-05 DIIS
   @DF-RHF iter   6:  -387.24543921558467   -1.12189e-04   8.31352e-06 DIIS
   @DF-RHF iter   7:  -387.24546849238283   -2.92768e-05   3.50513e-06 DIIS
   @DF-RHF iter   8:  -387.24547621103289   -7.71865e-06   1.48224e-06 DIIS
   @DF-RHF iter   9:  -387.24547772670081   -1.51567e-06   5.76091e-07 DIIS
   @DF-RHF iter  10:  -387.24547794864560   -2.21945e-07   2.37178e-07 DIIS
   @DF-RHF iter  11:  -387.24547798145119   -3.28056e-08   8.88937e-08 DIIS
   @DF-RHF iter  12:  -387.24547798522559   -3.77440e-09   2.76520e-08 DIIS
   @DF-RHF iter  13:  -387.24547798550060   -2.75008e-10   8.03288e-09 DIIS

  ==> Post-Iterations <==

    Orbital Energies (a.u.)
    -----------------------

    Doubly Occupied:                                                      

       1A    -20.546893     2A    -11.322396     3A    -11.234563  
       4A    -11.232140     5A    -11.218785     6A    -11.209915  
       7A    -11.208728     8A    -11.208401     9A    -11.201368  
      10A     -1.406667    11A     -1.106915    12A     -1.064785  
      13A     -1.006039    14A     -0.943919    15A     -0.881268  
      16A     -0.811085    17A     -0.787859    18A     -0.778013  
      19A     -0.669865    20A     -0.655822    21A     -0.640349  
      22A     -0.624786    23A     -0.606608    24A     -0.584762  
      25A     -0.561838    26A     -0.556654    27A     -0.541723  
      28A     -0.527901    29A     -0.509526    30A     -0.502701  
      31A     -0.478645    32A     -0.468780    33A     -0.456364  
      34A     -0.444461    35A     -0.441931    36A     -0.411049  

    Virtual:                                                              

      37A      0.132067    38A      0.138938    39A      0.149910  
      40A      0.157711    41A      0.169714    42A      0.184769  
      43A      0.188666    44A      0.195573    45A      0.207644  
      46A      0.215441    47A      0.222147    48A      0.231038  
      49A      0.249584    50A      0.254501    51A      0.264103  
      52A      0.271403    53A      0.290298    54A      0.305135  
      55A      0.330193    56A      0.335114    57A      0.353914  
      58A      0.365309    59A      0.368539    60A      0.380015  
      61A      0.397974    62A      0.401193    63A      0.423484  
      64A      0.423997    65A      0.436175    66A      0.446504  
      67A      0.453410    68A      0.469306    69A      0.485143  
      70A      0.502035    71A      0.522335    72A      0.541009  
      73A      0.553979    74A      0.561671    75A      0.570233  
      76A      0.578522    77A      0.584115    78A      0.591742  
      79A      0.603704    80A      0.608754    81A      0.617181  
      82A      0.624249    83A      0.635385    84A      0.639104  
      85A      0.646963    86A      0.651537    87A      0.656985  
      88A      0.661733    89A      0.667133    90A      0.675050  
      91A      0.678719    92A      0.683613    93A      0.686902  
      94A      0.703733    95A      0.710840    96A      0.718684  
      97A      0.726667    98A      0.732356    99A      0.747122  
     100A      0.760818   101A      0.787545   102A      0.801234  
     103A      0.803230   104A      0.821076   105A      0.850047  
     106A      0.869648   107A      0.885176   108A      0.888962  
     109A      0.920857   110A      0.935868   111A      0.945624  
     112A      0.956325   113A      0.970112   114A      0.978887  
     115A      0.990073   116A      0.999216   117A      1.017404  
     118A      1.030146   119A      1.044027   120A      1.055762  
     121A      1.070195   122A      1.105297   123A      1.115889  
     124A      1.117209   125A      1.134928   126A      1.141236  
     127A      1.153981   128A      1.172685   129A      1.200773  
     130A      1.206422   131A      1.215681   132A      1.229647  
     133A      1.242546   134A      1.248416   135A      1.252975  
     136A      1.266441   137A      1.283486   138A      1.284327  
     139A      1.300304   140A      1.304296   141A      1.313303  
     142A      1.330004   143A      1.336749   144A      1.344708  
     145A      1.357114   146A      1.360308   147A      1.367035  
     148A      1.372693   149A      1.388049   150A      1.390502  
     151A      1.403681   152A      1.418550   153A      1.425754  
     154A      1.434767   155A      1.443166   156A      1.451424  
     157A      1.456062   158A      1.468695   159A      1.477930  
     160A      1.482267   161A      1.491985   162A      1.506590  
     163A      1.516651   164A      1.527374   165A      1.530524  
     166A      1.538335   167A      1.556578   168A      1.561147  
     169A      1.575115   170A      1.580983   171A      1.603182  
     172A      1.615425   173A      1.627176   174A      1.639058  
     175A      1.644510   176A      1.673558   177A      1.682784  
     178A      1.685670   179A      1.698840   180A      1.708851  
     181A      1.725170   182A      1.733598   183A      1.741367  
     184A      1.745075   185A      1.757245   186A      1.785896  
     187A      1.790342   188A      1.821047   189A      1.830149  
     190A      1.836263   191A      1.854352   192A      1.874088  
     193A      1.892115   194A      1.903333   195A      1.936374  
     196A      1.979830   197A      2.003055   198A      2.014855  
     199A      2.039001   200A      2.050265   201A      2.103649  
     202A      2.133972   203A      2.235840   204A      2.342717  
     205A      2.425887   206A      2.465859   207A      2.497539  
     208A      2.549130   209A      2.577664   210A      2.598756  
     211A      2.618075   212A      2.653929   213A      2.670269  
     214A      2.692379   215A      2.697841   216A      2.705116  
     217A      2.717068   218A      2.740944   219A      2.761103  
     220A      2.773500   221A      2.778625   222A      2.786826  
     223A      2.809908   224A      2.818334   225A      2.838632  
     226A      2.845885   227A      2.859733   228A      2.873383  
     229A      2.894751   230A      2.904200   231A      2.912941  
     232A      2.930005   233A      2.935707   234A      2.952079  
     235A      2.969702   236A      2.970117   237A      2.993843  
     238A      3.001326   239A      3.003717   240A      3.017383  
     241A      3.037178   242A      3.041556   243A      3.053064  
     244A      3.069092   245A      3.080782   246A      3.093959  
     247A      3.110362   248A      3.136876   249A      3.144059  
     250A      3.159358   251A      3.163109   252A      3.169468  
     253A      3.188234   254A      3.199979   255A      3.218533  
     256A      3.238595   257A      3.261812   258A      3.263869  
     259A      3.274033   260A      3.281449   261A      3.300235  
     262A      3.308013   263A      3.316918   264A      3.322590  
     265A      3.339768   266A      3.355595   267A      3.358340  
     268A      3.367732   269A      3.380366   270A      3.387693  
     271A      3.409158   272A      3.418502   273A      3.420040  
     274A      3.433409   275A      3.447160   276A      3.447993  
     277A      3.452317   278A      3.458334   279A      3.469705  
     280A      3.479114   281A      3.484941   282A      3.496340  
     283A      3.504382   284A      3.505656   285A      3.520464  
     286A      3.526599   287A      3.542166   288A      3.555867  
     289A      3.568507   290A      3.574648   291A      3.583204  
     292A      3.597023   293A      3.599242   294A      3.615344  
     295A      3.627503   296A      3.650646   297A      3.667309  
     298A      3.674602   299A      3.682005   300A      3.689890  
     301A      3.694536   302A      3.715423   303A      3.725141  
     304A      3.737764   305A      3.755852   306A      3.776783  
     307A      3.781645   308A      3.800464   309A      3.821568  
     310A      3.823761   311A      3.852007   312A      3.856489  
     313A      3.865202   314A      3.879274   315A      3.885962  
     316A      3.902144   317A      3.916288   318A      3.925199  
     319A      3.936593   320A      3.943881   321A      3.961789  
     322A      3.964383   323A      3.980991   324A      4.000260  
     325A      4.019326   326A      4.024416   327A      4.046917  
     328A      4.057241   329A      4.068814   330A      4.084245  
     331A      4.096567   332A      4.101520   333A      4.114871  
     334A      4.119366   335A      4.125896   336A      4.138623  
     337A      4.147923   338A      4.167437   339A      4.173534  
     340A      4.178797   341A      4.192247   342A      4.194018  
     343A      4.202026   344A      4.218020   345A      4.227302  
     346A      4.237446   347A      4.252937   348A      4.264196  
     349A      4.276100   350A      4.283637   351A      4.297531  
     352A      4.315029   353A      4.324268   354A      4.344940  
     355A      4.349189   356A      4.352239   357A      4.359337  
     358A      4.389136   359A      4.397034   360A      4.402489  
     361A      4.418722   362A      4.419931   363A      4.444392  
     364A      4.453727   365A      4.463406   366A      4.466382  
     367A      4.483222   368A      4.492743   369A      4.497806  
     370A      4.508938   371A      4.521764   372A      4.528349  
     373A      4.539906   374A      4.547453   375A      4.557407  
     376A      4.570546   377A      4.576947   378A      4.594081  
     379A      4.594218   380A      4.631902   381A      4.637580  
     382A      4.646916   383A      4.660545   384A      4.683372  
     385A      4.686559   386A      4.704912   387A      4.714256  
     388A      4.732670   389A      4.745696   390A      4.747719  
     391A      4.768190   392A      4.777327   393A      4.786839  
     394A      4.804673   395A      4.828833   396A      4.839168  
     397A      4.880061   398A      4.893096   399A      4.924594  
     400A      4.957794   401A      4.971904   402A      4.985840  
     403A      5.002598   404A      5.010947   405A      5.023664  
     406A      5.062743   407A      5.080487   408A      5.087581  
     409A      5.095189   410A      5.115308   411A      5.132639  
     412A      5.139111   413A      5.167185   414A      5.187286  
     415A      5.237186   416A      5.241261   417A      5.249238  
     418A      5.253780   419A      5.259993   420A      5.280498  
     421A      5.297530   422A      5.314653   423A      5.323434  
     424A      5.324852   425A      5.359170   426A      5.368699  
     427A      5.386683   428A      5.422441   429A      5.427488  
     430A      5.440648   431A      5.451147   432A      5.473718  
     433A      5.495571   434A      5.504264   435A      5.525840  
     436A      5.547401   437A      5.561154   438A      5.586049  
     439A      5.631845   440A      5.642229   441A      5.654058  
     442A      5.673804   443A      5.697189   444A      5.719884  
     445A      5.734879   446A      5.756193   447A      5.762673  
     448A      5.775713   449A      5.797598   450A      5.799542  
     451A      5.814969   452A      5.853816   453A      5.858272  
     454A      5.869366   455A      5.880656   456A      5.895498  
     457A      5.921051   458A      5.935104   459A      5.952394  
     460A      5.966053   461A      5.989716   462A      6.017111  
     463A      6.027940   464A      6.085129   465A      6.103239  
     466A      6.152078   467A      6.157036   468A      6.179637  
     469A      6.322416   470A      6.353233   471A      6.354785  
     472A      6.367008   473A      6.403638   474A      6.435872  
     475A      6.449540   476A      6.490607   477A      6.561431  
     478A      6.797012   479A      6.829216   480A      6.963064  
     481A      7.052782   482A      7.394143   483A      7.422545  
     484A      7.554890   485A      7.625814   486A     11.122572  
     487A     12.955546   488A     13.251534   489A     13.483018  
     490A     13.706384   491A     13.810054   492A     14.035049  
     493A     14.303144   494A     14.615505  

    Final Occupation by Irrep:
              A 
    DOCC [    36 ]

  Energy converged.

  @DF-RHF Final Energy:  -387.24547798550060

   => Energetics <=

    Nuclear Repulsion Energy =            469.6415205362197298
    One-Electron Energy =               -1456.0669868317647797
    Two-Electron Energy =                 599.1799883100442230
    DFT Exchange-Correlation Energy =       0.0000000000000000
    Empirical Dispersion Energy =           0.0000000000000000
    PCM Polarization Energy =               0.0000000000000000
    EFP Energy =                            0.0000000000000000
    Total Energy =                       -387.2454779855007700


  Saving occupied orbitals to File 180.

*** tstop() called on cx1-27-2-1 at Sat Sep 10 22:11:28 2016
Module time:
	user time   =      83.40 seconds =       1.39 minutes
	system time =       1.36 seconds =       0.02 minutes
	total time  =         23 seconds =       0.38 minutes
Total time:
	user time   =      83.40 seconds =       1.39 minutes
	system time =       1.36 seconds =       0.02 minutes
	total time  =         23 seconds =       0.38 minutes


Properties will be evaluated at   0.000000,   0.000000,   0.000000 Bohr

Properties computed using the SCF density matrix

  Nuclear Dipole Moment: (a.u.)
     X:     2.4707      Y:    -4.4081      Z:    -6.1820

  Electronic Dipole Moment: (a.u.)
     X:    -3.3476      Y:     4.3822      Z:     5.4708

  Dipole Moment: (a.u.)
     X:    -0.8769      Y:    -0.0259      Z:    -0.7113     Total:     1.1294

  Dipole Moment: (Debye)
     X:    -2.2290      Y:    -0.0659      Z:    -1.8078     Total:     2.8707


*** tstart() called on cx1-27-2-1
*** at Sat Sep 10 22:11:28 2016


         ------------------------------------------------------------
                                   SCF GRAD                          
                          Rob Parrish, Justin Turney,                
                       Andy Simmonett, and Alex Sokolov              
         ------------------------------------------------------------

  ==> Geometry <==

    Molecular point group: c1
    Full point group: C1

    Geometry (in Angstrom), charge = 0, multiplicity = 1:

       Center              X                  Y                   Z               Mass       
    ------------   -----------------  -----------------  -----------------  -----------------
           H         -0.694573457920     2.443740940508     0.304097523783     1.007825032070
           C         -0.827637457920     1.647536940508     1.049240523783    12.000000000000
           C         -2.125671457920     0.893646940508     0.946049523783    12.000000000000
           O          0.012272542080     1.446495940508     1.856359523783    15.994914619560
           C         -2.393586457920     0.365178940508    -0.466260476217    12.000000000000
           H         -2.119131457920     0.094989940508     1.676418523783     1.007825032070
           H         -2.912822457920     1.592098940508     1.221480523783     1.007825032070
           C         -1.424522457920    -0.730733059492    -0.904523476217    12.000000000000
           H         -3.408555457920    -0.015372059492    -0.503108476217     1.007825032070
           H         -2.355161457920     1.190795940508    -1.172711476217     1.007825032070
           C          0.005071542080    -0.490501059492    -0.426683476217    12.000000000000
           H         -1.436285457920    -0.801748059492    -1.988924476217     1.007825032070
           H         -1.767969457920    -1.694304059492    -0.537096476217     1.007825032070
           C          0.974346542080    -1.581941059492    -0.876697476217    12.000000000000
           H          0.339253542080     0.476467940508    -0.789503476217     1.007825032070
           H          0.014828542080    -0.429706059492     0.659367523783     1.007825032070
           C          2.403335542080    -1.427467059492    -0.353219476217    12.000000000000
           H          0.993859542080    -1.618504059492    -1.963466476217     1.007825032070
           H          0.589946542080    -2.543834059492    -0.549126476217     1.007825032070
           C          3.150971542080    -0.208235059492    -0.887633476217    12.000000000000
           H          2.962120542080    -2.320199059492    -0.616241476217     1.007825032070
           H          2.385305542080    -1.391712059492     0.732921523783     1.007825032070
           H          3.179287542080    -0.213672059492    -1.972605476217     1.007825032070
           H          2.690450542080     0.720720940508    -0.573553476217     1.007825032070
           H          4.174838542080    -0.199316059492    -0.531850476217     1.007825032070

  Nuclear repulsion =  469.641520536219730

  ==> Basis Set <==

  Basis Set: CC-PVTZ
    Number of shells: 186
    Number of basis function: 494
    Number of Cartesian functions: 555
    Spherical Harmonics?: true
    Max angular momentum: 3

  ==> DFJKGrad: Density-Fitted SCF Gradients <==

    Gradient:                    1
    J tasked:                  Yes
    K tasked:                  Yes
    wK tasked:                  No
    OpenMP threads:              4
    Integrals threads:           4
    Memory (MB):              1430
    Schwarz Cutoff:          0E+00
    Fitting Condition:       1E-12

   => Auxiliary Basis Set <=

  Basis Set: 
    Number of shells: 385
    Number of basis function: 1191
    Number of Cartesian functions: 1424
    Spherical Harmonics?: true
    Max angular momentum: 4


  -Total Gradient:
     Atom            X                  Y                   Z
    ------   -----------------  -----------------  -----------------
       1        0.000984347765    -0.000333023897    -0.000979011488
       2        0.001791269954    -0.008789091607    -0.006488680822
       3        0.001599235212     0.000044805980     0.000178110444
       4        0.002774488554    -0.007784177430    -0.004698299467
       5        0.003323466256    -0.001654973061     0.000253052536
       6        0.000342055003    -0.000237328075    -0.000503448844
       7       -0.000227371557    -0.000028330698     0.000011387775
       8       -0.003080509255     0.003372577439     0.001940388658
       9       -0.000218629061    -0.001433152566     0.000794727359
      10       -0.000647301805    -0.000637213877    -0.001373322695
      11       -0.002329472935     0.009799879287    -0.000206358282
      12        0.001055771936     0.000710373498    -0.000638585587
      13       -0.000450263818    -0.000903225687    -0.001489995395
      14        0.000307128374    -0.000964998394     0.002025164212
      15       -0.001821653258     0.001403184210     0.001089627748
      16       -0.003651239572     0.007053651682     0.010152165996
      17       -0.000069741846    -0.000130376974    -0.000883515979
      18       -0.000325559730     0.000496823840     0.000457735888
      19        0.000328662116    -0.000023329390    -0.000210568683
      20        0.000364321179    -0.000320128934     0.000046938411
      21       -0.000037027215     0.000200172408     0.000260445779
      22        0.000108649535    -0.000295380147     0.000439107472
      23       -0.000106193282     0.000175864944     0.000309807232
      24       -0.000081532063     0.000291242459    -0.000438209116
      25        0.000067099514    -0.000013845010    -0.000048663153


*** tstop() called on cx1-27-2-1 at Sat Sep 10 22:11:49 2016
Module time:
	user time   =      77.07 seconds =       1.28 minutes
	system time =       0.96 seconds =       0.02 minutes
	total time  =         21 seconds =       0.35 minutes
Total time:
	user time   =     160.60 seconds =       2.68 minutes
	system time =       2.33 seconds =       0.04 minutes
	total time  =         44 seconds =       0.73 minutes

			-----------------------------------------
			 OPTKING 2.0: for geometry optimizations 
			  - R.A. King,  Bethel University        
			-----------------------------------------

	Internal coordinates to be generated automatically.
	Detected frag 1 with atoms:  1 2 3 4 5 6 7 8 9 10 11 12 13 14 15 16 17 18 19 20
	 21 22 23 24 25
	---Fragment 1 Bond Connectivity---
	 1 : 2
	 2 : 1 3 4
	 3 : 2 5 6 7
	 4 : 2
	 5 : 3 8 9 10
	 6 : 3
	 7 : 3
	 8 : 5 11 12 13
	 9 : 5
	 10 : 5
	 11 : 8 14 15 16
	 12 : 8
	 13 : 8
	 14 : 11 17 18 19
	 15 : 11
	 16 : 11
	 17 : 14 20 21 22
	 18 : 14
	 19 : 14
	 20 : 17 23 24 25
	 21 : 17
	 22 : 17
	 23 : 20
	 24 : 20
	 25 : 20

	Assuming in current code that numbering for constraints corresponds to unified fragment.
	Frozen dihedral atom list: 
	     3     5     8    12
	---Fragment 1 Geometry and Gradient---
	 H          -1.3125536146        4.6180011173        0.5746610376
	 C          -1.5640081328        3.1133936114        1.9827772375
	 C          -4.0169369040        1.6887479771        1.7877745081
	 O           0.0231917435        2.7334811799        3.5080111041
	 C          -4.5232228809        0.6900881871       -0.8811046066
	 H          -4.0045780951        0.1795049729        3.1679718940
	 H          -5.5044367192        3.0086309740        2.3082636666
	 C          -2.6919573156       -1.3808853587       -1.7093016508
	 H          -6.4412363242       -0.0290489825       -0.9507372352
	 H          -4.4506101542        2.2502782077       -2.2161035229
	 C           0.0095838256       -0.9269126703       -0.8063149155
	 H          -2.7141861641       -1.5150842600       -3.7585225590
	 H          -3.3409780868       -3.2017706583       -1.0149652470
	 C           1.8412481231       -2.9894353608       -1.6567181314
	 H           0.6410962841        0.9003939187       -1.4919453510
	 H           0.0280218835       -0.8120267701        1.2460240409
	 C           4.5416459800       -2.6975218062       -0.6674880749
	 H           1.8781223491       -3.0585294174       -3.7104139112
	 H           1.1148373976       -4.8071496999       -1.0376986524
	 C           5.9544732670       -0.3935072337       -1.6773841764
	 H           5.5975965971       -4.3845407962       -1.1645276218
	 H           4.5075742178       -2.6299546483        1.3850209568
	 H           6.0079827522       -0.4037816747       -3.7276841183
	 H           5.0842146986        1.3619651958       -1.0838589926
	 H           7.8893014935       -0.3766527663       -1.0050517437
	             0.0009843478       -0.0003330239       -0.0009790115
	             0.0017912700       -0.0087890916       -0.0064886808
	             0.0015992352        0.0000448060        0.0001781104
	             0.0027744886       -0.0077841774       -0.0046982995
	             0.0033234663       -0.0016549731        0.0002530525
	             0.0003420550       -0.0002373281       -0.0005034488
	            -0.0002273716       -0.0000283307        0.0000113878
	            -0.0030805093        0.0033725774        0.0019403887
	            -0.0002186291       -0.0014331526        0.0007947274
	            -0.0006473018       -0.0006372139       -0.0013733227
	            -0.0023294729        0.0097998793       -0.0002063583
	             0.0010557719        0.0007103735       -0.0006385856
	            -0.0004502638       -0.0009032257       -0.0014899954
	             0.0003071284       -0.0009649984        0.0020251642
	            -0.0018216533        0.0014031842        0.0010896277
	            -0.0036512396        0.0070536517        0.0101521660
	            -0.0000697418       -0.0001303770       -0.0008835160
	            -0.0003255597        0.0004968238        0.0004577359
	             0.0003286621       -0.0000233294       -0.0002105687
	             0.0003643212       -0.0003201289        0.0000469384
	            -0.0000370272        0.0002001724        0.0002604458
	             0.0001086495       -0.0002953801        0.0004391075
	            -0.0001061933        0.0001758649        0.0003098072
	            -0.0000815321        0.0002912425       -0.0004382091
	             0.0000670995       -0.0000138450       -0.0000486632

	Previous optimization step data not found.  Starting new optimization.

	---Fragment 1 Intrafragment Coordinates---
	 - Coordinate -           - BOHR/RAD -       - ANG/DEG -
	 R(1,2)           =         2.076021	       1.098583
	 R(2,3)           =         2.843326	       1.504623
	 R(2,4)           =         2.233803	       1.182078
	 R(3,5)           =         2.894229	       1.531560
	 R(3,6)           =         2.045217	       1.082282
	 R(3,7)           =         2.055640	       1.087798
	 R(5,8)           =         2.885892	       1.527149
	 R(5,9)           =         2.049581	       1.084592
	 R(5,10)          =         2.054675	       1.087287
	 R(8,11)          =         2.884406	       1.526362
	 R(8,12)          =         2.053731	       1.086787
	 R(8,13)          =         2.054009	       1.086935
	 R(11,14)         =         2.886552	       1.527497
	 R(11,15)         =         2.051328	       1.085516
	 R(11,16)         =         2.055635	       1.087795
	 R(14,17)         =         2.890664	       1.529673
	 R(14,18)         =         2.055189	       1.087559
	 R(14,19)         =         2.053033	       1.086418
	 R(17,20)         =         2.885213	       1.526789
	 R(17,21)         =         2.051369	       1.085538
	 R(17,22)         =         2.053903	       1.086879
	 R(20,23)         =         2.051024	       1.085355
	 R(20,24)         =         2.047268	       1.083367
	 R(20,25)         =         2.048384	       1.083958
	 B(1,2,3)         =         2.005468	     114.904858
	 B(1,2,4)         =         2.094770	     120.021486
	 B(2,3,5)         =         1.968218	     112.770557
	 B(2,3,6)         =         1.894677	     108.556979
	 B(2,3,7)         =         1.859996	     106.569949
	 B(3,2,4)         =         2.182900	     125.070978
	 B(3,5,8)         =         1.983677	     113.656327
	 B(3,5,9)         =         1.892410	     108.427090
	 B(3,5,10)        =         1.908112	     109.326741
	 B(5,3,6)         =         1.948436	     111.637143
	 B(5,3,7)         =         1.905463	     109.174982
	 B(5,8,11)        =         1.973102	     113.050431
	 B(5,8,12)        =         1.903262	     109.048898
	 B(5,8,13)        =         1.916283	     109.794953
	 B(6,3,7)         =         1.883168	     107.897599
	 B(8,5,9)         =         1.909519	     109.407377
	 B(8,5,10)        =         1.913492	     109.635015
	 B(8,11,14)       =         1.971030	     112.931703
	 B(8,11,15)       =         1.900648	     108.899117
	 B(8,11,16)       =         1.906838	     109.253797
	 B(9,5,10)        =         1.851910	     106.106652
	 B(11,8,12)       =         1.910060	     109.438355
	 B(11,8,13)       =         1.906723	     109.247208
	 B(11,14,17)      =         2.004030	     114.822470
	 B(11,14,18)      =         1.906890	     109.256746
	 B(11,14,19)      =         1.895767	     108.619471
	 B(12,8,13)       =         1.850374	     106.018613
	 B(14,11,15)      =         1.920561	     110.040048
	 B(14,11,16)      =         1.905383	     109.170388
	 B(14,17,20)      =         2.002376	     114.727695
	 B(14,17,21)      =         1.891154	     108.355155
	 B(14,17,22)      =         1.906897	     109.257145
	 B(15,11,16)      =         1.855794	     106.329170
	 B(17,14,18)      =         1.905618	     109.183880
	 B(17,14,19)      =         1.893109	     108.467179
	 B(17,20,23)      =         1.937646	     111.018922
	 B(17,20,24)      =         1.955313	     112.031206
	 B(17,20,25)      =         1.932872	     110.745407
	 B(18,14,19)      =         1.852381	     106.133603
	 B(20,17,21)      =         1.896369	     108.653922
	 B(20,17,22)      =         1.908838	     109.368356
	 B(21,17,22)      =         1.852222	     106.124486
	 B(23,20,24)      =         1.880939	     107.769838
	 B(23,20,25)      =         1.879169	     107.668446
	 B(24,20,25)      =         1.874762	     107.415931
	 D(1,2,3,5)       =         0.904080	      51.799976
	 D(1,2,3,6)       =         3.072572	     176.045392
	 D(1,2,3,7)       =        -1.186331	     -67.971777
	 D(2,3,5,8)       =         1.177738	      67.479429
	 D(2,3,5,9)       =        -2.978024	    -170.628207
	 D(2,3,5,10)      =        -0.966348	     -55.367652
	 D(3,5,8,11)      =        -0.663669	     -38.025444
	*D(3,5,8,12)      =        -2.792527	    -159.999991
	 D(3,5,8,13)      =         1.470330	      84.243693
	 D(4,2,3,5)       =        -2.247956	    -128.798365
	 D(4,2,3,6)       =        -0.079464	      -4.552949
	 D(4,2,3,7)       =         1.944818	     111.429882
	 D(5,8,11,14)     =        -3.132940	    -179.504257
	 D(5,8,11,15)     =        -0.993932	     -56.948104
	 D(5,8,11,16)     =         1.026198	      58.796813
	 D(6,3,5,8)       =        -0.960907	     -55.055890
	 D(6,3,5,9)       =         1.166517	      66.836474
	 D(6,3,5,10)      =        -3.104993	    -177.902971
	 D(7,3,5,8)       =        -3.041472	    -174.263530
	 D(7,3,5,9)       =        -0.914049	     -52.371167
	 D(7,3,5,10)      =         1.097627	      62.889389
	 D(8,11,14,17)    =        -3.082192	    -176.596598
	 D(8,11,14,18)    =         1.053695	      60.372289
	 D(8,11,14,19)    =        -0.959717	     -54.987714
	 D(9,5,8,11)      =        -2.781568	    -159.372126
	 D(9,5,8,12)      =         1.372760	      78.653328
	 D(9,5,8,13)      =        -0.647569	     -37.102988
	 D(10,5,8,11)     =         1.477459	      84.652180
	 D(10,5,8,12)     =        -0.651398	     -37.322367
	 D(10,5,8,13)     =        -2.671727	    -153.078683
	 D(11,14,17,20)   =        -1.155837	     -66.224578
	 D(11,14,17,21)   =         3.005228	     172.186872
	 D(11,14,17,22)   =         0.994512	      56.981338
	 D(12,8,11,14)    =        -1.007900	     -57.748430
	 D(12,8,11,15)    =         1.131108	      64.807723
	 D(12,8,11,16)    =        -3.131947	    -179.447360
	 D(13,8,11,14)    =         1.010910	      57.920864
	 D(13,8,11,15)    =        -3.133267	    -179.522983
	 D(13,8,11,16)    =        -1.113137	     -63.778066
	 D(14,17,20,23)   =        -0.985694	     -56.476110
	 D(14,17,20,24)   =         1.118185	      64.067281
	 D(14,17,20,25)   =        -3.072286	    -176.029001
	 D(15,11,14,17)   =         1.073148	      61.486861
	 D(15,11,14,18)   =        -1.074150	     -61.544252
	 D(15,11,14,19)   =        -3.087562	    -176.904256
	 D(16,11,14,17)   =        -0.957324	     -54.850647
	 D(16,11,14,18)   =        -3.104622	    -177.881761
	 D(16,11,14,19)   =         1.165151	      66.758236
	 D(18,14,17,20)   =         0.992143	      56.845579
	 D(18,14,17,21)   =        -1.129978	     -64.742971
	 D(18,14,17,22)   =        -3.140694	    -179.948506
	 D(19,14,17,20)   =         3.003427	     172.083666
	 D(19,14,17,21)   =         0.881306	      50.495116
	 D(19,14,17,22)   =        -1.129410	     -64.710419
	 D(21,17,20,23)   =         1.133579	      64.949311
	 D(21,17,20,24)   =        -3.045727	    -174.507297
	 D(21,17,20,25)   =        -0.953012	     -54.603579
	 D(22,17,20,23)   =        -3.135003	    -179.622414
	 D(22,17,20,24)   =        -1.031123	     -59.079022
	 D(22,17,20,25)   =         1.061591	      60.824695
	 R(2,11)          =         5.155512	       2.728179
	 R(4,11)          =         5.657922	       2.994043

	Current energy   :      -387.2454779855

	Generating empirical Hessian (Schlegel '84) for each fragment.
	Taking RFO optimization step.
	Going to follow RFO solution 1.
	Using RFO vector 1.

	Determining step-restricting scale parameter for RS-RFO.
	Maximum step size allowed    0.50000

	 Iter      |step|        alpha        rfo_root  
	------------------------------------------------
	    0     0.61601       1.00000           1
	    1     0.52845       1.48068           1
	    2     0.50244       1.68492           1
	    3     0.50002       1.70587           1
	    4     0.50000       1.70605           1
	------------------------------------------------
	Norm of target step-size    0.50000
	Projected energy change by RFO approximation:        -0.0117020984

	Back-transformation to cartesian coordinates...
	Could not converge backtransformation.
	Using first guess instead.

	Back-transformation to cartesian coordinates to adjust frozen coordinates...
	Successfully converged to displaced geometry.

	--- Internal Coordinate Step in ANG or DEG, aJ/ANG or AJ/DEG ---
	 ---------------------------------------------------------------------------
	   Coordinate                Previous        Force       Change         New 
	   ----------                --------       ------       ------       ------
	    1 R(1,2)          =      1.098583    -0.004465     0.002626     1.101209
	    2 R(2,3)          =      1.504623    -0.011065     0.004043     1.508667
	    3 R(2,4)          =      1.182078    -0.028804     0.004450     1.186528
	    4 R(3,5)          =      1.531560    -0.026858    -0.000675     1.530886
	    5 R(3,6)          =      1.082282     0.001339     0.002679     1.084961
	    6 R(3,7)          =      1.087798    -0.001229     0.002969     1.090767
	    7 R(5,8)          =      1.527149     0.034782     0.012585     1.539734
	    8 R(5,9)          =      1.084592    -0.005606     0.000759     1.085350
	    9 R(5,10)         =      1.087287    -0.003177     0.000548     1.087835
	   10 R(8,11)         =      1.526362     0.023760     0.007700     1.534062
	   11 R(8,12)         =      1.086787    -0.004773    -0.000614     1.086174
	   12 R(8,13)         =      1.086935    -0.003619     0.000530     1.087465
	   13 R(11,14)        =      1.527497    -0.001590     0.004707     1.532205
	   14 R(11,15)        =      1.085516    -0.002677     0.002093     1.087609
	   15 R(11,16)        =      1.087795    -0.086485    -0.008673     1.079122
	   16 R(14,17)        =      1.529673    -0.000928     0.002836     1.532510
	   17 R(14,18)        =      1.087559     0.003954     0.004046     1.091605
	   18 R(14,19)        =      1.086418     0.001311     0.003303     1.089721
	   19 R(17,20)        =      1.526789    -0.002234     0.003485     1.530274
	   20 R(17,21)        =      1.085538     0.002033     0.004305     1.089842
	   21 R(17,22)        =      1.086879    -0.003520     0.002982     1.089861
	   22 R(20,23)        =      1.085355     0.002582     0.004331     1.089686
	   23 R(20,24)        =      1.083367    -0.001296     0.004217     1.087584
	   24 R(20,25)        =      1.083958    -0.000390     0.002139     1.086097
	   25 B(1,2,3)        =    114.904858    -0.000094    -0.268765   114.636092
	   26 B(1,2,4)        =    120.021486    -0.000027    -0.186411   119.835075
	   27 B(2,3,5)        =    112.770557    -0.000424    -0.824461   111.946096
	   28 B(2,3,6)        =    108.556979     0.000166     0.876198   109.433177
	   29 B(2,3,7)        =    106.569949     0.000089    -0.684988   105.884960
	   30 B(3,2,4)        =    125.070978     0.000120     0.381743   125.452721
	   31 B(3,5,8)        =    113.656327     0.000143     1.422329   115.078655
	   32 B(3,5,9)        =    108.427090    -0.000002     0.006899   108.433989
	   33 B(3,5,10)       =    109.326741    -0.000150    -1.164098   108.162643
	   34 B(5,3,6)        =    111.637143     0.000162     0.512483   112.149626
	   35 B(5,3,7)        =    109.174982     0.000084    -0.082843   109.092140
	   36 B(5,8,11)       =    113.050431     0.000515     2.822941   115.873371
	   37 B(5,8,12)       =    109.048898    -0.000295    -1.654470   107.394428
	   38 B(5,8,13)       =    109.794953    -0.000055    -0.048503   109.746449
	   39 B(6,3,7)        =    107.897599    -0.000068     0.172663   108.070262
	   40 B(8,5,9)        =    109.407377    -0.000017    -0.262931   109.144446
	   41 B(8,5,10)       =    109.635015     0.000006     0.168284   109.803299
	   42 B(8,11,14)      =    112.931703    -0.000305    -1.394772   111.536931
	   43 B(8,11,15)      =    108.899117     0.000195     1.005831   109.904948
	   44 B(8,11,16)      =    109.253797     0.000289     1.678370   110.932167
	   45 B(9,5,10)       =    106.106652     0.000012    -0.299861   105.806791
	   46 B(11,8,12)      =    109.438355    -0.000045    -0.156100   109.282254
	   47 B(11,8,13)      =    109.247208    -0.000234    -0.964352   108.282856
	   48 B(11,14,17)     =    114.822470    -0.000056    -0.253671   114.568799
	   49 B(11,14,18)     =    109.256746     0.000051     0.243564   109.500310
	   50 B(11,14,19)     =    108.619471    -0.000008     0.015198   108.634669
	   51 B(12,8,13)      =    106.018613     0.000086    -0.217864   105.800749
	   52 B(14,11,15)     =    110.040048    -0.000076    -0.979391   109.060657
	   53 B(14,11,16)     =    109.170388    -0.000157    -1.643992   107.526395
	   54 B(14,17,20)     =    114.727695    -0.000007    -0.205022   114.522673
	   55 B(14,17,21)     =    108.355155    -0.000007    -0.064070   108.291085
	   56 B(14,17,22)     =    109.257145     0.000006     0.117180   109.374325
	   57 B(15,11,16)     =    106.329170     0.000081     1.437928   107.767099
	   58 B(17,14,18)     =    109.183880     0.000002     0.169265   109.353145
	   59 B(17,14,19)     =    108.467179     0.000026    -0.123026   108.344153
	   60 B(17,20,23)     =    111.018922     0.000001     0.016829   111.035751
	   61 B(17,20,24)     =    112.031206    -0.000031     0.014461   112.045667
	   62 B(17,20,25)     =    110.745407    -0.000001    -0.201704   110.543703
	   63 B(18,14,19)     =    106.133603    -0.000011    -0.042346   106.091257
	   64 B(20,17,21)     =    108.653922     0.000012     0.248931   108.902853
	   65 B(20,17,22)     =    109.368356    -0.000013    -0.126515   109.241842
	   66 B(21,17,22)     =    106.124486     0.000010     0.050009   106.174495
	   67 B(23,20,24)     =    107.769838     0.000028     0.112955   107.882793
	   68 B(23,20,25)     =    107.668446     0.000002     0.148660   107.817106
	   69 B(24,20,25)     =    107.415931     0.000004    -0.081409   107.334522
	   70 D(1,2,3,5)      =     51.799976     0.000004     1.599882    53.399858
	   71 D(1,2,3,6)      =    176.045392     0.000013     2.327812   178.373204
	   72 D(1,2,3,7)      =    -67.971777     0.000024     2.600834   -65.370943
	   73 D(2,3,5,8)      =     67.479429     0.000008     2.919012    70.398441
	   74 D(2,3,5,9)      =   -170.628207     0.000024     3.550759  -167.077448
	   75 D(2,3,5,10)     =    -55.367652     0.000009     2.591241   -52.776411
	   76 D(3,5,8,11)     =    -38.025444     0.000018     0.473649   -37.551796
	   77 *D(3,5,8,12)    =   -159.999991     0.000000     0.000000  -159.999991
	   78 D(3,5,8,13)     =     84.243693     0.000022     1.197701    85.441394
	   79 D(4,2,3,5)      =   -128.798365    -0.000029    -0.998140  -129.796506
	   80 D(4,2,3,6)      =     -4.552949    -0.000020    -0.270210    -4.823159
	   81 D(4,2,3,7)      =    111.429882    -0.000009     0.002811   111.432693
	   82 D(5,8,11,14)    =   -179.504257     0.000036     4.701513  -174.802744
	   83 D(5,8,11,15)    =    -56.948104    -0.000002     3.229042   -53.719062
	   84 D(5,8,11,16)    =     58.796813     0.000082     6.560231    65.357044
	   85 D(6,3,5,8)      =    -55.055890     0.000002     1.998017   -53.057872
	   86 D(6,3,5,9)      =     66.836474     0.000018     2.629765    69.466239
	   87 D(6,3,5,10)     =   -177.902971     0.000003     1.670247  -176.232724
	   88 D(7,3,5,8)      =   -174.263530    -0.000015     1.516879  -172.746650
	   89 D(7,3,5,9)      =    -52.371167     0.000002     2.148627   -50.222540
	   90 D(7,3,5,10)     =     62.889389    -0.000013     1.189109    64.078498
	   91 D(8,11,14,17)   =   -176.596598    -0.000003     0.232804  -176.363794
	   92 D(8,11,14,18)   =     60.372289    -0.000004     0.003168    60.375456
	   93 D(8,11,14,19)   =    -54.987714    -0.000006    -0.086374   -55.074088
	   94 D(9,5,8,11)     =   -159.372126    -0.000001    -0.321920  -159.694046
	   95 D(9,5,8,12)     =     78.653328    -0.000019    -0.795568    77.857759
	   96 D(9,5,8,13)     =    -37.102988     0.000003     0.402133   -36.700856
	   97 D(10,5,8,11)    =     84.652180    -0.000003     0.092934    84.745114
	   98 D(10,5,8,12)    =    -37.322367    -0.000021    -0.380714   -37.703081
	   99 D(10,5,8,13)    =   -153.078683     0.000001     0.816987  -152.261696
	  100 D(11,14,17,20)  =    -66.224578    -0.000001     0.141831   -66.082747
	  101 D(11,14,17,21)  =    172.186872    -0.000003     0.006276   172.193148
	  102 D(11,14,17,22)  =     56.981338    -0.000005    -0.080447    56.900891
	  103 D(12,8,11,14)   =    -57.748430     0.000022     4.390334   -53.358096
	  104 D(12,8,11,15)   =     64.807723    -0.000015     2.917863    67.725586
	  105 D(12,8,11,16)   =   -179.447360     0.000068     6.249052  -173.198308
	  106 D(13,8,11,14)   =     57.920864     0.000010     3.517551    61.438415
	  107 D(13,8,11,15)   =   -179.522983    -0.000028     2.045080  -177.477903
	  108 D(13,8,11,16)   =    -63.778066     0.000056     5.376269   -58.401797
	  109 D(14,17,20,23)  =    -56.476110    -0.000001     0.052823   -56.423288
	  110 D(14,17,20,24)  =     64.067281     0.000003     0.218927    64.286208
	  111 D(14,17,20,25)  =   -176.029001    -0.000001    -0.012237  -176.041238
	  112 D(15,11,14,17)  =     61.486861     0.000000     0.574952    62.061813
	  113 D(15,11,14,18)  =    -61.544252     0.000000     0.345316   -61.198937
	  114 D(15,11,14,19)  =   -176.904256    -0.000002     0.255774  -176.648481
	  115 D(16,11,14,17)  =    -54.850647     0.000009     0.317487   -54.533161
	  116 D(16,11,14,18)  =   -177.881761     0.000008     0.087850  -177.793911
	  117 D(16,11,14,19)  =     66.758236     0.000006    -0.001691    66.756545
	  118 D(18,14,17,20)  =     56.845579     0.000005     0.411437    57.257016
	  119 D(18,14,17,21)  =    -64.742971     0.000003     0.275882   -64.467089
	  120 D(18,14,17,22)  =   -179.948506     0.000001     0.189160  -179.759346
	  121 D(19,14,17,20)  =    172.083666     0.000005     0.384540   172.468206
	  122 D(19,14,17,21)  =     50.495116     0.000004     0.248985    50.744101
	  123 D(19,14,17,22)  =    -64.710419     0.000001     0.162262   -64.548156
	  124 D(21,17,20,23)  =     64.949311    -0.000002     0.016335    64.965647
	  125 D(21,17,20,24)  =   -174.507297     0.000002     0.182440  -174.324857
	  126 D(21,17,20,25)  =    -54.603579    -0.000002    -0.048724   -54.652303
	  127 D(22,17,20,23)  =   -179.622414     0.000001     0.144067  -179.478347
	  128 D(22,17,20,24)  =    -59.079022     0.000004     0.310171   -58.768851
	  129 D(22,17,20,25)  =     60.824695     0.000001     0.079007    60.903703
	  130 R(2,11)         =      2.728179     0.135166     0.164953     2.893132
	  131 R(4,11)         =      2.994043     0.068112     0.161914     3.155957
	 ---------------------------------------------------------------------------
	Successfully symmetrized geometry.

  ==> Convergence Check <==

  Measures of convergence in internal coordinates in au.
  Criteria marked as inactive (o), active & met (*), and active & unmet ( ).
  --------------------------------------------------------------------------------------------- ~
   Step     Total Energy     Delta E     MAX Force     RMS Force      MAX Disp      RMS Disp    ~
  --------------------------------------------------------------------------------------------- ~
    Convergence Criteria    1.00e-06 *    3.00e-04 *             o    1.20e-03 *             o  ~
  --------------------------------------------------------------------------------------------- ~
      1    -387.24547799   -3.87e+02      1.64e-02      2.39e-03 o    3.12e-01      4.63e-02 o  ~
  ---------------------------------------------------------------------------------------------

	Writing optimization data to binary file.
	Structure for next step:
	Cartesian Geometry (in Angstrom)
	    H    -1.0002696259   2.5573368770   0.2376823516
	    C    -1.0192123321   1.7748275103   1.0122677401
	    C    -2.2249232491   0.8693855470   0.9621590560
	    O    -0.1601904394   1.7324266181   1.8296613671
	    C    -2.4174183477   0.2491185644  -0.4241400333
	    H    -2.1436802688   0.1167252849   1.7393609883
	    H    -3.0831582805   1.5020502837   1.1922463266
	    C    -1.3693539060  -0.8081116206  -0.8173389862
	    H    -3.4060196094  -0.1968323085  -0.4663324666
	    H    -2.4233054541   1.0527189127  -1.1573361464
	    C     0.0682422756  -0.5275360414  -0.3613321976
	    H    -1.3909390571  -0.8999754581  -1.8994058167
	    H    -1.6659297137  -1.7806579870  -0.4316242350
	    C     1.0465934171  -1.5703544726  -0.9117951269
	    H     0.3766979742   0.4603046415  -0.6958746782
	    H     0.1423488207  -0.5487031151   0.7150336738
	    C     2.4912870907  -1.4069494800  -0.4272899162
	    H     1.0263668600  -1.5487236753  -2.0029979716
	    H     0.6979879817  -2.5615493298  -0.6228347766
	    C     3.1845161980  -0.1328803998  -0.9150592929
	    H     3.0643327406  -2.2711977352  -0.7626247250
	    H     2.5124006076  -1.4327832085   0.6620602092
	    H     3.1719343527  -0.0727516757  -2.0030124628
	    H     2.7099442231   0.7648018530  -0.5254608700
	    H     4.2217192938  -0.1162610722  -0.5932829161
			--------------------------
			 OPTKING Finished Execution 
			--------------------------

    Structure for next step:
    Molecular point group: c1
    Full point group: C1

    Geometry (in Angstrom), charge = 0, multiplicity = 1:

    H           -0.979874420265     2.525604311155     0.237613893718
    C           -0.998817126485     1.743094944506     1.012199282184
    C           -2.204528043508     0.837652981220     0.962090598159
    O           -0.139795233857     1.700694052242     1.829592909261
    C           -2.397023142160     0.217385998579    -0.424208491218
    H           -2.123285063251     0.084992719101     1.739292530461
    H           -3.062763074904     1.470317717879     1.192177868689
    C           -1.348958700421    -0.839844186458    -0.817407444050
    H           -3.385624403795    -0.228564874312    -0.466400924456
    H           -2.402910248474     1.020986346902    -1.157404604300
    C            0.088637481143    -0.559268607205    -0.361400655440
    H           -1.370543851507    -0.931708023951    -1.899474274625
    H           -1.645534508130    -1.812390552812    -0.431692692916
    C            1.066988622721    -1.602087038385    -0.911863584731
    H            0.397093179785     0.428572075726    -0.695943136110
    H            0.162744026258    -0.580435680962     0.714965215916
    C            2.511682296277    -1.438682045867    -0.427358374121
    H            1.046762065623    -1.580456241069    -2.003066429490
    H            0.718383187295    -2.593281895587    -0.622903234513
    C            3.204911403573    -0.164612965659    -0.915127750773
    H            3.084727946142    -2.302930301017    -0.762693182856
    H            2.532795813229    -1.464515774318     0.661991751321
    H            3.192329558317    -0.104484241514    -2.003080920722
    H            2.730339428690     0.733069287140    -0.525529327837
    H            4.242114499382    -0.147993638063    -0.593351373988

gradient() will perform analytic gradient computation.

*** tstart() called on cx1-27-2-1
*** at Sat Sep 10 22:11:50 2016


         ---------------------------------------------------------
                                   SCF
            by Justin Turney, Rob Parrish, and Andy Simmonett
                              RHF Reference
                        4 Threads,   2000 MiB Core
         ---------------------------------------------------------

  ==> Geometry <==

    Molecular point group: c1
    Full point group: C1

    Geometry (in Angstrom), charge = 0, multiplicity = 1:

       Center              X                  Y                   Z               Mass       
    ------------   -----------------  -----------------  -----------------  -----------------
           H         -0.979874420265     2.525604311155     0.237613893718     1.007825032070
           C         -0.998817126485     1.743094944506     1.012199282184    12.000000000000
           C         -2.204528043508     0.837652981220     0.962090598159    12.000000000000
           O         -0.139795233857     1.700694052242     1.829592909261    15.994914619560
           C         -2.397023142160     0.217385998579    -0.424208491218    12.000000000000
           H         -2.123285063251     0.084992719101     1.739292530461     1.007825032070
           H         -3.062763074904     1.470317717879     1.192177868689     1.007825032070
           C         -1.348958700421    -0.839844186458    -0.817407444050    12.000000000000
           H         -3.385624403795    -0.228564874312    -0.466400924456     1.007825032070
           H         -2.402910248474     1.020986346902    -1.157404604300     1.007825032070
           C          0.088637481143    -0.559268607205    -0.361400655440    12.000000000000
           H         -1.370543851507    -0.931708023951    -1.899474274625     1.007825032070
           H         -1.645534508130    -1.812390552812    -0.431692692916     1.007825032070
           C          1.066988622721    -1.602087038385    -0.911863584731    12.000000000000
           H          0.397093179785     0.428572075726    -0.695943136110     1.007825032070
           H          0.162744026258    -0.580435680962     0.714965215916     1.007825032070
           C          2.511682296277    -1.438682045867    -0.427358374121    12.000000000000
           H          1.046762065623    -1.580456241069    -2.003066429490     1.007825032070
           H          0.718383187295    -2.593281895587    -0.622903234513     1.007825032070
           C          3.204911403573    -0.164612965659    -0.915127750773    12.000000000000
           H          3.084727946142    -2.302930301017    -0.762693182856     1.007825032070
           H          2.532795813229    -1.464515774318     0.661991751321     1.007825032070
           H          3.192329558317    -0.104484241514    -2.003080920722     1.007825032070
           H          2.730339428690     0.733069287140    -0.525529327837     1.007825032070
           H          4.242114499382    -0.147993638063    -0.593351373988     1.007825032070

  Running in c1 symmetry.

  Rotational constants: A =      0.07283  B =      0.02860  C =      0.02230 [cm^-1]
  Rotational constants: A =   2183.34708  B =    857.34810  C =    668.39097 [MHz]
  Nuclear repulsion =  463.584115782046865

  Charge       = 0
  Multiplicity = 1
  Electrons    = 72
  Nalpha       = 36
  Nbeta        = 36

  ==> Algorithm <==

  SCF Algorithm Type is DF.
  DIIS enabled.
  MOM disabled.
  Fractional occupation disabled.
  Guess Type is READ.
  Energy threshold   = 1.00e-08
  Density threshold  = 1.00e-08
  Integral threshold = 0.00e+00

  ==> Primary Basis <==

  Basis Set: CC-PVTZ
    Number of shells: 186
    Number of basis function: 494
    Number of Cartesian functions: 555
    Spherical Harmonics?: true
    Max angular momentum: 3

  ==> Pre-Iterations <==

   -------------------------------------------------------
    Irrep   Nso     Nmo     Nalpha   Nbeta   Ndocc  Nsocc
   -------------------------------------------------------
     A        494     494       0       0       0       0
   -------------------------------------------------------
    Total     494     494      36      36      36       0
   -------------------------------------------------------

  ==> Integral Setup <==

  ==> DFJK: Density-Fitted J/K Matrices <==

    J tasked:                  Yes
    K tasked:                  Yes
    wK tasked:                  No
    OpenMP threads:              4
    Integrals threads:           4
    Memory (MB):              1430
    Algorithm:                Core
    Integral Cache:           NONE
    Schwarz Cutoff:          1E-12
    Fitting Condition:       1E-12

   => Auxiliary Basis Set <=

  Basis Set: 
    Number of shells: 385
    Number of basis function: 1191
    Number of Cartesian functions: 1424
    Spherical Harmonics?: true
    Max angular momentum: 4

  Minimum eigenvalue in the overlap matrix is 2.7658709960E-04.
  Using Symmetric Orthogonalization.
  SCF Guess: Reading in previously saved MOs, projecting if necessary.

  Using orbitals from previous SCF, no projection.
  Recomputing DOCC and SOCC from number of alpha and beta electrons from previous calculation.
              A 
    DOCC [    36 ]

  ==> Iterations <==

                           Total Energy        Delta E     RMS |[F,P]|

   @DF-RHF iter   0:  -387.17922117530679   -3.87179e+02   7.29094e-04 
   @DF-RHF iter   1:  -387.24858065718013   -6.93595e-02   1.13485e-04 
   @DF-RHF iter   2:  -387.25093977976621   -2.35912e-03   4.63134e-05 DIIS
   @DF-RHF iter   3:  -387.25126112482303   -3.21345e-04   2.24301e-05 DIIS
   @DF-RHF iter   4:  -387.25134894307780   -8.78183e-05   7.01236e-06 DIIS
   @DF-RHF iter   5:  -387.25136049511548   -1.15520e-05   3.14794e-06 DIIS
   @DF-RHF iter   6:  -387.25136599491100   -5.49980e-06   1.16333e-06 DIIS
   @DF-RHF iter   7:  -387.25136685184088   -8.56930e-07   4.62444e-07 DIIS
   @DF-RHF iter   8:  -387.25136698834501   -1.36504e-07   2.24900e-07 DIIS
   @DF-RHF iter   9:  -387.25136702340308   -3.50581e-08   8.49611e-08 DIIS
   @DF-RHF iter  10:  -387.25136702859731   -5.19424e-09   2.23147e-08 DIIS
   @DF-RHF iter  11:  -387.25136702884913   -2.51816e-10   6.24554e-09 DIIS

  ==> Post-Iterations <==

    Orbital Energies (a.u.)
    -----------------------

    Doubly Occupied:                                                      

       1A    -20.548661     2A    -11.322642     3A    -11.235671  
       4A    -11.233463     5A    -11.221632     6A    -11.212447  
       7A    -11.211908     8A    -11.211542     9A    -11.203837  
      10A     -1.402466    11A     -1.102641    12A     -1.064984  
      13A     -1.006433    14A     -0.942230    15A     -0.879197  
      16A     -0.811772    17A     -0.786080    18A     -0.776496  
      19A     -0.666568    20A     -0.656016    21A     -0.636054  
      22A     -0.624788    23A     -0.605738    24A     -0.586810  
      25A     -0.560389    26A     -0.556038    27A     -0.535848  
      28A     -0.528988    29A     -0.509596    30A     -0.502420  
      31A     -0.478186    32A     -0.469672    33A     -0.459101  
      34A     -0.449231    35A     -0.440974    36A     -0.410671  

    Virtual:                                                              

      37A      0.130794    38A      0.141062    39A      0.151067  
      40A      0.156730    41A      0.168600    42A      0.182973  
      43A      0.186040    44A      0.195324    45A      0.206493  
      46A      0.215464    47A      0.220638    48A      0.230541  
      49A      0.245237    50A      0.254448    51A      0.262821  
      52A      0.270567    53A      0.282463    54A      0.301687  
      55A      0.330105    56A      0.335224    57A      0.353811  
      58A      0.364077    59A      0.366292    60A      0.380156  
      61A      0.395075    62A      0.399587    63A      0.421587  
      64A      0.422641    65A      0.437214    66A      0.443929  
      67A      0.454805    68A      0.467806    69A      0.484853  
      70A      0.491351    71A      0.520499    72A      0.538014  
      73A      0.552977    74A      0.557960    75A      0.572981  
      76A      0.577485    77A      0.584955    78A      0.588862  
      79A      0.597318    80A      0.606836    81A      0.617620  
      82A      0.624682    83A      0.636018    84A      0.639105  
      85A      0.643738    86A      0.650570    87A      0.651494  
      88A      0.663044    89A      0.665402    90A      0.671321  
      91A      0.676248    92A      0.681772    93A      0.683324  
      94A      0.699140    95A      0.705651    96A      0.718085  
      97A      0.718691    98A      0.727461    99A      0.741042  
     100A      0.754141   101A      0.777003   102A      0.801011  
     103A      0.805826   104A      0.813382   105A      0.847137  
     106A      0.869257   107A      0.881105   108A      0.885881  
     109A      0.907468   110A      0.919389   111A      0.934300  
     112A      0.945549   113A      0.961172   114A      0.970740  
     115A      0.986710   116A      1.001073   117A      1.011511  
     118A      1.025637   119A      1.042686   120A      1.051962  
     121A      1.062004   122A      1.102886   123A      1.113541  
     124A      1.117400   125A      1.123979   126A      1.133978  
     127A      1.151928   128A      1.166130   129A      1.180906  
     130A      1.204201   131A      1.210613   132A      1.231491  
     133A      1.234685   134A      1.245116   135A      1.248923  
     136A      1.267848   137A      1.276945   138A      1.290630  
     139A      1.296420   140A      1.299415   141A      1.308143  
     142A      1.328606   143A      1.334896   144A      1.341272  
     145A      1.350040   146A      1.354772   147A      1.363005  
     148A      1.372941   149A      1.385923   150A      1.386885  
     151A      1.401009   152A      1.412599   153A      1.421576  
     154A      1.429530   155A      1.432651   156A      1.441317  
     157A      1.453038   158A      1.462183   159A      1.470141  
     160A      1.479094   161A      1.493220   162A      1.507250  
     163A      1.516788   164A      1.520800   165A      1.526540  
     166A      1.536389   167A      1.552133   168A      1.554114  
     169A      1.566029   170A      1.580508   171A      1.592667  
     172A      1.605691   173A      1.619836   174A      1.637794  
     175A      1.639973   176A      1.657000   177A      1.667810  
     178A      1.684036   179A      1.694556   180A      1.706998  
     181A      1.717384   182A      1.721898   183A      1.736696  
     184A      1.739940   185A      1.751945   186A      1.776020  
     187A      1.789814   188A      1.812506   189A      1.825926  
     190A      1.833185   191A      1.847443   192A      1.864649  
     193A      1.885756   194A      1.888742   195A      1.925964  
     196A      1.975994   197A      1.989909   198A      2.005824  
     199A      2.021316   200A      2.044085   201A      2.076753  
     202A      2.102325   203A      2.217661   204A      2.335346  
     205A      2.405068   206A      2.472162   207A      2.502579  
     208A      2.541249   209A      2.579580   210A      2.599828  
     211A      2.623115   212A      2.642849   213A      2.667065  
     214A      2.679457   215A      2.690272   216A      2.693953  
     217A      2.706628   218A      2.729392   219A      2.751308  
     220A      2.760945   221A      2.771001   222A      2.782493  
     223A      2.803239   224A      2.813084   225A      2.835918  
     226A      2.836687   227A      2.858962   228A      2.875069  
     229A      2.881045   230A      2.883369   231A      2.904964  
     232A      2.919075   233A      2.924098   234A      2.945719  
     235A      2.960764   236A      2.966554   237A      2.982627  
     238A      2.989835   239A      3.003302   240A      3.015441  
     241A      3.034853   242A      3.038585   243A      3.044784  
     244A      3.064368   245A      3.068297   246A      3.086456  
     247A      3.101147   248A      3.125609   249A      3.134795  
     250A      3.149009   251A      3.153064   252A      3.168171  
     253A      3.185718   254A      3.198379   255A      3.206128  
     256A      3.224272   257A      3.251968   258A      3.254794  
     259A      3.265941   260A      3.270000   261A      3.292187  
     262A      3.301013   263A      3.312655   264A      3.319016  
     265A      3.329038   266A      3.341149   267A      3.355147  
     268A      3.362403   269A      3.370092   270A      3.383553  
     271A      3.402579   272A      3.409933   273A      3.419359  
     274A      3.419682   275A      3.439481   276A      3.443733  
     277A      3.450899   278A      3.453757   279A      3.466054  
     280A      3.474319   281A      3.480866   282A      3.486844  
     283A      3.488810   284A      3.507450   285A      3.511216  
     286A      3.516805   287A      3.536107   288A      3.542601  
     289A      3.556073   290A      3.569892   291A      3.575971  
     292A      3.589587   293A      3.593683   294A      3.608644  
     295A      3.617588   296A      3.643126   297A      3.651754  
     298A      3.657705   299A      3.670337   300A      3.677805  
     301A      3.685086   302A      3.698664   303A      3.715350  
     304A      3.735989   305A      3.744124   306A      3.774304  
     307A      3.775370   308A      3.785053   309A      3.790244  
     310A      3.811787   311A      3.843689   312A      3.847967  
     313A      3.859325   314A      3.867732   315A      3.879446  
     316A      3.893435   317A      3.895589   318A      3.916291  
     319A      3.924332   320A      3.929299   321A      3.949746  
     322A      3.961894   323A      3.968740   324A      3.988652  
     325A      4.002274   326A      4.017576   327A      4.035290  
     328A      4.046456   329A      4.061387   330A      4.076713  
     331A      4.084221   332A      4.101457   333A      4.104132  
     334A      4.116990   335A      4.123731   336A      4.130773  
     337A      4.142312   338A      4.153469   339A      4.160028  
     340A      4.169781   341A      4.179396   342A      4.183306  
     343A      4.195205   344A      4.206202   345A      4.222437  
     346A      4.227487   347A      4.244628   348A      4.258555  
     349A      4.265325   350A      4.284675   351A      4.292445  
     352A      4.308512   353A      4.310916   354A      4.329087  
     355A      4.339404   356A      4.346575   357A      4.347348  
     358A      4.373587   359A      4.378236   360A      4.384668  
     361A      4.407446   362A      4.410706   363A      4.428678  
     364A      4.443054   365A      4.448977   366A      4.454867  
     367A      4.478909   368A      4.486514   369A      4.493461  
     370A      4.497825   371A      4.511130   372A      4.516799  
     373A      4.528716   374A      4.533789   375A      4.540046  
     376A      4.557947   377A      4.564276   378A      4.579758  
     379A      4.583620   380A      4.619664   381A      4.633111  
     382A      4.639658   383A      4.648089   384A      4.666341  
     385A      4.672722   386A      4.695549   387A      4.703172  
     388A      4.713985   389A      4.728169   390A      4.735801  
     391A      4.742349   392A      4.759671   393A      4.772370  
     394A      4.797529   395A      4.805485   396A      4.813026  
     397A      4.846563   398A      4.876300   399A      4.914166  
     400A      4.947444   401A      4.956708   402A      4.971077  
     403A      4.978979   404A      5.006287   405A      5.024428  
     406A      5.057853   407A      5.070814   408A      5.076196  
     409A      5.081026   410A      5.103027   411A      5.125198  
     412A      5.134630   413A      5.151763   414A      5.174263  
     415A      5.215926   416A      5.226190   417A      5.235220  
     418A      5.243495   419A      5.257536   420A      5.274016  
     421A      5.280653   422A      5.289761   423A      5.310233  
     424A      5.321987   425A      5.347717   426A      5.364629  
     427A      5.378963   428A      5.414404   429A      5.422177  
     430A      5.436063   431A      5.443813   432A      5.455839  
     433A      5.470125   434A      5.505614   435A      5.511970  
     436A      5.524800   437A      5.539577   438A      5.577098  
     439A      5.615241   440A      5.621887   441A      5.640769  
     442A      5.646702   443A      5.694931   444A      5.711509  
     445A      5.715464   446A      5.741705   447A      5.743885  
     448A      5.763614   449A      5.778589   450A      5.786340  
     451A      5.802222   452A      5.835648   453A      5.850012  
     454A      5.858207   455A      5.869051   456A      5.879363  
     457A      5.907314   458A      5.927040   459A      5.936881  
     460A      5.957706   461A      5.970653   462A      6.005183  
     463A      6.012717   464A      6.049528   465A      6.087302  
     466A      6.135801   467A      6.146566   468A      6.166905  
     469A      6.311190   470A      6.339133   471A      6.344927  
     472A      6.351451   473A      6.396902   474A      6.419918  
     475A      6.435583   476A      6.486207   477A      6.535164  
     478A      6.783777   479A      6.799384   480A      6.936137  
     481A      7.013058   482A      7.372040   483A      7.402782  
     484A      7.546926   485A      7.612047   486A     10.967525  
     487A     12.887450   488A     13.133810   489A     13.397954  
     490A     13.626346   491A     13.684276   492A     13.966398  
     493A     14.231874   494A     14.441109  

    Final Occupation by Irrep:
              A 
    DOCC [    36 ]

  Energy converged.

  @DF-RHF Final Energy:  -387.25136702884913

   => Energetics <=

    Nuclear Repulsion Energy =            463.5841157820468652
    One-Electron Energy =               -1443.9685790735011324
    Two-Electron Energy =                 593.1330962626052496
    DFT Exchange-Correlation Energy =       0.0000000000000000
    Empirical Dispersion Energy =           0.0000000000000000
    PCM Polarization Energy =               0.0000000000000000
    EFP Energy =                            0.0000000000000000
    Total Energy =                       -387.2513670288490175


  Saving occupied orbitals to File 180.

*** tstop() called on cx1-27-2-1 at Sat Sep 10 22:12:11 2016
Module time:
	user time   =      73.33 seconds =       1.22 minutes
	system time =       1.12 seconds =       0.02 minutes
	total time  =         21 seconds =       0.35 minutes
Total time:
	user time   =     237.26 seconds =       3.95 minutes
	system time =       3.56 seconds =       0.06 minutes
	total time  =         66 seconds =       1.10 minutes


Properties will be evaluated at   0.000000,   0.000000,   0.000000 Bohr

Properties computed using the SCF density matrix

  Nuclear Dipole Moment: (a.u.)
     X:     2.9399      Y:    -5.1322      Z:    -6.1930

  Electronic Dipole Moment: (a.u.)
     X:    -3.8101      Y:     4.9396      Z:     5.4664

  Dipole Moment: (a.u.)
     X:    -0.8702      Y:    -0.1926      Z:    -0.7266     Total:     1.1499

  Dipole Moment: (Debye)
     X:    -2.2117      Y:    -0.4896      Z:    -1.8469     Total:     2.9228


*** tstart() called on cx1-27-2-1
*** at Sat Sep 10 22:12:11 2016


         ------------------------------------------------------------
                                   SCF GRAD                          
                          Rob Parrish, Justin Turney,                
                       Andy Simmonett, and Alex Sokolov              
         ------------------------------------------------------------

  ==> Geometry <==

    Molecular point group: c1
    Full point group: C1

    Geometry (in Angstrom), charge = 0, multiplicity = 1:

       Center              X                  Y                   Z               Mass       
    ------------   -----------------  -----------------  -----------------  -----------------
           H         -0.979874420265     2.525604311155     0.237613893718     1.007825032070
           C         -0.998817126485     1.743094944506     1.012199282184    12.000000000000
           C         -2.204528043508     0.837652981220     0.962090598159    12.000000000000
           O         -0.139795233857     1.700694052242     1.829592909261    15.994914619560
           C         -2.397023142160     0.217385998579    -0.424208491218    12.000000000000
           H         -2.123285063251     0.084992719101     1.739292530461     1.007825032070
           H         -3.062763074904     1.470317717879     1.192177868689     1.007825032070
           C         -1.348958700421    -0.839844186458    -0.817407444050    12.000000000000
           H         -3.385624403795    -0.228564874312    -0.466400924456     1.007825032070
           H         -2.402910248474     1.020986346902    -1.157404604300     1.007825032070
           C          0.088637481143    -0.559268607205    -0.361400655440    12.000000000000
           H         -1.370543851507    -0.931708023951    -1.899474274625     1.007825032070
           H         -1.645534508130    -1.812390552812    -0.431692692916     1.007825032070
           C          1.066988622721    -1.602087038385    -0.911863584731    12.000000000000
           H          0.397093179785     0.428572075726    -0.695943136110     1.007825032070
           H          0.162744026258    -0.580435680962     0.714965215916     1.007825032070
           C          2.511682296277    -1.438682045867    -0.427358374121    12.000000000000
           H          1.046762065623    -1.580456241069    -2.003066429490     1.007825032070
           H          0.718383187295    -2.593281895587    -0.622903234513     1.007825032070
           C          3.204911403573    -0.164612965659    -0.915127750773    12.000000000000
           H          3.084727946142    -2.302930301017    -0.762693182856     1.007825032070
           H          2.532795813229    -1.464515774318     0.661991751321     1.007825032070
           H          3.192329558317    -0.104484241514    -2.003080920722     1.007825032070
           H          2.730339428690     0.733069287140    -0.525529327837     1.007825032070
           H          4.242114499382    -0.147993638063    -0.593351373988     1.007825032070

  Nuclear repulsion =  463.584115782046865

  ==> Basis Set <==

  Basis Set: CC-PVTZ
    Number of shells: 186
    Number of basis function: 494
    Number of Cartesian functions: 555
    Spherical Harmonics?: true
    Max angular momentum: 3

  ==> DFJKGrad: Density-Fitted SCF Gradients <==

    Gradient:                    1
    J tasked:                  Yes
    K tasked:                  Yes
    wK tasked:                  No
    OpenMP threads:              4
    Integrals threads:           4
    Memory (MB):              1430
    Schwarz Cutoff:          0E+00
    Fitting Condition:       1E-12

   => Auxiliary Basis Set <=

  Basis Set: 
    Number of shells: 385
    Number of basis function: 1191
    Number of Cartesian functions: 1424
    Spherical Harmonics?: true
    Max angular momentum: 4


  -Total Gradient:
     Atom            X                  Y                   Z
    ------   -----------------  -----------------  -----------------
       1       -0.000429440871     0.002721199450    -0.000393644774
       2       -0.001400917292    -0.007145967510    -0.013085918215
       3       -0.002233759088     0.000350047359    -0.000178447372
       4        0.007848610937    -0.001937463514     0.005429274312
       5        0.000130587690     0.000185158074    -0.000037812264
       6       -0.000345066555    -0.001931135962     0.000920006711
       7       -0.001414049042     0.001611719547     0.000366674940
       8        0.000136968397    -0.000181665081    -0.001332595966
       9       -0.001236512376    -0.000459143815     0.000942379710
      10       -0.001103832095     0.000786343209    -0.000069010911
      11       -0.002862376857     0.007654183347     0.011085304431
      12       -0.000850177088     0.001196446525    -0.000426237502
      13        0.000611080864    -0.001735245026    -0.001290445815
      14        0.000257098870     0.000762941952     0.001909501750
      15        0.000621043266     0.002183133173    -0.001568606082
[...]
	   25     0.08021       1.00000           6
	------------------------------------------------
	Change in coordinate exceeds step limit of    0.00586.
	Scaling displacements by    0.07305
	Norm of target step-size    0.00586
	Projected energy change by RFO approximation:        -0.0000082395

	Back-transformation to cartesian coordinates...
	Successfully converged to displaced geometry.

	Back-transformation to cartesian coordinates to adjust frozen coordinates...
	Successfully converged to displaced geometry.

	--- Internal Coordinate Step in ANG or DEG, aJ/ANG or AJ/DEG ---
	 ---------------------------------------------------------------------------
	   Coordinate                Previous        Force       Change         New 
	   ----------                --------       ------       ------       ------
	    1 R(1,2)          =      1.098338    -0.000345     0.000019     1.098357
	    2 R(2,3)          =      1.505544     0.000315     0.000047     1.505591
	    3 R(2,4)          =      1.181760     0.001294     0.000001     1.181761
	    4 R(3,5)          =      1.533898     0.000455    -0.000027     1.533871
	    5 R(3,6)          =      1.082436     0.000021     0.000006     1.082442
	    6 R(3,7)          =      1.088790    -0.000032     0.000012     1.088802
	    7 R(5,8)          =      1.537299     0.000229     0.000005     1.537305
	    8 R(5,9)          =      1.083149     0.000121    -0.000004     1.083146
	    9 R(5,10)         =      1.087653     0.000053     0.000006     1.087659
	   10 R(8,11)         =      1.529634    -0.000142     0.000007     1.529641
	   11 R(8,12)         =      1.085774     0.000028    -0.000002     1.085772
	   12 R(8,13)         =      1.085423     0.000222    -0.000001     1.085422
	   13 R(11,14)        =      1.528144    -0.000360     0.000020     1.528164
	   14 R(11,15)        =      1.086050     0.000174     0.000011     1.086061
	   15 R(11,16)        =      1.084782    -0.000209     0.000012     1.084794
	   16 R(14,17)        =      1.529578    -0.000003    -0.000005     1.529573
	   17 R(14,18)        =      1.087695     0.000197    -0.000001     1.087694
	   18 R(14,19)        =      1.086719     0.000156    -0.000005     1.086714
	   19 R(17,20)        =      1.526715    -0.000021     0.000003     1.526717
	   20 R(17,21)        =      1.085717     0.000091     0.000000     1.085717
	   21 R(17,22)        =      1.086464     0.000105     0.000001     1.086465
	   22 R(20,23)        =      1.085597     0.000155    -0.000001     1.085596
	   23 R(20,24)        =      1.083108     0.000115     0.000002     1.083110
	   24 R(20,25)        =      1.083882     0.000107     0.000001     1.083883
	   25 B(1,2,3)        =    114.912850    -0.000000     0.003395   114.916244
	   26 B(1,2,4)        =    120.100972    -0.000001     0.001448   120.102420
	   27 B(2,3,5)        =    114.861093    -0.000004     0.006306   114.867398
	   28 B(2,3,6)        =    108.759271     0.000000    -0.007362   108.751909
	   29 B(2,3,7)        =    104.845732     0.000000    -0.007033   104.838699
	   30 B(3,2,4)        =    124.947051     0.000001    -0.005102   124.941948
	   31 B(3,5,8)        =    116.832378    -0.000001    -0.003595   116.828783
	   32 B(3,5,9)        =    108.571978    -0.000002     0.000569   108.572548
	   33 B(3,5,10)       =    107.841348     0.000004    -0.000503   107.840845
	   34 B(5,3,6)        =    112.645664     0.000002     0.000561   112.646225
	   35 B(5,3,7)        =    108.091383     0.000002     0.009525   108.100907
	   36 B(5,8,11)       =    116.080326     0.000000    -0.003049   116.077277
	   37 B(5,8,12)       =    107.536325     0.000000    -0.000574   107.535751
	   38 B(5,8,13)       =    109.559708    -0.000002     0.006090   109.565798
	   39 B(6,3,7)        =    107.068969    -0.000001    -0.002855   107.066114
	   40 B(8,5,9)        =    108.474321     0.000003    -0.003151   108.471170
	   41 B(8,5,10)       =    108.956480    -0.000003     0.001269   108.957749
	   42 B(8,11,14)      =    112.093948    -0.000000     0.000251   112.094199
	   43 B(8,11,15)      =    109.290474     0.000001    -0.001614   109.288859
	   44 B(8,11,16)      =    110.430032    -0.000001     0.002482   110.432515
	   45 B(9,5,10)       =    105.597937    -0.000000     0.006526   105.604462
	   46 B(11,8,12)      =    106.888747    -0.000002     0.000318   106.889064
	   47 B(11,8,13)      =    109.010309     0.000001     0.002367   109.012676
	   48 B(11,14,17)     =    114.750933    -0.000001     0.000301   114.751234
	   49 B(11,14,18)     =    109.330329     0.000001    -0.002319   109.328010
	   50 B(11,14,19)     =    108.603614    -0.000000    -0.000709   108.602906
	   51 B(12,8,13)      =    107.402667     0.000003    -0.005787   107.396881
	   52 B(14,11,15)     =    109.546856    -0.000001    -0.000415   109.546441
	   53 B(14,11,16)     =    108.871132     0.000002    -0.002341   108.868791
	   54 B(14,17,20)     =    114.709727     0.000001    -0.000258   114.709469
	   55 B(14,17,21)     =    108.316205    -0.000000     0.000225   108.316430
	   56 B(14,17,22)     =    109.226226    -0.000000     0.000026   109.226252
	   57 B(15,11,16)     =    106.446150    -0.000000     0.001703   106.447853
	   58 B(17,14,18)     =    109.218541    -0.000000     0.000642   109.219183
	   59 B(17,14,19)     =    108.438669     0.000001     0.000943   108.439613
	   60 B(17,20,23)     =    111.059208    -0.000000     0.000134   111.059342
	   61 B(17,20,24)     =    111.955448    -0.000001     0.000749   111.956197
	   62 B(17,20,25)     =    110.698934     0.000000    -0.000124   110.698810
	   63 B(18,14,19)     =    106.146096    -0.000000     0.001253   106.147349
	   64 B(20,17,21)     =    108.743859    -0.000000    -0.000205   108.743654
	   65 B(20,17,22)     =    109.297923    -0.000000     0.000447   109.298369
	   66 B(21,17,22)     =    106.202204     0.000000    -0.000242   106.201962
	   67 B(23,20,24)     =    107.900189     0.000000    -0.000130   107.900059
	   68 B(23,20,25)     =    107.664440     0.000000    -0.000222   107.664218
	   69 B(24,20,25)     =    107.375594     0.000000    -0.000460   107.375134
	   70 D(1,2,3,5)      =     44.192904    -0.000001    -0.107261    44.085644
	   71 D(1,2,3,6)      =    171.460358    -0.000001    -0.107779   171.352580
	   72 D(1,2,3,7)      =    -74.289546    -0.000001    -0.117773   -74.407319
	   73 D(2,3,5,8)      =     80.041309    -0.000000    -0.003296    80.038013
	   74 D(2,3,5,9)      =   -156.962464    -0.000000    -0.009661  -156.972126
	   75 D(2,3,5,10)     =    -43.000479     0.000000    -0.002010   -43.002489
	   76 D(3,5,8,11)     =    -40.403867    -0.000001    -0.001973   -40.405840
	   77 *D(3,5,8,12)    =   -159.999991     0.000000     0.000000  -159.999991
	   78 D(3,5,8,13)     =     83.567582    -0.000001     0.003956    83.571538
	   79 D(4,2,3,5)      =   -138.091303    -0.000001    -0.114776  -138.206079
	   80 D(4,2,3,6)      =    -10.823849    -0.000001    -0.115294   -10.939142
	   81 D(4,2,3,7)      =    103.426247    -0.000001    -0.125288   103.300959
	   82 D(5,8,11,14)    =   -175.697674     0.000000    -0.015603  -175.713277
	   83 D(5,8,11,15)    =    -54.052781     0.000000    -0.017081   -54.069862
	   84 D(5,8,11,16)    =     62.720704    -0.000000    -0.014531    62.706173
	   85 D(6,3,5,8)      =    -45.223665    -0.000000     0.001128   -45.222537
	   86 D(6,3,5,9)      =     77.772562     0.000000    -0.005238    77.767324
	   87 D(6,3,5,10)     =   -168.265453     0.000000     0.002414  -168.263039
	   88 D(7,3,5,8)      =   -163.314743    -0.000001    -0.001844  -163.316587
	   89 D(7,3,5,9)      =    -40.318516    -0.000000    -0.008210   -40.326726
	   90 D(7,3,5,10)     =     73.643469    -0.000000    -0.000558    73.642911
	   91 D(8,11,14,17)   =   -175.510704     0.000000    -0.001356  -175.512060
	   92 D(8,11,14,18)   =     61.406678     0.000000    -0.000611    61.406067
	   93 D(8,11,14,19)   =    -53.999146     0.000000    -0.000462   -53.999608
	   94 D(9,5,8,11)     =   -163.450436    -0.000000     0.002468  -163.447969
	   95 D(9,5,8,12)     =     76.953440     0.000000     0.004441    76.957881
	   96 D(9,5,8,13)     =    -39.478987    -0.000000     0.008397   -39.470590
	   97 D(10,5,8,11)    =     82.061307    -0.000000    -0.004227    82.057079
	   98 D(10,5,8,12)    =    -37.534817     0.000000    -0.002254   -37.537071
	   99 D(10,5,8,13)    =   -153.967244    -0.000000     0.001702  -153.965542
	  100 D(11,14,17,20)  =    -65.023107    -0.000000    -0.015378   -65.038485
	  101 D(11,14,17,21)  =    173.313407    -0.000000    -0.015107   173.298300
	  102 D(11,14,17,22)  =     58.053322    -0.000000    -0.014956    58.038366
	  103 D(12,8,11,14)   =    -55.750851    -0.000000    -0.018030   -55.768881
	  104 D(12,8,11,15)   =     65.894042    -0.000000    -0.019508    65.874534
	  105 D(12,8,11,16)   =   -177.332473    -0.000000    -0.016959  -177.349432
	  106 D(13,8,11,14)   =     60.047087     0.000000    -0.023449    60.023639
	  107 D(13,8,11,15)   =   -178.308020     0.000000    -0.024927  -178.332947
	  108 D(13,8,11,16)   =    -61.534535     0.000000    -0.022377   -61.556912
	  109 D(14,17,20,23)  =    -55.918474     0.000000     0.002130   -55.916344
	  110 D(14,17,20,24)  =     64.767635    -0.000000     0.002572    64.770206
	  111 D(14,17,20,25)  =   -175.462127     0.000000     0.002403  -175.459725
	  112 D(15,11,14,17)  =     62.991480    -0.000000     0.000812    62.992291
	  113 D(15,11,14,18)  =    -60.091139     0.000000     0.001557   -60.089582
	  114 D(15,11,14,19)  =   -175.496962     0.000000     0.001706  -175.495257
	  115 D(16,11,14,17)  =    -53.039137    -0.000000     0.000319   -53.038818
	  116 D(16,11,14,18)  =   -176.121755     0.000000     0.001065  -176.120690
	  117 D(16,11,14,19)  =     68.472421    -0.000000     0.001213    68.473634
	  118 D(18,14,17,20)  =     58.119449    -0.000000    -0.017710    58.101739
	  119 D(18,14,17,21)  =    -63.544037    -0.000000    -0.017440   -63.561477
	  120 D(18,14,17,22)  =   -178.804122    -0.000000    -0.017288  -178.821410
	  121 D(19,14,17,20)  =    173.375363     0.000000    -0.015370   173.359993
	  122 D(19,14,17,21)  =     51.711877    -0.000000    -0.015099    51.696777
	  123 D(19,14,17,22)  =    -63.548209    -0.000000    -0.014948   -63.563156
	  124 D(21,17,20,23)  =     65.511529     0.000000     0.002092    65.513621
	  125 D(21,17,20,24)  =   -173.802362    -0.000000     0.002534  -173.799828
	  126 D(21,17,20,25)  =    -54.032124     0.000000     0.002365   -54.029759
	  127 D(22,17,20,23)  =   -178.956406     0.000000     0.001934  -178.954473
	  128 D(22,17,20,24)  =    -58.270297    -0.000000     0.002376   -58.267922
	  129 D(22,17,20,25)  =     61.499940    -0.000000     0.002207    61.502147
	  130 R(2,11)         =      3.171404    -0.000610    -0.000131     3.171273
	  131 R(4,11)         =      3.573196     0.000587     0.001510     3.574705
	 ---------------------------------------------------------------------------
	Successfully symmetrized geometry.

  ==> Convergence Check <==

  Measures of convergence in internal coordinates in au.
  Criteria marked as inactive (o), active & met (*), and active & unmet ( ).
  ---------------------------------------------------------------------------------------------
   Step     Total Energy     Delta E     MAX Force     RMS Force      MAX Disp      RMS Disp   
  ---------------------------------------------------------------------------------------------
    Convergence Criteria    1.00e-06 *    3.00e-04 *             o    1.20e-03 *             o
  ---------------------------------------------------------------------------------------------
     12    -387.25477137   -7.05e-07 *    1.57e-04 *    2.61e-05 o    2.85e-03      5.12e-04 o  ~
  ---------------------------------------------------------------------------------------------


  **** Optimization is complete! (in 12 steps) ****

  ==> Optimization Summary <==

  Measures of convergence in internal coordinates in au.
  --------------------------------------------------------------------------------------------------------------- ~
   Step         Total Energy             Delta E       MAX Force       RMS Force        MAX Disp        RMS Disp  ~
  --------------------------------------------------------------------------------------------------------------- ~
      1    -387.245477985501   -387.245477985501      0.01640620      0.00238985      0.31171521      0.04625613  ~
      2    -387.251367028849     -0.005889043349      0.01132557      0.00163524      0.27465483      0.04369532  ~
      3    -387.252009833072     -0.000642804223      0.00593471      0.00137620      0.05291168      0.01094178  ~
      4    -387.253369343654     -0.001359510581      0.00326510      0.00075916      0.19822533      0.03153655  ~
      5    -387.254373238708     -0.001003895054      0.00174759      0.00043094      0.11253000      0.02452673  ~
      6    -387.254581477577     -0.000208238869      0.00360242      0.00050096      0.14221743      0.01978652  ~
      7    -387.254714322143     -0.000132844566      0.00213129      0.00034496      0.04314124      0.00819095  ~
      8    -387.254759113841     -0.000044791697      0.00150329      0.00016888      0.00922138      0.00204757  ~
      9    -387.254768267209     -0.000009153368      0.00016377      0.00003794      0.00254106      0.00051198  ~
     10    -387.254769655912     -0.000001388703      0.00008622      0.00001898      0.00243098      0.00051196  ~
     11    -387.254770667576     -0.000001011664      0.00006948      0.00001614      0.00250888      0.00051194  ~
     12    -387.254771372440     -0.000000704863      0.00015709      0.00002610      0.00285283      0.00051194  ~
  --------------------------------------------------------------------------------------------------------------- ~

	Writing optimization data to binary file.
	Final energy is   -387.2547713724395
	Final (previous) structure:
	Cartesian Geometry (in Angstrom)
	    H    -1.0948009032   2.6176797144   0.2767560171
	    C    -1.1052735914   1.8791946182   1.0896988569
	    C    -2.1660739832   0.8177299221   0.9686255119
	    O    -0.3462508171   1.9780890230   1.9900655410
	    C    -2.3204795117   0.2173997734  -0.4344448430
	    H    -1.9936621880   0.0651532004   1.7272888627
	    H    -3.0962287170   1.3224197826   1.2246782943
	    C    -1.3037067382  -0.8605348729  -0.8437361935
	    H    -3.3165249855  -0.1986438432  -0.5239652670
	    H    -2.2787211362   1.0333104373  -1.1524533093
	    C     0.1452032410  -0.6137786869  -0.4200012441
	    H    -1.3094002654  -0.9208526700  -1.9278186373
	    H    -1.6239397305  -1.8253211586  -0.4632334461
	    C     1.0926346028  -1.6833193840  -0.9619233730
	    H     0.4607114785   0.3636836836  -0.7728838552
	    H     0.2246166782  -0.5901638717   0.6616122678
	    C     2.5407921467  -1.5565634668  -0.4861290763
	    H     1.0702508811  -1.6666313789  -2.0492595799
	    H     0.7181390561  -2.6598805178  -0.6668993939
	    C     3.2615393264  -0.2981603888  -0.9634157949
	    H     3.0909947025  -2.4262161509  -0.8321964005
	    H     2.5653510543  -1.5945237345   0.5993933906
	    H     3.2381104275  -0.2221151184  -2.0460928542
	    H     2.8170551432   0.6019498571  -0.5567734721
	    H     4.3011502096  -0.3126431098  -0.6571477939
	Saving final (previous) structure.
			--------------------------
			 OPTKING Finished Execution 
			--------------------------

    Final optimized geometry and variables:
    Molecular point group: c1
    Full point group: C1

    Geometry (in Angstrom), charge = 0, multiplicity = 1:

    H           -1.094800903182     2.617679714408     0.276756017121
    C           -1.105273591393     1.879194618201     1.089698856903
    C           -2.166073983228     0.817729922071     0.968625511943
    O           -0.346250817068     1.978089023010     1.990065540986
    C           -2.320479511685     0.217399773428    -0.434444842974
    H           -1.993662187959     0.065153200401     1.727288862739
    H           -3.096228717022     1.322419782575     1.224678294315
    C           -1.303706738229    -0.860534872920    -0.843736193473
    H           -3.316524985545    -0.198643843182    -0.523965267012
    H           -2.278721136157     1.033310437287    -1.152453309278
    C            0.145203241030    -0.613778686918    -0.420001244088
    H           -1.309400265412    -0.920852669995    -1.927818637332
    H           -1.623939730453    -1.825321158614    -0.463233446123
    C            1.092634602813    -1.683319383985    -0.961923373003
    H            0.460711478467     0.363683683563    -0.772883855176
    H            0.224616678241    -0.590163871730     0.661612267817
    C            2.540792146665    -1.556563466778    -0.486129076349
    H            1.070250881139    -1.666631378895    -2.049259579934
    H            0.718139056119    -2.659880517821    -0.666899393857
    C            3.261539326419    -0.298160388833    -0.963415794939
    H            3.090994702489    -2.426216150919    -0.832196400519
    H            2.565351054347    -1.594523734505     0.599393390584
    H            3.238110427520    -0.222115118407    -2.046092854213
    H            2.817055143195     0.601949857108    -0.556773472078
    H            4.301150209635    -0.312643109827    -0.657147793861

	Cleaning optimization helper files.


Properties will be evaluated at   0.000000,   0.000000,   0.000000 Bohr

Properties computed using the  density matrix

  Nuclear Dipole Moment: (a.u.)
     X:     3.5355      Y:    -6.0023      Z:    -6.7018

  Electronic Dipole Moment: (a.u.)
     X:    -4.2988      Y:     5.6598      Z:     5.8731

  Dipole Moment: (a.u.)
     X:    -0.7633      Y:    -0.3425      Z:    -0.8287     Total:     1.1776

  Dipole Moment: (Debye)
     X:    -1.9402      Y:    -0.8706      Z:    -2.1064     Total:     2.9932

  Quadrupole Moment: (Debye Ang)
    XX:   -54.6885     YY:   -60.2849     ZZ:   -64.6822
    XY:    -3.2028     XZ:    -1.5392     YZ:    -5.2236

  Traceless Quadrupole Moment: (Debye Ang)
    XX:     5.1967     YY:    -0.3997     ZZ:    -4.7970
    XY:    -3.2028     XZ:    -1.5392     YZ:    -5.2236

  Mulliken Charges: (a.u.)
   Center  Symbol    Alpha    Beta     Spin     Total
       1     H     0.46220  0.46220  0.00000  0.07560
       2     C     2.90035  2.90035  0.00000  0.19930
       3     C     3.09756  3.09756  0.00000 -0.19512
       4     O     4.17000  4.17000  0.00000 -0.34001
       5     C     3.11806  3.11806  0.00000 -0.23613
       6     H     0.43934  0.43934  0.00000  0.12132
       7     H     0.43644  0.43644  0.00000  0.12712
       8     C     3.08826  3.08826  0.00000 -0.17651
       9     H     0.43906  0.43906  0.00000  0.12188
      10     H     0.45111  0.45111  0.00000  0.09778
      11     C     3.11056  3.11056  0.00000 -0.22111
      12     H     0.44922  0.44922  0.00000  0.10156
      13     H     0.44839  0.44839  0.00000  0.10321
      14     C     3.09763  3.09763  0.00000 -0.19527
      15     H     0.45073  0.45073  0.00000  0.09855
      16     H     0.43991  0.43991  0.00000  0.12018
      17     C     3.08969  3.08969  0.00000 -0.17937
      18     H     0.45369  0.45369  0.00000  0.09262
      19     H     0.44962  0.44962  0.00000  0.10075
      20     C     3.15419  3.15419  0.00000 -0.30837
      21     H     0.44900  0.44900  0.00000  0.10200
      22     H     0.45265  0.45265  0.00000  0.09471
      23     H     0.45637  0.45637  0.00000  0.08726
      24     H     0.45014  0.45014  0.00000  0.09971
      25     H     0.44582  0.44582  0.00000  0.10835

   Total alpha = 36.00000, Total beta = 36.00000, Total charge =  0.00000


*** Psi4 exiting successfully. Buy a developer a beer!
