    -----------------------------------------------------------------------
          Psi4: An Open-Source Ab Initio Electronic Structure Package
                              Psi4 (no tag) Driver

                          Git: Rev {detached?}  

    J. M. Turney, A. C. Simmonett, R. M. Parrish, E. G. Hohenstein,
    F. A. Evangelista, J. T. Fermann, B. J. Mintz, L. A. Burns, J. J. Wilke,
    M. L. Abrams, N. J. Russ, M. L. Leininger, C. L. Janssen, E. T. Seidl,
    W. D. Allen, H. F. Schaefer, R. A. King, E. F. Valeev, C. D. Sherrill,
    and T. D. Crawford, WIREs Comput. Mol. Sci. 2, 556-565 (2012)
    (doi: 10.1002/wcms.93)

                         Additional Contributions by
    A. E. DePrince, M. Saitow, U. Bozkaya, A. Yu. Sokolov
    -----------------------------------------------------------------------


    Psi4 started on: Fri Sep  2 11:53:56 2016

    Process ID:  20088
    PSI4DATADIR: /export131/home/mjharvey/miniconda3/share
    Memory level set to 256.000 MB

  ==> Input File <==

--------------------------------------------------------------------------
set {
	reference rhf
	basis 6-31G*
}


set_num_threads( 4 )
memory 2 gb

molecule MOL {
0 1

H	 3.276176	 0.174363	 -0.109463
N	 2.434251	 -0.367735	 -0.081097
C	 1.267428	 0.496480	 0.024474
H	 2.501951	 -0.965776	 0.720575
C	 -0.016086	 -0.325158	 -0.029487
H	 1.288818	 1.183521	 -0.816092
H	 1.267576	 1.109062	 0.929528
C	 -1.282277	 0.529072	 0.046735
H	 -0.012495	 -0.908639	 -0.945788
H	 -0.015903	 -1.041248	 0.791956
C	 -1.431738	 1.477780	 -1.142096
H	 -1.271972	 1.107181	 0.968510
H	 -2.155307	 -0.117985	 0.102340
H	 -0.590578	 2.162065	 -1.204738
H	 -2.336672	 2.071862	 -1.060358
H	 -1.479996	 0.928389	 -2.078078

	symmetry c1
}
set optking {
	frozen_dihedral = ("
		12 8 5 9
	")
}

ee = optimize('scf')
oeprop('DIPOLE', 'QUADRUPOLE', 'MULLIKEN_CHARGES')
f=open( 'psi4out.xyz', 'w' )
f.write( "16  " )
f.write( str(ee) + "\n" )
f.write( MOL.save_string_xyz() )
f.close()
--------------------------------------------------------------------------

  Memory set to   2.000 GiB by Python script.
gradient() will perform analytic gradient computation.

*** tstart() called on cx1-1-4-2.cx1.hpc.ic.ac.uk
*** at Fri Sep  2 11:53:56 2016


         ---------------------------------------------------------
                                   SCF
            by Justin Turney, Rob Parrish, and Andy Simmonett
                              RHF Reference
                        4 Threads,   2000 MiB Core
         ---------------------------------------------------------

  ==> Geometry <==

    Molecular point group: c1
    Full point group: C1

    Geometry (in Angstrom), charge = 0, multiplicity = 1:

       Center              X                  Y                   Z               Mass       
    ------------   -----------------  -----------------  -----------------  -----------------
           H          3.043443654389    -0.191438043925     0.123989483875     1.007825032070
           N          2.201518654389    -0.733536043925     0.152355483875    14.003074004780
           C          1.034695654389     0.130678956075     0.257926483875    12.000000000000
           H          2.269218654389    -1.331577043925     0.954027483875     1.007825032070
           C         -0.248818345611    -0.690959043925     0.203965483875    12.000000000000
           H          1.056085654389     0.817719956075    -0.582639516125     1.007825032070
           H          1.034843654389     0.743260956075     1.162980483875     1.007825032070
           C         -1.515009345611     0.163270956075     0.280187483875    12.000000000000
           H         -0.245227345611    -1.274440043925    -0.712335516125     1.007825032070
           H         -0.248635345611    -1.407049043925     1.025408483875     1.007825032070
           C         -1.664470345611     1.111978956075    -0.908643516125    12.000000000000
           H         -1.504704345611     0.741379956075     1.201962483875     1.007825032070
           H         -2.388039345611    -0.483786043925     0.335792483875     1.007825032070
           H         -0.823310345611     1.796263956075    -0.971285516125     1.007825032070
           H         -2.569404345611     1.706060956075    -0.826905516125     1.007825032070
           H         -1.712728345611     0.562587956075    -1.844625516125     1.007825032070

  Running in c1 symmetry.

  Rotational constants: A =      0.39804  B =      0.07949  C =      0.07258 [cm^-1]
  Rotational constants: A =  11933.06166  B =   2383.00725  C =   2175.84138 [MHz]
  Nuclear repulsion =  189.433950993773010

  Charge       = 0
  Multiplicity = 1
  Electrons    = 42
  Nalpha       = 21
  Nbeta        = 21

  ==> Algorithm <==

  SCF Algorithm Type is DF.
  DIIS enabled.
  MOM disabled.
  Fractional occupation disabled.
  Guess Type is CORE.
  Energy threshold   = 1.00e-08
  Density threshold  = 1.00e-08
  Integral threshold = 0.00e+00

  ==> Primary Basis <==

  Basis Set: 6-31G*
    Number of shells: 52
    Number of basis function: 97
    Number of Cartesian functions: 97
    Spherical Harmonics?: false
    Max angular momentum: 2

  ==> Pre-Iterations <==

   -------------------------------------------------------
    Irrep   Nso     Nmo     Nalpha   Nbeta   Ndocc  Nsocc
   -------------------------------------------------------
     A         97      97       0       0       0       0
   -------------------------------------------------------
    Total      97      97      21      21      21       0
   -------------------------------------------------------

 OEINTS: Overlap, kinetic, potential, dipole, and quadrupole integrals
         stored in file 35.

  ==> Integral Setup <==

  ==> DFJK: Density-Fitted J/K Matrices <==

    J tasked:                  Yes
    K tasked:                  Yes
    wK tasked:                  No
    OpenMP threads:              4
    Integrals threads:           4
    Memory (MB):              1430
    Algorithm:                Core
    Integral Cache:           NONE
    Schwarz Cutoff:          1E-12
    Fitting Condition:       1E-12

   => Auxiliary Basis Set <=

  Basis Set: 
    Number of shells: 219
    Number of basis function: 680
    Number of Cartesian functions: 680
    Spherical Harmonics?: false
    Max angular momentum: 3

  Minimum eigenvalue in the overlap matrix is 4.0505250723E-03.
  Using Symmetric Orthogonalization.
  SCF Guess: Core (One-Electron) Hamiltonian.

  ==> Iterations <==

                           Total Energy        Delta E     RMS |[F,P]|

   @DF-RHF iter   1:  -165.41643580113214   -1.65416e+02   7.59186e-02 
   @DF-RHF iter   2:  -132.20456764634531    3.32119e+01   7.44352e-02 DIIS
   @DF-RHF iter   3:  -178.31640789855015   -4.61118e+01   5.02305e-02 DIIS
   @DF-RHF iter   4:  -173.12601175167674    5.19040e+00   6.10035e-02 DIIS
   @DF-RHF iter   5:  -212.09233508949899   -3.89663e+01   6.52134e-03 DIIS
   @DF-RHF iter   6:  -212.27894551680049   -1.86610e-01   2.58816e-03 DIIS
   @DF-RHF iter   7:  -212.31021997750821   -3.12745e-02   8.34433e-04 DIIS
   @DF-RHF iter   8:  -212.31440055185743   -4.18057e-03   2.33600e-04 DIIS
   @DF-RHF iter   9:  -212.31480944303496   -4.08891e-04   7.15705e-05 DIIS
   @DF-RHF iter  10:  -212.31484801827474   -3.85752e-05   2.45824e-05 DIIS
   @DF-RHF iter  11:  -212.31485264444336   -4.62617e-06   5.96214e-06 DIIS
   @DF-RHF iter  12:  -212.31485287674684   -2.32303e-07   2.17212e-06 DIIS
   @DF-RHF iter  13:  -212.31485291368682   -3.69400e-08   3.97567e-07 DIIS
   @DF-RHF iter  14:  -212.31485291567208   -1.98526e-09   8.57084e-08 DIIS
   @DF-RHF iter  15:  -212.31485291576416   -9.20863e-11   2.65321e-08 DIIS
   @DF-RHF iter  16:  -212.31485291577155   -7.38964e-12   8.45029e-09 DIIS

  ==> Post-Iterations <==

    Orbital Energies (a.u.)
    -----------------------

    Doubly Occupied:                                                      

       1A    -15.532621     2A    -11.239295     3A    -11.214953  
       4A    -11.209558     5A    -11.207328     6A     -1.176728  
       7A     -1.060636     8A     -0.953603     9A     -0.858302  
      10A     -0.779709    11A     -0.663956    12A     -0.630379  
      13A     -0.609386    14A     -0.595953    15A     -0.544602  
      16A     -0.523580    17A     -0.515643    18A     -0.466929  
      19A     -0.465862    20A     -0.454622    21A     -0.381426  

    Virtual:                                                              

      22A      0.229333    23A      0.240173    24A      0.267665  
      25A      0.288731    26A      0.314264    27A      0.316298  
      28A      0.325385    29A      0.337369    30A      0.344807  
      31A      0.357311    32A      0.384716    33A      0.416263  
      34A      0.430702    35A      0.453684    36A      0.471520  
      37A      0.721439    38A      0.728997    39A      0.750710  
      40A      0.757071    41A      0.779635    42A      0.845393  
      43A      0.874645    44A      0.935869    45A      0.966326  
      46A      0.973832    47A      1.008878    48A      1.038889  
      49A      1.067255    50A      1.130358    51A      1.141397  
      52A      1.159332    53A      1.174886    54A      1.194083  
      55A      1.199193    56A      1.224158    57A      1.233400  
      58A      1.236506    59A      1.249585    60A      1.265750  
      61A      1.290910    62A      1.321354    63A      1.336539  
      64A      1.506559    65A      1.646045    66A      1.719918  
      67A      1.728166    68A      1.845469    69A      1.863940  
      70A      1.953706    71A      1.980290    72A      2.122553  
      73A      2.171776    74A      2.239550    75A      2.254931  
      76A      2.288552    77A      2.326653    78A      2.333668  
      79A      2.429994    80A      2.458153    81A      2.556965  
      82A      2.601048    83A      2.648062    84A      2.693161  
      85A      2.712004    86A      2.757034    87A      2.779837  
      88A      2.873154    89A      2.947205    90A      2.980460  
      91A      3.087212    92A      3.172727    93A      4.219027  
      94A      4.584946    95A      4.714390    96A      4.842452  
      97A      4.958334  

    Final Occupation by Irrep:
              A 
    DOCC [    21 ]

  Energy converged.

  @DF-RHF Final Energy:  -212.31485291577155

   => Energetics <=

    Nuclear Repulsion Energy =            189.4339509937730099
    One-Electron Energy =                -661.3274647140018487
    Two-Electron Energy =                 259.5786608044571722
    DFT Exchange-Correlation Energy =       0.0000000000000000
    Empirical Dispersion Energy =           0.0000000000000000
    PCM Polarization Energy =               0.0000000000000000
    EFP Energy =                            0.0000000000000000
    Total Energy =                       -212.3148529157716666

    Alert: EFP and PCM quantities not currently incorporated into SCF psivars.

Properties will be evaluated at   0.000000,   0.000000,   0.000000 Bohr
  ==> Properties <==


Properties computed using the SCF density matrix

  Nuclear Dipole Moment: (a.u.)
     X:    -1.9643      Y:     1.5761      Z:    -0.1257

  Electronic Dipole Moment: (a.u.)
     X:     2.0289      Y:    -1.2912      Z:     0.6010

  Dipole Moment: (a.u.)
     X:     0.0646      Y:     0.2849      Z:     0.4753     Total:     0.5579

  Dipole Moment: (Debye)
     X:     0.1642      Y:     0.7241      Z:     1.2080     Total:     1.4180


  Saving occupied orbitals to File 180.

*** tstop() called on cx1-1-4-2.cx1.hpc.ic.ac.uk at Fri Sep  2 11:54:00 2016
Module time:
	user time   =       9.49 seconds =       0.16 minutes
	system time =       0.15 seconds =       0.00 minutes
	total time  =          4 seconds =       0.07 minutes
Total time:
	user time   =       9.49 seconds =       0.16 minutes
	system time =       0.15 seconds =       0.00 minutes
	total time  =          4 seconds =       0.07 minutes

*** tstart() called on cx1-1-4-2.cx1.hpc.ic.ac.uk
*** at Fri Sep  2 11:54:00 2016


         ------------------------------------------------------------
                                   SCF GRAD                          
                          Rob Parrish, Justin Turney,                
                       Andy Simmonett, and Alex Sokolov              
         ------------------------------------------------------------

  ==> Geometry <==

    Molecular point group: c1
    Full point group: C1

    Geometry (in Angstrom), charge = 0, multiplicity = 1:

       Center              X                  Y                   Z               Mass       
    ------------   -----------------  -----------------  -----------------  -----------------
           H          3.043443654389    -0.191438043925     0.123989483875     1.007825032070
           N          2.201518654389    -0.733536043925     0.152355483875    14.003074004780
           C          1.034695654389     0.130678956075     0.257926483875    12.000000000000
           H          2.269218654389    -1.331577043925     0.954027483875     1.007825032070
           C         -0.248818345611    -0.690959043925     0.203965483875    12.000000000000
           H          1.056085654389     0.817719956075    -0.582639516125     1.007825032070
           H          1.034843654389     0.743260956075     1.162980483875     1.007825032070
           C         -1.515009345611     0.163270956075     0.280187483875    12.000000000000
           H         -0.245227345611    -1.274440043925    -0.712335516125     1.007825032070
           H         -0.248635345611    -1.407049043925     1.025408483875     1.007825032070
           C         -1.664470345611     1.111978956075    -0.908643516125    12.000000000000
           H         -1.504704345611     0.741379956075     1.201962483875     1.007825032070
           H         -2.388039345611    -0.483786043925     0.335792483875     1.007825032070
           H         -0.823310345611     1.796263956075    -0.971285516125     1.007825032070
           H         -2.569404345611     1.706060956075    -0.826905516125     1.007825032070
           H         -1.712728345611     0.562587956075    -1.844625516125     1.007825032070

  Nuclear repulsion =  189.433950993773010

  ==> Basis Set <==

  Basis Set: 6-31G*
    Number of shells: 52
    Number of basis function: 97
    Number of Cartesian functions: 97
    Spherical Harmonics?: false
    Max angular momentum: 2

  ==> DFJKGrad: Density-Fitted SCF Gradients <==

    Gradient:                    1
    J tasked:                  Yes
    K tasked:                  Yes
    wK tasked:                  No
    OpenMP threads:              4
    Integrals threads:           4
    Memory (MB):              1430
    Schwarz Cutoff:          0E+00
    Fitting Condition:       1E-12

   => Auxiliary Basis Set <=

  Basis Set: 
    Number of shells: 219
    Number of basis function: 680
    Number of Cartesian functions: 680
    Spherical Harmonics?: false
    Max angular momentum: 3


  -Total Gradient:
     Atom            X                  Y                   Z
    ------   -----------------  -----------------  -----------------
       1        0.000018669000     0.000007283003     0.000043858138
       2        0.000273911690    -0.000006933063    -0.000218791636
       3       -0.001448146432    -0.000076860307     0.001315905141
       4       -0.000003344481     0.000037898063     0.000057477635
       5        0.000052212854     0.001808775091    -0.000787325116
       6       -0.002311620110     0.001701686646    -0.001525492379
       7        0.000266762208    -0.000123811355    -0.000302926927
       8        0.000723855709    -0.000705973991     0.000167196069
       9       -0.000049131187     0.000099379747     0.000064520435
      10       -0.000309007030    -0.000526903723     0.000246739947
      11        0.000735235346    -0.001670244136     0.000282694032
      12        0.000433286280     0.000079869021    -0.000275522273
      13       -0.001227556930    -0.000073809239     0.000164562673
      14        0.003021471630    -0.000746985728     0.000823185552
      15       -0.000008916191    -0.000030115523    -0.000028514976
      16       -0.000167682356     0.000226745495    -0.000027566316


*** tstop() called on cx1-1-4-2.cx1.hpc.ic.ac.uk at Fri Sep  2 11:54:03 2016
Module time:
	user time   =      11.56 seconds =       0.19 minutes
	system time =       0.13 seconds =       0.00 minutes
	total time  =          3 seconds =       0.05 minutes
Total time:
	user time   =      21.08 seconds =       0.35 minutes
	system time =       0.28 seconds =       0.00 minutes
	total time  =          7 seconds =       0.12 minutes
CURRENT ENERGY: -212.3148529158

			-----------------------------------------
			 OPTKING 2.0: for geometry optimizations 
			  - R.A. King,  Bethel University        
			-----------------------------------------

	Internal coordinates to be generated automatically.
	Detected frag with atoms:  1 2 3 4 5 6 7 8 9 10 11 12 13 14 15 16
	---Fragment 1 Bond Connectivity---
	 1 : 2
	 2 : 1 3 4
	 3 : 2 5 6 7
	 4 : 2
	 5 : 3 8 9 10
	 6 : 3
	 7 : 3
	 8 : 5 11 12 13
	 9 : 5
	 10 : 5
	 11 : 8 14 15 16
	 12 : 8
	 13 : 8
	 14 : 11
	 15 : 11
	 16 : 11

	Assuming in current code that numbering for constraints corresponds to unified fragment.
	Frozen dihedral atom list: 
	    12     8     5     9
	---Fragment 1 Geometry and Gradient---
	 H           5.7512750077       -0.3617654744        0.2343061679
	 N           4.1602673332       -1.3861822316        0.2879101394
	 C           1.9552914177        0.2469474383        0.4874104169
	 H           4.2882017924       -2.5163159379        1.8028506678
	 C          -0.4701985300       -1.3057233621        0.3854389051
	 H           1.9957126597        1.5452667704       -1.1010291197
	 H           1.9555710972        1.4045596522        2.1977146124
	 C          -2.8629527520        0.3085373924        0.5294776104
	 H          -0.4634125235       -2.4083426558       -1.3461190402
	 H          -0.4698527102       -2.6589373486        1.9377412089
	 C          -3.1453931095        2.1013356925       -1.7170873979
	 H          -2.8434791242        1.4010050774        2.2713799165
	 H          -4.5127403578       -0.9142231299        0.6345558320
	 H          -1.5558310756        3.3944469394       -1.8354636223
	 H          -4.8554705379        3.2239879730       -1.5626249632
	 H          -3.2365875132        1.0631371626       -3.4858370432
	             0.0000186690        0.0000072830        0.0000438581
	             0.0002739117       -0.0000069331       -0.0002187916
	            -0.0014481464       -0.0000768603        0.0013159051
	            -0.0000033445        0.0000378981        0.0000574776
	             0.0000522129        0.0018087751       -0.0007873251
	            -0.0023116201        0.0017016866       -0.0015254924
	             0.0002667622       -0.0001238114       -0.0003029269
	             0.0007238557       -0.0007059740        0.0001671961
	            -0.0000491312        0.0000993797        0.0000645204
	            -0.0003090070       -0.0005269037        0.0002467399
	             0.0007352353       -0.0016702441        0.0002826940
	             0.0004332863        0.0000798690       -0.0002755223
	            -0.0012275569       -0.0000738092        0.0001645627
	             0.0030214716       -0.0007469857        0.0008231856
	            -0.0000089162       -0.0000301155       -0.0000285150
	            -0.0001676824        0.0002267455       -0.0000275663

	Previous optimization step data not found.  Starting new optimization.

	---Fragment 1 Intrafragment Coordinates---
	 - Coordinate -           - BOHR/RAD -       - ANG/DEG -
	 R(1,2)           =         1.893042	       1.001755
	 R(2,3)           =         2.751151	       1.455847
	 R(2,4)           =         1.894364	       1.002454
	 R(3,5)           =         2.881699	       1.524929
	 R(3,6)           =         2.051928	       1.085833
	 R(3,7)           =         2.065238	       1.092877
	 R(5,8)           =         2.889958	       1.529300
	 R(5,9)           =         2.052829	       1.086311
	 R(5,10)          =         2.059328	       1.089749
	 R(8,11)          =         2.888071	       1.528301
	 R(8,12)          =         2.056232	       1.088111
	 R(8,13)          =         2.056206	       1.088098
	 R(11,14)         =         2.052525	       1.086149
	 R(11,15)         =         2.051480	       1.085597
	 R(11,16)         =         2.052961	       1.086380
	 B(1,2,3)         =         1.933087	     110.757749
	 B(1,2,4)         =         1.863688	     106.781477
	 B(2,3,5)         =         1.930697	     110.620805
	 B(2,3,6)         =         1.879345	     107.678541
	 B(2,3,7)         =         1.974340	     113.121346
	 B(3,2,4)         =         1.928660	     110.504074
	 B(3,5,8)         =         1.975942	     113.213133
	 B(3,5,9)         =         1.892801	     108.449517
	 B(3,5,10)        =         1.904179	     109.101401
	 B(5,3,6)         =         1.907212	     109.275202
	 B(5,3,7)         =         1.908615	     109.355608
	 B(5,8,11)        =         1.970279	     112.888647
	 B(5,8,12)        =         1.908318	     109.338591
	 B(5,8,13)        =         1.912068	     109.553404
	 B(6,3,7)         =         1.861281	     106.643549
	 B(8,5,9)         =         1.922823	     110.169653
	 B(8,5,10)        =         1.906695	     109.245562
	 B(8,11,14)       =         1.939290	     111.113147
	 B(8,11,15)       =         1.941913	     111.263425
	 B(8,11,16)       =         1.939717	     111.137624
	 B(9,5,10)        =         1.857582	     106.431583
	 B(11,8,12)       =         1.907190	     109.273924
	 B(11,8,13)       =         1.907558	     109.295011
	 B(12,8,13)       =         1.854853	     106.275275
	 B(14,11,15)      =         1.880879	     107.766406
	 B(14,11,16)      =         1.878964	     107.656721
	 B(15,11,16)      =         1.880299	     107.733184
	 D(1,2,3,5)       =         3.073475	     176.097137
	 D(1,2,3,6)       =         0.990452	      56.748737
	 D(1,2,3,7)       =        -1.061674	     -60.829417
	 D(2,3,5,8)       =        -3.120123	    -178.769860
	 D(2,3,5,9)       =        -0.980576	     -56.182883
	 D(2,3,5,10)      =         1.035938	      59.354871
	 D(3,5,8,11)      =         1.108095	      63.489150
	 D(3,5,8,12)      =        -1.018812	     -58.373610
	 D(3,5,8,13)      =        -3.045022	    -174.466893
	 D(4,2,3,5)       =        -1.148048	     -65.778299
	 D(4,2,3,6)       =         3.052115	     174.873301
	 D(4,2,3,7)       =         0.999989	      57.295147
	 D(5,8,11,14)     =        -1.043754	     -59.802676
	 D(5,8,11,15)     =        -3.139594	    -179.885500
	 D(5,8,11,16)     =         1.048197	      60.057252
	 D(6,3,5,8)       =        -1.053994	     -60.389387
	 D(6,3,5,9)       =         1.085553	      62.197591
	 D(6,3,5,10)      =         3.102067	     177.735345
	 D(7,3,5,8)       =         0.977363	      55.998780
	 D(7,3,5,9)       =         3.116909	     178.585758
	 D(7,3,5,10)      =        -1.149762	     -65.876489
	 D(9,5,8,11)      =        -1.014686	     -58.137231
	*D(9,5,8,12)      =         3.141593	     180.000000
	 D(9,5,8,13)      =         1.115383	      63.906726
	 D(10,5,8,11)     =        -3.049375	    -174.716319
	 D(10,5,8,12)     =         1.106904	      63.420921
	 D(10,5,8,13)     =        -0.919306	     -52.672363
	 D(12,8,11,14)    =         1.083788	      62.096506
	 D(12,8,11,15)    =        -1.012052	     -57.986318
	 D(12,8,11,16)    =        -3.107446	    -178.043565
	 D(13,8,11,14)    =         3.106829	     178.008207
	 D(13,8,11,15)    =         1.010989	      57.925383
	 D(13,8,11,16)    =        -1.084406	     -62.131864

	Current energy   :      -212.3148529158

	Generating empirical Hessian (Schlegel '84) for each fragment.
	Taking RFO optimization step.
	Going to follow RFO solution 1.
	Using RFO vector 1.
	Norm of target step-size    0.42388
	Projected energy change by RFO approximation:        -0.0063388320

	Back-transformation to cartesian coordinates...
	Successfully converged to displaced geometry.

	Back-transformation to cartesian coordinates to adjust frozen coordinates...
	Successfully converged to displaced geometry.

	--- Internal Coordinate Step in ANG or DEG, aJ/ANG or AJ/DEG ---
	 ---------------------------------------------------------------------------
	   Coordinate                Previous        Force       Change         New 
	   ----------                --------       ------       ------       ------
	    1 R(1,2)          =      1.001755    -0.000152    -0.000020     1.001734
	    2 R(2,3)          =      1.455847    -0.001793    -0.000305     1.455541
	    3 R(2,4)          =      1.002454    -0.000191    -0.000026     1.002428
	    4 R(3,5)          =      1.524929     0.015567     0.003317     1.528246
	    5 R(3,6)          =      1.085833    -0.018225    -0.003293     1.082540
	    6 R(3,7)          =      1.092877     0.002638     0.000488     1.093365
	    7 R(5,8)          =      1.529300     0.036927     0.007976     1.537276
	    8 R(5,9)          =      1.086311     0.000889     0.000161     1.086472
	    9 R(5,10)         =      1.089749    -0.004384    -0.000803     1.088947
	   10 R(8,11)         =      1.528301     0.020969     0.004515     1.532816
	   11 R(8,12)         =      1.088111     0.001540     0.000280     1.088391
	   12 R(8,13)         =      1.088098    -0.008545    -0.001556     1.086542
	   13 R(11,14)        =      1.086149    -0.015010    -0.002715     1.083434
	   14 R(11,15)        =      1.085597     0.000092     0.000017     1.085613
	   15 R(11,16)        =      1.086380     0.000688     0.000124     1.086505
	   16 B(1,2,3)        =    110.757749     0.000000     0.015161   110.772910
	   17 B(1,2,4)        =    106.781477     0.000000     0.031317   106.812794
	   18 B(2,3,5)        =    110.620805    -0.000084    -0.356731   110.264075
	   19 B(2,3,6)        =    107.678541    -0.000081    -0.549235   107.129306
	   20 B(2,3,7)        =    113.121346     0.000036    -0.165667   112.955679
	   21 B(3,2,4)        =    110.504074     0.000006     0.042615   110.546690
	   22 B(3,5,8)        =    113.213133     0.000576     2.277776   115.490909
	   23 B(3,5,9)        =    108.449517    -0.000198     0.468725   108.918242
	   24 B(3,5,10)       =    109.101401    -0.000241    -1.403463   107.697937
	   25 B(5,3,6)        =    109.275202     0.000166     1.168639   110.443841
	   26 B(5,3,7)        =    109.355608    -0.000017    -0.197608   109.158000
	   27 B(5,8,11)       =    112.888647     0.000667     2.626335   115.514982
	   28 B(5,8,12)       =    109.338591    -0.000128     0.397166   109.735757
	   29 B(5,8,13)       =    109.553404    -0.000263    -1.868894   107.684510
	   30 B(6,3,7)        =    106.643549    -0.000009     0.173057   106.816606
	   31 B(8,5,9)        =    110.169653    -0.000120     0.251961   110.421614
	   32 B(8,5,10)       =    109.245562    -0.000175    -1.258884   107.986678
	   33 B(8,11,14)      =    111.113147     0.000252     1.302849   112.415996
	   34 B(8,11,15)      =    111.263425    -0.000055    -0.444373   110.819053
	   35 B(8,11,16)      =    111.137624    -0.000052    -0.192007   110.945616
	   36 B(9,5,10)       =    106.431583     0.000132    -0.577913   105.853670
	   37 B(11,8,12)      =    109.273924    -0.000219     0.591003   109.864927
	   38 B(11,8,13)      =    109.295011    -0.000228    -1.316819   107.978193
	   39 B(12,8,13)      =    106.275275     0.000142    -0.718885   105.556390
	   40 B(14,11,15)     =    107.766406    -0.000120    -0.658993   107.107413
	   41 B(14,11,16)     =    107.656721    -0.000053     0.110719   107.767440
	   42 B(15,11,16)     =    107.733184     0.000020    -0.166309   107.566875
	   43 D(1,2,3,5)      =    176.097137     0.000012     0.485765   176.582902
	   44 D(1,2,3,6)      =     56.748737    -0.000012    -0.391284    56.357453
	   45 D(1,2,3,7)      =    -60.829417    -0.000002    -0.156146   -60.985564
	   46 D(2,3,5,8)      =   -178.769860    -0.000012    -5.951771  -184.721632
	   47 D(2,3,5,9)      =    -56.182883     0.000009    -3.646370   -59.829252
	   48 D(2,3,5,10)     =     59.354871    -0.000009    -4.822570    54.532301
	   49 D(3,5,8,11)     =     63.489150     0.000031     5.458396    68.947547
	   50 D(3,5,8,12)     =    -58.373610     0.000013     2.483314   -55.890296
	   51 D(3,5,8,13)     =   -174.466893     0.000025     4.155351  -170.311542
	   52 D(4,2,3,5)      =    -65.778299     0.000013     0.560985   -65.217314
	   53 D(4,2,3,6)      =    174.873301    -0.000011    -0.316064   174.557237
	   54 D(4,2,3,7)      =     57.295147    -0.000001    -0.080926    57.214220
	   55 D(5,8,11,14)    =    -59.802676    -0.000026    -7.136845   -66.939522
	   56 D(5,8,11,15)    =   -179.885500    -0.000022    -6.874603  -186.760103
	   57 D(5,8,11,16)    =     60.057252    -0.000011    -6.243237    53.814016
	   58 D(6,3,5,8)      =    -60.389387    -0.000023    -6.123134   -66.512521
	   59 D(6,3,5,9)      =     62.197591    -0.000002    -3.817733    58.379858
	   60 D(6,3,5,10)     =    177.735345    -0.000020    -4.993933   172.741411
	   61 D(7,3,5,8)      =     55.998780    -0.000006    -5.358582    50.640198
	   62 D(7,3,5,9)      =    178.585758     0.000015    -3.053180   175.532577
	   63 D(7,3,5,10)     =    -65.876489    -0.000004    -4.229381   -70.105870
	   64 D(9,5,8,11)     =    -58.137231     0.000018     2.974304   -55.162926
	   65 *D(9,5,8,12)    =    180.000000     0.000000     0.000000   180.000000
	   66 D(9,5,8,13)     =     63.906726     0.000012     1.671259    65.577984
	   67 D(10,5,8,11)    =   -174.716319     0.000021     4.253203  -170.463115
	   68 D(10,5,8,12)    =     63.420921     0.000003     1.278121    64.699042
	   69 D(10,5,8,13)    =    -52.672363     0.000014     2.950158   -49.722204
	   70 D(12,8,11,14)   =     62.096506     0.000004    -4.265086    57.831420
	   71 D(12,8,11,15)   =    -57.986318     0.000008    -4.002844   -61.989161
	   72 D(12,8,11,16)   =   -178.043565     0.000019    -3.371478  -181.415043
	   73 D(13,8,11,14)   =    178.008207    -0.000015    -5.529291   172.478916
	   74 D(13,8,11,15)   =     57.925383    -0.000010    -5.267048    52.658335
	   75 D(13,8,11,16)   =    -62.131864     0.000000    -4.635682   -66.767546
	 ---------------------------------------------------------------------------

  ==> Convergence Check <==

  Measures of convergence in internal coordinates in au.
  Criteria marked as inactive (o), active & met (*), and active & unmet ( ).
  --------------------------------------------------------------------------------------------- ~
   Step     Total Energy     Delta E     MAX Force     RMS Force      MAX Disp      RMS Disp    ~
  --------------------------------------------------------------------------------------------- ~
    Convergence Criteria    1.00e-06 *    3.00e-04 *             o    1.20e-03 *             o  ~
  --------------------------------------------------------------------------------------------- ~
      1    -212.31485292   -2.12e+02      8.76e-03      1.94e-03 o    1.25e-01      4.89e-02 o  ~
  ---------------------------------------------------------------------------------------------

	Writing optimization data to binary file.
	Structure for next step:
	Cartesian Geometry (in Angstrom)
	    H     3.0987583160  -0.3015621419   0.2281062578
	    N     2.2307343123  -0.8015670227   0.2269914226
	    C     1.1041364111   0.1199764512   0.2386270719
	    H     2.2251050911  -1.3745245096   1.0495185362
	    C    -0.2119811362  -0.6518761520   0.1513667390
	    H     1.2172172174   0.7726249620  -0.6176184578
	    H     1.0863555652   0.7605879933   1.1244865626
	    C    -1.4869598002   0.1989607660   0.2685138563
	    H    -0.2229748505  -1.2263358629  -0.7707480152
	    H    -0.2207307630  -1.3835742040   0.9578074536
	    C    -1.7668074109   1.1351529264  -0.9124839863
	    H    -1.4643747091   0.7692543830   1.1952558290
	    H    -2.3294320774  -0.4803970055   0.3648813795
	    H    -1.0329117575   1.9279714331  -0.9941293337
	    H    -2.7381010219   1.6086326181  -0.8077838996
	    H    -1.7685750905   0.5870927895  -1.8506306852
			--------------------------
			 OPTKING Finished Execution 
			--------------------------

    Structure for next step:
    Molecular point group: c1
    Full point group: C1

    Geometry (in Angstrom), charge = 0, multiplicity = 1:

    H            3.088752365697    -0.302587219985     0.227982257614
    N            2.220728428304    -0.802592062571     0.226867422464
    C            1.094130613152     0.118951340948     0.238503070845
    H            2.215099207515    -1.375549505767     1.049394473269
    C           -0.221986833650    -0.652901203336     0.151242744667
    H            1.207211410801     0.771599801861    -0.617742393446
    H            1.076349768564     0.759562834146     1.124362493947
    C           -1.496965400295     0.197935649729     0.268389853002
    H           -0.232980547173    -1.227360870300    -0.770871939132
    H           -0.230736459786    -1.384599199414     0.957683397701
    C           -1.776812989638     1.134127738606    -0.912607899394
    H           -1.474380310965     0.768229223159     1.195131754910
    H           -2.339437613211    -0.481422069916     0.364757368833
    H           -1.042917392304     1.926946184828    -0.994253240569
    H           -2.748106526461     1.607607394164    -0.807907820748
    H           -1.778580669159     0.586067643584    -1.850754526708

gradient() will perform analytic gradient computation.

*** tstart() called on cx1-1-4-2.cx1.hpc.ic.ac.uk
*** at Fri Sep  2 11:54:04 2016


         ---------------------------------------------------------
                                   SCF
            by Justin Turney, Rob Parrish, and Andy Simmonett
                              RHF Reference
                        4 Threads,   2000 MiB Core
         ---------------------------------------------------------

  ==> Geometry <==

    Molecular point group: c1
    Full point group: C1

    Geometry (in Angstrom), charge = 0, multiplicity = 1:

       Center              X                  Y                   Z               Mass       
    ------------   -----------------  -----------------  -----------------  -----------------
           H          3.088752365697    -0.302587219985     0.227982257614     1.007825032070
           N          2.220728428304    -0.802592062571     0.226867422464    14.003074004780
           C          1.094130613152     0.118951340948     0.238503070845    12.000000000000
           H          2.215099207515    -1.375549505767     1.049394473269     1.007825032070
           C         -0.221986833650    -0.652901203336     0.151242744667    12.000000000000
           H          1.207211410801     0.771599801861    -0.617742393446     1.007825032070
           H          1.076349768564     0.759562834146     1.124362493947     1.007825032070
           C         -1.496965400295     0.197935649729     0.268389853002    12.000000000000
           H         -0.232980547173    -1.227360870300    -0.770871939132     1.007825032070
           H         -0.230736459786    -1.384599199414     0.957683397701     1.007825032070
           C         -1.776812989638     1.134127738606    -0.912607899394    12.000000000000
           H         -1.474380310965     0.768229223159     1.195131754910     1.007825032070
           H         -2.339437613211    -0.481422069916     0.364757368833     1.007825032070
           H         -1.042917392304     1.926946184828    -0.994253240569     1.007825032070
           H         -2.748106526461     1.607607394164    -0.807907820748     1.007825032070
           H         -1.778580669159     0.586067643584    -1.850754526708     1.007825032070

  Running in c1 symmetry.

  Rotational constants: A =      0.42506  B =      0.07493  C =      0.06949 [cm^-1]
  Rotational constants: A =  12743.05106  B =   2246.33620  C =   2083.15596 [MHz]
  Nuclear repulsion =  187.887260041447234

  Charge       = 0
  Multiplicity = 1
  Electrons    = 42
  Nalpha       = 21
  Nbeta        = 21

  ==> Algorithm <==

  SCF Algorithm Type is DF.
  DIIS enabled.
  MOM disabled.
  Fractional occupation disabled.
  Guess Type is READ.
  Energy threshold   = 1.00e-08
  Density threshold  = 1.00e-08
  Integral threshold = 0.00e+00

  ==> Primary Basis <==

  Basis Set: 6-31G*
    Number of shells: 52
    Number of basis function: 97
    Number of Cartesian functions: 97
    Spherical Harmonics?: false
    Max angular momentum: 2

  ==> Pre-Iterations <==

   -------------------------------------------------------
    Irrep   Nso     Nmo     Nalpha   Nbeta   Ndocc  Nsocc
   -------------------------------------------------------
     A         97      97       0       0       0       0
   -------------------------------------------------------
    Total      97      97      21      21      21       0
   -------------------------------------------------------

 OEINTS: Overlap, kinetic, potential, dipole, and quadrupole integrals
         stored in file 35.

  ==> Integral Setup <==

  ==> DFJK: Density-Fitted J/K Matrices <==

    J tasked:                  Yes
    K tasked:                  Yes
    wK tasked:                  No
    OpenMP threads:              4
    Integrals threads:           4
    Memory (MB):              1430
    Algorithm:                Core
    Integral Cache:           NONE
    Schwarz Cutoff:          1E-12
    Fitting Condition:       1E-12

   => Auxiliary Basis Set <=

  Basis Set: 
    Number of shells: 219
    Number of basis function: 680
    Number of Cartesian functions: 680
    Spherical Harmonics?: false
    Max angular momentum: 3

  Minimum eigenvalue in the overlap matrix is 4.2037614282E-03.
  Using Symmetric Orthogonalization.
  SCF Guess: Reading in previously saved MOs, projecting if necessary.

  Using orbitals from previous SCF, no projection.
  Recomputing DOCC and SOCC from number of alpha and beta electrons from previous calculation.
              A 
    DOCC [    21 ]

  ==> Iterations <==

                           Total Energy        Delta E     RMS |[F,P]|

   @DF-RHF iter   0:  -212.29336404411708   -2.12293e+02   1.60677e-03 
   @DF-RHF iter   1:  -212.31418509417148   -2.08211e-02   3.17525e-04 
   @DF-RHF iter   2:  -212.31506455822034   -8.79464e-04   1.03246e-04 DIIS
   @DF-RHF iter   3:  -212.31517742316402   -1.12865e-04   2.41887e-05 DIIS
   @DF-RHF iter   4:  -212.31518079192057   -3.36876e-06   4.58527e-06 DIIS
   @DF-RHF iter   5:  -212.31518104847203   -2.56551e-07   1.23374e-06 DIIS
   @DF-RHF iter   6:  -212.31518106333567   -1.48636e-08   4.33234e-07 DIIS
   @DF-RHF iter   7:  -212.31518106548128   -2.14561e-09   1.23169e-07 DIIS
   @DF-RHF iter   8:  -212.31518106570866   -2.27374e-10   3.12918e-08 DIIS
   @DF-RHF iter   9:  -212.31518106572389   -1.52340e-11   6.81085e-09 DIIS

  ==> Post-Iterations <==

    Orbital Energies (a.u.)
    -----------------------

    Doubly Occupied:                                                      

       1A    -15.532628     2A    -11.239625     3A    -11.216136  
       4A    -11.210859     5A    -11.208086     6A     -1.176862  
       7A     -1.056402     8A     -0.955673     9A     -0.857840  
      10A     -0.780744    11A     -0.664564    12A     -0.627563  
      13A     -0.604131    14A     -0.596444    15A     -0.549377  
      16A     -0.519987    17A     -0.517052    18A     -0.467689  
      19A     -0.465636    20A     -0.454770    21A     -0.381096  

    Virtual:                                                              

      22A      0.227505    23A      0.239006    24A      0.270875  
      25A      0.288465    26A      0.310935    27A      0.317150  
      28A      0.320051    29A      0.337060    30A      0.342932  
      31A      0.357525    32A      0.376639    33A      0.412980  
      34A      0.430498    35A      0.458065    36A      0.464823  
      37A      0.718114    38A      0.725545    39A      0.747251  
      40A      0.757304    41A      0.780967    42A      0.837024  
      43A      0.873347    44A      0.931237    45A      0.973617  
      46A      0.976705    47A      1.005636    48A      1.023476  
      49A      1.065887    50A      1.131701    51A      1.143746  
      52A      1.155310    53A      1.172332    54A      1.187461  
      55A      1.195761    56A      1.223684    57A      1.233499  
      58A      1.236355    59A      1.244882    60A      1.267992  
      61A      1.284441    62A      1.317450    63A      1.340623  
      64A      1.479972    65A      1.636948    66A      1.721662  
      67A      1.725173    68A      1.846210    69A      1.864216  
      70A      1.956137    71A      1.972906    72A      2.123507  
      73A      2.159622    74A      2.233702    75A      2.247920  
      76A      2.288380    77A      2.317860    78A      2.330829  
      79A      2.421478    80A      2.453500    81A      2.560486  
      82A      2.603146    83A      2.645273    84A      2.691738  
      85A      2.714468    86A      2.752055    87A      2.771239  
      88A      2.875061    89A      2.949280    90A      2.984097  
      91A      3.086186    92A      3.156204    93A      4.217257  
      94A      4.573261    95A      4.704617    96A      4.850916  
      97A      4.951042  

    Final Occupation by Irrep:
              A 
    DOCC [    21 ]

  Energy converged.

  @DF-RHF Final Energy:  -212.31518106572389

   => Energetics <=

    Nuclear Repulsion Energy =            187.8872600414472345
    One-Electron Energy =                -658.2385516930476115
    Two-Electron Energy =                 258.0361105858764859
    DFT Exchange-Correlation Energy =       0.0000000000000000
    Empirical Dispersion Energy =           0.0000000000000000
    PCM Polarization Energy =               0.0000000000000000
    EFP Energy =                            0.0000000000000000
    Total Energy =                       -212.3151810657238912

    Alert: EFP and PCM quantities not currently incorporated into SCF psivars.

Properties will be evaluated at   0.000000,   0.000000,   0.000000 Bohr
  ==> Properties <==


Properties computed using the SCF density matrix

  Nuclear Dipole Moment: (a.u.)
     X:    -2.1249      Y:     1.5477      Z:    -0.1152

  Electronic Dipole Moment: (a.u.)
     X:     2.1746      Y:    -1.2526      Z:     0.5859

  Dipole Moment: (a.u.)
     X:     0.0497      Y:     0.2951      Z:     0.4706     Total:     0.5578

  Dipole Moment: (Debye)
     X:     0.1263      Y:     0.7502      Z:     1.1963     Total:     1.4177


  Saving occupied orbitals to File 180.

*** tstop() called on cx1-1-4-2.cx1.hpc.ic.ac.uk at Fri Sep  2 11:54:09 2016
Module time:
	user time   =      10.45 seconds =       0.17 minutes
	system time =       0.12 seconds =       0.00 minutes
	total time  =          5 seconds =       0.08 minutes
Total time:
	user time   =      32.84 seconds =       0.55 minutes
	system time =       0.44 seconds =       0.01 minutes
	total time  =         13 seconds =       0.22 minutes

*** tstart() called on cx1-1-4-2.cx1.hpc.ic.ac.uk
*** at Fri Sep  2 11:54:09 2016


         ------------------------------------------------------------
                                   SCF GRAD                          
                          Rob Parrish, Justin Turney,                
                       Andy Simmonett, and Alex Sokolov              
         ------------------------------------------------------------

  ==> Geometry <==

    Molecular point group: c1
    Full point group: C1

    Geometry (in Angstrom), charge = 0, multiplicity = 1:

       Center              X                  Y                   Z               Mass       
    ------------   -----------------  -----------------  -----------------  -----------------
           H          3.088752365697    -0.302587219985     0.227982257614     1.007825032070
           N          2.220728428304    -0.802592062571     0.226867422464    14.003074004780
           C          1.094130613152     0.118951340948     0.238503070845    12.000000000000
           H          2.215099207515    -1.375549505767     1.049394473269     1.007825032070
           C         -0.221986833650    -0.652901203336     0.151242744667    12.000000000000
           H          1.207211410801     0.771599801861    -0.617742393446     1.007825032070
           H          1.076349768564     0.759562834146     1.124362493947     1.007825032070
           C         -1.496965400295     0.197935649729     0.268389853002    12.000000000000
           H         -0.232980547173    -1.227360870300    -0.770871939132     1.007825032070
           H         -0.230736459786    -1.384599199414     0.957683397701     1.007825032070
           C         -1.776812989638     1.134127738606    -0.912607899394    12.000000000000
           H         -1.474380310965     0.768229223159     1.195131754910     1.007825032070
           H         -2.339437613211    -0.481422069916     0.364757368833     1.007825032070
           H         -1.042917392304     1.926946184828    -0.994253240569     1.007825032070
           H         -2.748106526461     1.607607394164    -0.807907820748     1.007825032070
           H         -1.778580669159     0.586067643584    -1.850754526708     1.007825032070

  Nuclear repulsion =  187.887260041447234

  ==> Basis Set <==

  Basis Set: 6-31G*
    Number of shells: 52
    Number of basis function: 97
    Number of Cartesian functions: 97
    Spherical Harmonics?: false
    Max angular momentum: 2

  ==> DFJKGrad: Density-Fitted SCF Gradients <==

    Gradient:                    1
    J tasked:                  Yes
    K tasked:                  Yes
    wK tasked:                  No
    OpenMP threads:              4
    Integrals threads:           4
    Memory (MB):              1430
    Schwarz Cutoff:          0E+00
    Fitting Condition:       1E-12

   => Auxiliary Basis Set <=

  Basis Set: 
    Number of shells: 219
    Number of basis function: 680
    Number of Cartesian functions: 680
    Spherical Harmonics?: false
    Max angular momentum: 3


  -Total Gradient:
     Atom            X                  Y                   Z
    ------   -----------------  -----------------  -----------------
       1        0.000067020641    -0.000025057786     0.000145059044
       2        0.000190018782     0.000843793886    -0.000004479978
       3        0.001136430801    -0.000488712464    -0.000621751113
       4       -0.000053020950     0.000000248381     0.000025336176
       5        0.000401366182    -0.000437141364    -0.001349031224
       6        0.000987069129    -0.001420077271     0.001261547395
       7        0.000300996278    -0.000126954454     0.000173726331
       8        0.000452809922     0.001717117858     0.001022351419
       9        0.000029259632    -0.000989950585     0.000515261789
      10        0.000388664827     0.000058275264    -0.000307778115
      11       -0.001147336252     0.001192094351    -0.000768104495
      12       -0.001039629433    -0.000713510997     0.000668695205
      13        0.000253107076     0.000567964958    -0.000049165234
      14       -0.001977378617    -0.000530648309    -0.000029724709
      15        0.000156499022     0.000282034720    -0.000576723061
      16       -0.000145877040     0.000070523812    -0.000105219431


*** tstop() called on cx1-1-4-2.cx1.hpc.ic.ac.uk at Fri Sep  2 11:54:14 2016
Module time:
	user time   =      14.61 seconds =       0.24 minutes
	system time =       0.22 seconds =       0.00 minutes
	total time  =          5 seconds =       0.08 minutes
Total time:
	user time   =      47.48 seconds =       0.79 minutes
	system time =       0.66 seconds =       0.01 minutes
	total time  =         18 seconds =       0.30 minutes
CURRENT ENERGY: -212.3151810657

			-----------------------------------------
			 OPTKING 2.0: for geometry optimizations 
			  - R.A. King,  Bethel University        
			-----------------------------------------

	Previous internal coordinate definitions found.
	---Fragment 1 Geometry and Gradient---
	 H           5.8368960635       -0.5718069771        0.4308240300
	 N           4.1965685450       -1.5166791947        0.4287172969
	 C           2.0676072125        0.2247854575        0.4507054857
	 H           4.1859308594       -2.5994118481        1.9830681598
	 C          -0.4194943207       -1.2338044661        0.2858073670
	 H           2.2812989509        1.4581123097       -1.1673639443
	 H           2.0340062858        1.4353657373        2.1247371876
	 C          -2.8288546370        0.3740441699        0.5071833190
	 H          -0.4402694284       -2.3193759111       -1.4567368485
	 H          -0.4360287179       -2.6165132907        1.8097593437
	 C          -3.3576899398        2.1431908257       -1.7245789966
	 H          -2.7861750034        1.4517428391        2.2584717095
	 H          -4.4208963939       -0.9097558665        0.6892915320
	 H          -1.9708282507        3.6414005621       -1.8788663314
	 H          -5.1931687190        3.0379377042       -1.5267245218
	 H          -3.3610303700        1.1075073417       -3.4974191947
	             0.0000670206       -0.0000250578        0.0001450590
	             0.0001900188        0.0008437939       -0.0000044800
	             0.0011364308       -0.0004887125       -0.0006217511
	            -0.0000530209        0.0000002484        0.0000253362
	             0.0004013662       -0.0004371414       -0.0013490312
	             0.0009870691       -0.0014200773        0.0012615474
	             0.0003009963       -0.0001269545        0.0001737263
	             0.0004528099        0.0017171179        0.0010223514
	             0.0000292596       -0.0009899506        0.0005152618
	             0.0003886648        0.0000582753       -0.0003077781
	            -0.0011473363        0.0011920944       -0.0007681045
	            -0.0010396294       -0.0007135110        0.0006686952
	             0.0002531071        0.0005679650       -0.0000491652
	            -0.0019773786       -0.0005306483       -0.0000297247
	             0.0001564990        0.0002820347       -0.0005767231
	            -0.0001458770        0.0000705238       -0.0001052194

	---Fragment 1 Intrafragment Coordinates---
	 - Coordinate -           - BOHR/RAD -       - ANG/DEG -
	 R(1,2)           =         1.893004	       1.001734
	 R(2,3)           =         2.750574	       1.455541
	 R(2,4)           =         1.894315	       1.002428
	 R(3,5)           =         2.887966	       1.528246
	 R(3,6)           =         2.045705	       1.082540
	 R(3,7)           =         2.066160	       1.093365
	 R(5,8)           =         2.905030	       1.537276
	 R(5,9)           =         2.053134	       1.086472
	 R(5,10)          =         2.057811	       1.088947
	 R(8,11)          =         2.896603	       1.532816
	 R(8,12)          =         2.056761	       1.088391
	 R(8,13)          =         2.053266	       1.086542
	 R(11,14)         =         2.047394	       1.083434
	 R(11,15)         =         2.051512	       1.085613
	 R(11,16)         =         2.053196	       1.086505
	 B(1,2,3)         =         1.933352	     110.772910
	 B(1,2,4)         =         1.864235	     106.812794
	 B(2,3,5)         =         1.924471	     110.264075
	 B(2,3,6)         =         1.869759	     107.129306
	 B(2,3,7)         =         1.971449	     112.955679
	 B(3,2,4)         =         1.929404	     110.546690
	 B(3,5,8)         =         2.015697	     115.490909
	 B(3,5,9)         =         1.900982	     108.918242
	 B(3,5,10)        =         1.879684	     107.697937
	 B(5,3,6)         =         1.927609	     110.443841
	 B(5,3,7)         =         1.905167	     109.158000
	 B(5,8,11)        =         2.016117	     115.514982
	 B(5,8,12)        =         1.915250	     109.735757
	 B(5,8,13)        =         1.879449	     107.684510
	 B(6,3,7)         =         1.864301	     106.816606
	 B(8,5,9)         =         1.927221	     110.421614
	 B(8,5,10)        =         1.884723	     107.986678
	 B(8,11,14)       =         1.962029	     112.415996
	 B(8,11,15)       =         1.934157	     110.819053
	 B(8,11,16)       =         1.936366	     110.945616
	 B(9,5,10)        =         1.847495	     105.853670
	 B(11,8,12)       =         1.917505	     109.864927
	 B(11,8,13)       =         1.884575	     107.978193
	 B(12,8,13)       =         1.842307	     105.556390
	 B(14,11,15)      =         1.869377	     107.107413
	 B(14,11,16)      =         1.880897	     107.767440
	 B(15,11,16)      =         1.877396	     107.566875
	 D(1,2,3,5)       =         3.081953	     176.582902
	 D(1,2,3,6)       =         0.983623	      56.357453
	 D(1,2,3,7)       =        -1.064399	     -60.985564
	 D(2,3,5,8)       =         3.059185	     175.278368
	 D(2,3,5,9)       =        -1.044217	     -59.829252
	 D(2,3,5,10)      =         0.951768	      54.532301
	 D(3,5,8,11)      =         1.203362	      68.947547
	 D(3,5,8,12)      =        -0.975470	     -55.890296
	 D(3,5,8,13)      =        -2.972497	    -170.311542
	 D(4,2,3,5)       =        -1.138257	     -65.217314
	 D(4,2,3,6)       =         3.046599	     174.557237
	 D(4,2,3,7)       =         0.998577	      57.214220
	 D(5,8,11,14)     =        -1.168315	     -66.939522
	 D(5,8,11,15)     =         3.023607	     173.239897
	 D(5,8,11,16)     =         0.939232	      53.814016
	 D(6,3,5,8)       =        -1.160862	     -66.512521
	 D(6,3,5,9)       =         1.018921	      58.379858
	 D(6,3,5,10)      =         3.014906	     172.741411
	 D(7,3,5,8)       =         0.883838	      50.640198
	 D(7,3,5,9)       =         3.063621	     175.532577
	 D(7,3,5,10)      =        -1.223578	     -70.105870
	 D(9,5,8,11)      =        -0.962775	     -55.162926
	*D(9,5,8,12)      =         3.141593	     180.000000
	 D(9,5,8,13)      =         1.144552	      65.577984
	 D(10,5,8,11)     =        -2.975143	    -170.463115
	 D(10,5,8,12)     =         1.129211	      64.699042
	 D(10,5,8,13)     =        -0.867816	     -49.722204
	 D(12,8,11,14)    =         1.009349	      57.831420
	 D(12,8,11,15)    =        -1.081915	     -61.989161
	 D(12,8,11,16)    =         3.116895	     178.584957
	 D(13,8,11,14)    =         3.010325	     172.478916
	 D(13,8,11,15)    =         0.919061	      52.658335
	 D(13,8,11,16)    =        -1.165314	     -66.767546

	Current energy   :      -212.3151810657

	Energy change for the previous step:
		Projected    :        -0.0063388320
		Actual       :        -0.0003281500
	Energy ratio indicates iffy step: Trust radius decreased to 1.250e-01.


	Performing BFGS update.
	Previous computed or guess Hessian on step 1.
	Steps to be used in Hessian update: 1
	Taking RFO optimization step.
	Going to follow RFO solution 1.
	Using RFO vector 1.
	Norm of target step-size    0.11187
	Projected energy change by RFO approximation:        -0.0011336109

	Back-transformation to cartesian coordinates...
	Successfully converged to displaced geometry.

	Back-transformation to cartesian coordinates to adjust frozen coordinates...
	Successfully converged to displaced geometry.

	--- Internal Coordinate Step in ANG or DEG, aJ/ANG or AJ/DEG ---
	 ---------------------------------------------------------------------------
	   Coordinate                Previous        Force       Change         New 
	   ----------                --------       ------       ------       ------
	    1 R(1,2)          =      1.001734    -0.000377    -0.000033     1.001702
	    2 R(2,3)          =      1.455541     0.002982     0.000331     1.455873
	    3 R(2,4)          =      1.002428    -0.000173    -0.000015     1.002413
	    4 R(3,5)          =      1.528246    -0.014047    -0.001964     1.526283
	    5 R(3,6)          =      1.082540     0.014425     0.001712     1.084252
	    6 R(3,7)          =      1.093365    -0.000506    -0.000064     1.093301
	    7 R(5,8)          =      1.537276    -0.035451    -0.005021     1.532255
	    8 R(5,9)          =      1.086472    -0.000707    -0.000084     1.086388
	    9 R(5,10)         =      1.088947     0.002226     0.000269     1.089216
	   10 R(8,11)         =      1.532816    -0.019180    -0.002709     1.530107
	   11 R(8,12)         =      1.088391    -0.001433    -0.000171     1.088220
	   12 R(8,13)         =      1.086542     0.004579     0.000550     1.087092
	   13 R(11,14)        =      1.083434     0.014216     0.001686     1.085120
	   14 R(11,15)        =      1.085613     0.000598     0.000070     1.085683
	   15 R(11,16)        =      1.086505    -0.000457    -0.000054     1.086450
	   16 B(1,2,3)        =    110.772910    -0.000007    -0.008359   110.764552
	   17 B(1,2,4)        =    106.812794     0.000002     0.029958   106.842752
	   18 B(2,3,5)        =    110.264075    -0.000063    -0.125719   110.138356
	   19 B(2,3,6)        =    107.129306     0.000070     0.249479   107.378785
	   20 B(2,3,7)        =    112.955679     0.000041     0.239087   113.194766
	   21 B(3,2,4)        =    110.546690     0.000009     0.037902   110.584592
	   22 B(3,5,8)        =    115.490909    -0.000289    -0.810096   114.680813
	   23 B(3,5,9)        =    108.918242     0.000102    -0.336122   108.582120
	   24 B(3,5,10)       =    107.697937     0.000143     0.662844   108.360781
	   25 B(5,3,6)        =    110.443841    -0.000051    -0.331065   110.112776
	   26 B(5,3,7)        =    109.158000     0.000018     0.026352   109.184352
	   27 B(5,8,11)       =    115.514982    -0.000315    -0.881760   114.633222
	   28 B(5,8,12)       =    109.735757     0.000060    -0.271070   109.464686
	   29 B(5,8,13)       =    107.684510     0.000089     0.566586   108.251096
	   30 B(6,3,7)        =    106.816606    -0.000015    -0.069744   106.746861
	   31 B(8,5,9)        =    110.421614     0.000043    -0.282178   110.139436
	   32 B(8,5,10)       =    107.986678     0.000072     0.473949   108.460627
	   33 B(8,11,14)      =    112.415996    -0.000073    -0.246622   112.169374
	   34 B(8,11,15)      =    110.819053    -0.000046    -0.093599   110.725453
	   35 B(8,11,16)      =    110.945616     0.000004    -0.008113   110.937503
	   36 B(9,5,10)       =    105.853670    -0.000051     0.419561   106.273231
	   37 B(11,8,12)      =    109.864927     0.000092    -0.437465   109.427463
	   38 B(11,8,13)      =    107.978193     0.000148     0.694586   108.672778
	   39 B(12,8,13)      =    105.556390    -0.000051     0.476226   106.032616
	   40 B(14,11,15)     =    107.107413     0.000073     0.264996   107.372409
	   41 B(14,11,16)     =    107.767440     0.000017    -0.031916   107.735524
	   42 B(15,11,16)     =    107.566875     0.000032     0.140337   107.707212
	   43 D(1,2,3,5)      =    176.582902    -0.000006    -0.546223   176.036678
	   44 D(1,2,3,6)      =     56.357453     0.000007    -0.224890    56.132563
	   45 D(1,2,3,7)      =    -60.985564    -0.000005    -0.435846   -61.421410
	   46 D(2,3,5,8)      =    175.278368     0.000010     1.522423   176.800791
	   47 D(2,3,5,9)      =    -59.829252    -0.000008     0.289476   -59.539776
	   48 D(2,3,5,10)     =     54.532301     0.000007     0.956310    55.488611
	   49 D(3,5,8,11)     =     68.947547    -0.000027    -2.746162    66.201384
	   50 D(3,5,8,12)     =    -55.890296    -0.000011    -1.285802   -57.176098
	   51 D(3,5,8,13)     =   -170.311542    -0.000016    -2.014745  -172.326288
	   52 D(4,2,3,5)      =    -65.217314    -0.000005    -0.490359   -65.707674
	   53 D(4,2,3,6)      =    174.557237     0.000008    -0.169027   174.388211
	   54 D(4,2,3,7)      =     57.214220    -0.000004    -0.379982    56.834238
	   55 D(5,8,11,14)    =    -66.939522     0.000013     1.144689   -65.794833
	   56 D(5,8,11,15)    =    173.239897     0.000010     1.037916   174.277813
	   57 D(5,8,11,16)    =     53.814016     0.000007     0.928490    54.742506
	   58 D(6,3,5,8)      =    -66.512521     0.000013     1.548136   -64.964384
	   59 D(6,3,5,9)      =     58.379858    -0.000004     0.315190    58.695048
	   60 D(6,3,5,10)     =    172.741411     0.000011     0.982024   173.723435
	   61 D(7,3,5,8)      =     50.640198     0.000005     1.287541    51.927740
	   62 D(7,3,5,9)      =    175.532577    -0.000012     0.054595   175.587172
	   63 D(7,3,5,10)     =    -70.105870     0.000003     0.721429   -69.384441
	   64 D(9,5,8,11)     =    -55.162926    -0.000016    -1.460181   -56.623108
	   65 *D(9,5,8,12)    =    180.000000     0.000000     0.000000   180.000000
	   66 D(9,5,8,13)     =     65.577984    -0.000004    -0.728764    64.849220
	   67 D(10,5,8,11)    =   -170.463115    -0.000016    -2.078014  -172.541130
	   68 D(10,5,8,12)    =     64.699042    -0.000001    -0.617654    64.081388
	   69 D(10,5,8,13)    =    -49.722204    -0.000005    -1.346598   -51.068802
	   70 D(12,8,11,14)   =     57.831420    -0.000006    -0.228830    57.602590
	   71 D(12,8,11,15)   =    -61.989161    -0.000009    -0.335602   -62.324764
	   72 D(12,8,11,16)   =    178.584957    -0.000012    -0.445028   178.139929
	   73 D(13,8,11,14)   =    172.478916     0.000009     0.484953   172.963869
	   74 D(13,8,11,15)   =     52.658335     0.000006     0.378180    53.036515
	   75 D(13,8,11,16)   =    -66.767546     0.000003     0.268754   -66.498792
	 ---------------------------------------------------------------------------

  ==> Convergence Check <==

  Measures of convergence in internal coordinates in au.
  Criteria marked as inactive (o), active & met (*), and active & unmet ( ).
  ---------------------------------------------------------------------------------------------
   Step     Total Energy     Delta E     MAX Force     RMS Force      MAX Disp      RMS Disp   
  ---------------------------------------------------------------------------------------------
    Convergence Criteria    1.00e-06 *    3.00e-04 *             o    1.20e-03 *             o
  ---------------------------------------------------------------------------------------------
      2    -212.31518107   -3.28e-04      4.30e-03      1.13e-03 o    4.79e-02      1.29e-02 o  ~
  ---------------------------------------------------------------------------------------------

	Writing optimization data to binary file.
	Structure for next step:
	Cartesian Geometry (in Angstrom)
	    H     3.0671769407  -0.2725215409   0.1846418905
	    N     2.2062592492  -0.7841374978   0.2064557193
	    C     1.0676270668   0.1225985668   0.2366529341
	    H     2.2266541915  -1.3519123657   1.0323180191
	    C    -0.2359748706  -0.6684745196   0.1705924612
	    H     1.1511769217   0.7761766195  -0.6244265489
	    H     1.0529598400   0.7661379104   1.1203663496
	    C    -1.5063866162   0.1820091336   0.2732455578
	    H    -0.2449800119  -1.2446653016  -0.7503640822
	    H    -0.2392656130  -1.3929474626   0.9839310701
	    C    -1.7364354675   1.1296942191  -0.9058216382
	    H    -1.4860156069   0.7540402035   1.1987663331
	    H    -2.3589433736  -0.4877405488   0.3529412485
	    H    -0.9774887991   1.9030901665  -0.9636515104
	    H    -2.6983810976   1.6253885031  -0.8183207122
	    H    -1.7286158884   0.5872797199  -1.8471500857
			--------------------------
			 OPTKING Finished Execution 
			--------------------------

    Structure for next step:
    Molecular point group: c1
    Full point group: C1

    Geometry (in Angstrom), charge = 0, multiplicity = 1:

    H            3.071183377618    -0.270947101103     0.183888361124
    N            2.210265751835    -0.782563018879     0.205702188264
    C            1.071633656378     0.124172976469     0.235899400774
    H            2.230660692571    -1.350337843459     1.031564424957
    C           -0.231968181453    -0.666900049508     0.169838932892
    H            1.155183504933     0.777750979264    -0.625180016464
    H            1.056966430700     0.767712270944     1.119612748769
    C           -1.502379830025     0.183583538696     0.272492021664
    H           -0.240973322080    -1.243090787522    -0.751117540172
    H           -0.235258923570    -1.391372937182     0.983177479658
    C           -1.732428663770     1.131268551835    -0.906575084260
    H           -1.482008822274     0.755614564910     1.198012726308
    H           -2.354936522343    -0.486166092496     0.352187706317
    H           -0.973482053341     1.904664440227    -0.964404952078
    H           -2.694374220388     1.626962798020    -0.819074164969
    H           -1.724609085291     0.588854094069    -1.847903459942

gradient() will perform analytic gradient computation.

*** tstart() called on cx1-1-4-2.cx1.hpc.ic.ac.uk
*** at Fri Sep  2 11:54:14 2016


         ---------------------------------------------------------
                                   SCF
            by Justin Turney, Rob Parrish, and Andy Simmonett
                              RHF Reference
                        4 Threads,   2000 MiB Core
         ---------------------------------------------------------

  ==> Geometry <==

    Molecular point group: c1
    Full point group: C1

    Geometry (in Angstrom), charge = 0, multiplicity = 1:

       Center              X                  Y                   Z               Mass       
    ------------   -----------------  -----------------  -----------------  -----------------
           H          3.071183377618    -0.270947101103     0.183888361124     1.007825032070
           N          2.210265751835    -0.782563018879     0.205702188264    14.003074004780
           C          1.071633656378     0.124172976469     0.235899400774    12.000000000000
           H          2.230660692571    -1.350337843459     1.031564424957     1.007825032070
           C         -0.231968181453    -0.666900049508     0.169838932892    12.000000000000
           H          1.155183504933     0.777750979264    -0.625180016464     1.007825032070
           H          1.056966430700     0.767712270944     1.119612748769     1.007825032070
           C         -1.502379830025     0.183583538696     0.272492021664    12.000000000000
           H         -0.240973322080    -1.243090787522    -0.751117540172     1.007825032070
           H         -0.235258923570    -1.391372937182     0.983177479658     1.007825032070
           C         -1.732428663770     1.131268551835    -0.906575084260    12.000000000000
           H         -1.482008822274     0.755614564910     1.198012726308     1.007825032070
           H         -2.354936522343    -0.486166092496     0.352187706317     1.007825032070
           H         -0.973482053341     1.904664440227    -0.964404952078     1.007825032070
           H         -2.694374220388     1.626962798020    -0.819074164969     1.007825032070
           H         -1.724609085291     0.588854094069    -1.847903459942     1.007825032070

  Running in c1 symmetry.

  Rotational constants: A =      0.41545  B =      0.07673  C =      0.07069 [cm^-1]
  Rotational constants: A =  12454.77808  B =   2300.21069  C =   2119.27537 [MHz]
  Nuclear repulsion =  188.547543279400429

  Charge       = 0
  Multiplicity = 1
  Electrons    = 42
  Nalpha       = 21
  Nbeta        = 21

  ==> Algorithm <==

  SCF Algorithm Type is DF.
  DIIS enabled.
  MOM disabled.
  Fractional occupation disabled.
  Guess Type is READ.
  Energy threshold   = 1.00e-08
  Density threshold  = 1.00e-08
  Integral threshold = 0.00e+00

  ==> Primary Basis <==

  Basis Set: 6-31G*
    Number of shells: 52
    Number of basis function: 97
    Number of Cartesian functions: 97
    Spherical Harmonics?: false
    Max angular momentum: 2

  ==> Pre-Iterations <==

   -------------------------------------------------------
    Irrep   Nso     Nmo     Nalpha   Nbeta   Ndocc  Nsocc
   -------------------------------------------------------
     A         97      97       0       0       0       0
   -------------------------------------------------------
    Total      97      97      21      21      21       0
   -------------------------------------------------------

 OEINTS: Overlap, kinetic, potential, dipole, and quadrupole integrals
         stored in file 35.

  ==> Integral Setup <==

  ==> DFJK: Density-Fitted J/K Matrices <==

    J tasked:                  Yes
    K tasked:                  Yes
    wK tasked:                  No
    OpenMP threads:              4
    Integrals threads:           4
    Memory (MB):              1430
    Algorithm:                Core
    Integral Cache:           NONE
    Schwarz Cutoff:          1E-12
    Fitting Condition:       1E-12

   => Auxiliary Basis Set <=

  Basis Set: 
    Number of shells: 219
    Number of basis function: 680
    Number of Cartesian functions: 680
    Spherical Harmonics?: false
    Max angular momentum: 3

  Minimum eigenvalue in the overlap matrix is 4.1345208163E-03.
  Using Symmetric Orthogonalization.
  SCF Guess: Reading in previously saved MOs, projecting if necessary.

  Using orbitals from previous SCF, no projection.
  Recomputing DOCC and SOCC from number of alpha and beta electrons from previous calculation.
              A 
    DOCC [    21 ]

  ==> Iterations <==

                           Total Energy        Delta E     RMS |[F,P]|

   @DF-RHF iter   0:  -212.31479523960320   -2.12315e+02   5.27374e-04 
   @DF-RHF iter   1:  -212.31540943717215   -6.14198e-04   9.84879e-05 
   @DF-RHF iter   2:  -212.31549270318595   -8.32660e-05   3.23970e-05 DIIS
   @DF-RHF iter   3:  -212.31550311773117   -1.04145e-05   9.92772e-06 DIIS
   @DF-RHF iter   4:  -212.31550373894561   -6.21214e-07   1.51427e-06 DIIS
   @DF-RHF iter   5:  -212.31550377321690   -3.42713e-08   3.96694e-07 DIIS
   @DF-RHF iter   6:  -212.31550377547842   -2.26152e-09   1.20124e-07 DIIS
   @DF-RHF iter   7:  -212.31550377567976   -2.01339e-10   3.73975e-08 DIIS
   @DF-RHF iter   8:  -212.31550377569511   -1.53477e-11   9.37756e-09 DIIS

  ==> Post-Iterations <==

    Orbital Energies (a.u.)
    -----------------------

    Doubly Occupied:                                                      

       1A    -15.532656     2A    -11.239568     3A    -11.215245  
       4A    -11.209897     5A    -11.207880     6A     -1.176801  
       7A     -1.058326     8A     -0.954998     9A     -0.857994  
      10A     -0.779921    11A     -0.664767    12A     -0.628643  
      13A     -0.605501    14A     -0.596723    15A     -0.548150  
      16A     -0.521588    17A     -0.516040    18A     -0.466866  
      19A     -0.465440    20A     -0.455368    21A     -0.381237  

    Virtual:                                                              

      22A      0.228055    23A      0.239312    24A      0.269683  
      25A      0.288501    26A      0.312014    27A      0.317270  
      28A      0.321414    29A      0.337699    30A      0.343254  
      31A      0.356855    32A      0.378879    33A      0.414684  
      34A      0.430011    35A      0.458267    36A      0.466088  
      37A      0.721787    38A      0.725166    39A      0.749219  
      40A      0.756467    41A      0.780316    42A      0.838854  
      43A      0.875141    44A      0.933952    45A      0.971116  
      46A      0.976835    47A      1.007346    48A      1.027328  
      49A      1.066199    50A      1.131859    51A      1.143482  
      52A      1.156503    53A      1.174087    54A      1.188457  
      55A      1.196232    56A      1.223721    57A      1.234064  
      58A      1.236327    59A      1.245670    60A      1.267213  
      61A      1.285711    62A      1.318512    63A      1.339615  
      64A      1.493605    65A      1.639642    66A      1.718830  
      67A      1.725484    68A      1.846524    69A      1.862999  
      70A      1.961434    71A      1.968840    72A      2.125186  
      73A      2.165108    74A      2.236710    75A      2.251779  
      76A      2.289388    77A      2.321539    78A      2.331989  
      79A      2.424125    80A      2.456684    81A      2.560920  
      82A      2.602796    83A      2.647298    84A      2.691947  
      85A      2.715314    86A      2.753004    87A      2.774426  
      88A      2.875128    89A      2.949696    90A      2.983254  
      91A      3.087644    92A      3.163844    93A      4.218087  
      94A      4.578364    95A      4.708359    96A      4.846899  
      97A      4.954159  

    Final Occupation by Irrep:
              A 
    DOCC [    21 ]

  Energy converged.

  @DF-RHF Final Energy:  -212.31550377569511

   => Energetics <=

    Nuclear Repulsion Energy =            188.5475432794004291
    One-Electron Energy =                -659.5588792880020037
    Two-Electron Energy =                 258.6958322329063549
    DFT Exchange-Correlation Energy =       0.0000000000000000
    Empirical Dispersion Energy =           0.0000000000000000
    PCM Polarization Energy =               0.0000000000000000
    EFP Energy =                            0.0000000000000000
    Total Energy =                       -212.3155037756952197

    Alert: EFP and PCM quantities not currently incorporated into SCF psivars.

Properties will be evaluated at   0.000000,   0.000000,   0.000000 Bohr
  ==> Properties <==


Properties computed using the SCF density matrix

  Nuclear Dipole Moment: (a.u.)
     X:    -2.0610      Y:     1.5769      Z:    -0.1311

  Electronic Dipole Moment: (a.u.)
     X:     2.1194      Y:    -1.2776      Z:     0.5968

  Dipole Moment: (a.u.)
     X:     0.0584      Y:     0.2993      Z:     0.4657     Total:     0.5566

  Dipole Moment: (Debye)
     X:     0.1484      Y:     0.7608      Z:     1.1836     Total:     1.4148


  Saving occupied orbitals to File 180.

*** tstop() called on cx1-1-4-2.cx1.hpc.ic.ac.uk at Fri Sep  2 11:54:18 2016
Module time:
	user time   =       9.92 seconds =       0.17 minutes
	system time =       0.15 seconds =       0.00 minutes
	total time  =          4 seconds =       0.07 minutes
Total time:
	user time   =      58.22 seconds =       0.97 minutes
	system time =       0.82 seconds =       0.01 minutes
	total time  =         22 seconds =       0.37 minutes

*** tstart() called on cx1-1-4-2.cx1.hpc.ic.ac.uk
*** at Fri Sep  2 11:54:18 2016


         ------------------------------------------------------------
                                   SCF GRAD                          
                          Rob Parrish, Justin Turney,                
                       Andy Simmonett, and Alex Sokolov              
         ------------------------------------------------------------

  ==> Geometry <==

    Molecular point group: c1
    Full point group: C1

    Geometry (in Angstrom), charge = 0, multiplicity = 1:

       Center              X                  Y                   Z               Mass       
    ------------   -----------------  -----------------  -----------------  -----------------
           H          3.071183377618    -0.270947101103     0.183888361124     1.007825032070
           N          2.210265751835    -0.782563018879     0.205702188264    14.003074004780
           C          1.071633656378     0.124172976469     0.235899400774    12.000000000000
           H          2.230660692571    -1.350337843459     1.031564424957     1.007825032070
           C         -0.231968181453    -0.666900049508     0.169838932892    12.000000000000
           H          1.155183504933     0.777750979264    -0.625180016464     1.007825032070
           H          1.056966430700     0.767712270944     1.119612748769     1.007825032070
           C         -1.502379830025     0.183583538696     0.272492021664    12.000000000000
           H         -0.240973322080    -1.243090787522    -0.751117540172     1.007825032070
           H         -0.235258923570    -1.391372937182     0.983177479658     1.007825032070
           C         -1.732428663770     1.131268551835    -0.906575084260    12.000000000000
           H         -1.482008822274     0.755614564910     1.198012726308     1.007825032070
           H         -2.354936522343    -0.486166092496     0.352187706317     1.007825032070
           H         -0.973482053341     1.904664440227    -0.964404952078     1.007825032070
           H         -2.694374220388     1.626962798020    -0.819074164969     1.007825032070
           H         -1.724609085291     0.588854094069    -1.847903459942     1.007825032070

  Nuclear repulsion =  188.547543279400429

  ==> Basis Set <==

  Basis Set: 6-31G*
    Number of shells: 52
    Number of basis function: 97
    Number of Cartesian functions: 97
    Spherical Harmonics?: false
    Max angular momentum: 2

  ==> DFJKGrad: Density-Fitted SCF Gradients <==

    Gradient:                    1
    J tasked:                  Yes
    K tasked:                  Yes
    wK tasked:                  No
    OpenMP threads:              4
    Integrals threads:           4
    Memory (MB):              1430
    Schwarz Cutoff:          0E+00
    Fitting Condition:       1E-12

   => Auxiliary Basis Set <=

  Basis Set: 
    Number of shells: 219
    Number of basis function: 680
    Number of Cartesian functions: 680
    Spherical Harmonics?: false
    Max angular momentum: 3


  -Total Gradient:
     Atom            X                  Y                   Z
    ------   -----------------  -----------------  -----------------
       1       -0.000073589685     0.000068521469     0.000020757071
       2       -0.000098928982    -0.000202642527     0.000028677308
       3        0.000202494539     0.000178759441    -0.000182272455
       4        0.000032093336    -0.000070545369     0.000026273764
       5        0.000236748123     0.000170279088     0.000001072401
       6        0.000199200003    -0.000141619392     0.000109781005
       7       -0.000181632716    -0.000030703694    -0.000023219248
       8        0.000089650164     0.000200706308    -0.000220066496
       9       -0.000065598503     0.000030777420     0.000040723455
      10       -0.000107810128    -0.000132683342     0.000046864399
      11        0.000043835094     0.000243993230     0.000047076474
      12        0.000040327952    -0.000111471717    -0.000051110401
      13       -0.000014842003    -0.000107753480     0.000126989804
      14       -0.000308922352     0.000098973292    -0.000100218072
      15       -0.000054522327    -0.000115706624     0.000014152064
      16        0.000061497484    -0.000078884102     0.000114518928


*** tstop() called on cx1-1-4-2.cx1.hpc.ic.ac.uk at Fri Sep  2 11:54:21 2016
Module time:
	user time   =      11.67 seconds =       0.19 minutes
	system time =       0.14 seconds =       0.00 minutes
	total time  =          3 seconds =       0.05 minutes
Total time:
	user time   =      69.92 seconds =       1.17 minutes
	system time =       0.96 seconds =       0.02 minutes
	total time  =         25 seconds =       0.42 minutes
CURRENT ENERGY: -212.3155037757

			-----------------------------------------
			 OPTKING 2.0: for geometry optimizations 
			  - R.A. King,  Bethel University        
			-----------------------------------------

	Previous internal coordinate definitions found.
	---Fragment 1 Geometry and Gradient---
	 H           5.8036954876       -0.5120158176        0.3474986415
	 N           4.1767969519       -1.4788297874        0.3887208008
	 C           2.0250941253        0.2346529186        0.4457852624
	 H           4.2153378044       -2.5517687110        1.9493742516
	 C          -0.4383563345       -1.2602584516        0.3209490699
	 H           2.1829804576        1.4697363504       -1.1814190149
[...]

			-----------------------------------------
			 OPTKING 2.0: for geometry optimizations 
			  - R.A. King,  Bethel University        
			-----------------------------------------

	Previous internal coordinate definitions found.
	---Fragment 1 Geometry and Gradient---
	 H           5.7985199903       -0.4914519602        0.3267267108
	 N           4.1761867997       -1.4656499792        0.3738351036
	 C           2.0163845304        0.2364477545        0.4554038109
	 H           4.2303605015       -2.5469256495        1.9281372010
	 C          -0.4425407019       -1.2666304132        0.3317111687
	 H           2.1583841563        1.4836199815       -1.1642005893
	 H           1.9945090605        1.4414758638        2.1335950864
	 C          -2.8439179244        0.3408283107        0.5151236237
	 H          -0.4525177995       -2.3578063964       -1.4073268293
	 H          -0.4475559787       -2.6316596380        1.8717738154
	 C          -3.2579245030        2.1328184370       -1.7162050558
	 H          -2.8124061834        1.4241910508        2.2630149828
	 H          -4.4589955291       -0.9203800256        0.6557883365
	 H          -1.7958850219        3.5660740707       -1.8332696927
	 H          -5.0566099500        3.1049143821       -1.5457519524
	 H          -3.2691018298        1.1051228826       -3.4936553109
	            -0.0000042300        0.0000020613        0.0000003215
	             0.0000001749       -0.0000056912       -0.0000062417
	             0.0000013369        0.0000047761        0.0000037099
	            -0.0000027972        0.0000013026        0.0000001773
	            -0.0000202829       -0.0000383745        0.0000408186
	             0.0000036893       -0.0000018810       -0.0000015083
	            -0.0000064706        0.0000027155       -0.0000017581
	            -0.0000315854       -0.0000556835        0.0000126254
	             0.0000202179        0.0000488925       -0.0000247080
	            -0.0000012236       -0.0000050278        0.0000010761
	             0.0000081813        0.0000130739        0.0000012306
	             0.0000300195        0.0000362658       -0.0000330690
	             0.0000015739       -0.0000083789        0.0000097745
	             0.0000019563        0.0000067726       -0.0000076234
	             0.0000008204        0.0000004403       -0.0000004213
	            -0.0000013808       -0.0000012636        0.0000055958

	---Fragment 1 Intrafragment Coordinates---
	 - Coordinate -           - BOHR/RAD -       - ANG/DEG -
	 R(1,2)           =         1.892946	       1.001704
	 R(2,3)           =         2.751097	       1.455818
	 R(2,4)           =         1.894188	       1.002361
	 R(3,5)           =         2.884590	       1.526459
	 R(3,6)           =         2.049078	       1.084325
	 R(3,7)           =         2.066131	       1.093350
	 R(5,8)           =         2.895544	       1.532256
	 R(5,9)           =         2.053051	       1.086428
	 R(5,10)          =         2.057941	       1.089016
	 R(8,11)          =         2.891619	       1.530179
	 R(8,12)          =         2.056646	       1.088330
	 R(8,13)          =         2.053998	       1.086929
	 R(11,14)         =         2.050728	       1.085199
	 R(11,15)         =         2.051656	       1.085690
	 R(11,16)         =         2.053196	       1.086504
	 B(1,2,3)         =         1.933886	     110.803507
	 B(1,2,4)         =         1.864699	     106.839369
	 B(2,3,5)         =         1.923635	     110.216188
	 B(2,3,6)         =         1.874159	     107.381385
	 B(2,3,7)         =         1.974946	     113.156077
	 B(3,2,4)         =         1.929756	     110.566867
	 B(3,5,8)         =         1.998702	     114.517165
	 B(3,5,9)         =         1.893792	     108.506299
	 B(3,5,10)        =         1.891900	     108.397872
	 B(5,3,6)         =         1.920193	     110.018934
	 B(5,3,7)         =         1.906791	     109.251067
	 B(5,8,11)        =         1.997527	     114.449890
	 B(5,8,12)        =         1.910872	     109.484876
	 B(5,8,13)        =         1.891860	     108.395587
	 B(6,3,7)         =         1.862672	     106.723271
	 B(8,5,9)         =         1.922695	     110.162302
	 B(8,5,10)        =         1.895265	     108.590706
	 B(8,11,14)       =         1.955298	     112.030301
	 B(8,11,15)       =         1.933754	     110.795937
	 B(8,11,16)       =         1.937574	     111.014797
	 B(9,5,10)        =         1.855990	     106.340372
	 B(11,8,12)       =         1.908752	     109.363406
	 B(11,8,13)       =         1.897359	     108.710665
	 B(12,8,13)       =         1.851770	     106.098590
	 B(14,11,15)      =         1.874050	     107.375173
	 B(14,11,16)      =         1.879986	     107.715290
	 B(15,11,16)      =         1.880009	     107.716582
	 D(1,2,3,5)       =         3.069559	     175.872779
	 D(1,2,3,6)       =         0.978014	      56.036050
	 D(1,2,3,7)       =        -1.072824	     -61.468276
	 D(2,3,5,8)       =         3.099662	     177.597566
	 D(2,3,5,9)       =        -1.027778	     -58.887320
	 D(2,3,5,10)      =         0.980874	      56.199927
	 D(3,5,8,11)      =         1.148403	      65.798638
	 D(3,5,8,12)      =        -1.001432	     -57.377800
	 D(3,5,8,13)      =        -3.014115	    -172.696093
	 D(4,2,3,5)       =        -1.149516	     -65.862437
	 D(4,2,3,6)       =         3.042123	     174.300834
	 D(4,2,3,7)       =         0.991286	      56.796509
	 D(5,8,11,14)     =        -1.127250	     -64.586687
	 D(5,8,11,15)     =         3.063530	     175.527362
	 D(5,8,11,16)     =         0.975352	      55.883529
	 D(6,3,5,8)       =        -1.120053	     -64.174336
	 D(6,3,5,9)       =         1.035692	      59.340778
	 D(6,3,5,10)      =         3.044343	     174.428025
	 D(7,3,5,8)       =         0.919340	      52.674297
	 D(7,3,5,9)       =         3.075085	     176.189411
	 D(7,3,5,10)      =        -1.199449	     -68.723342
	 D(9,5,8,11)      =        -0.991767	     -56.824065
	*D(9,5,8,12)      =         3.141593	     180.000000
	 D(9,5,8,13)      =         1.128900	      64.681204
	 D(10,5,8,11)     =        -3.017842	    -172.909621
	 D(10,5,8,12)     =         1.115509	      63.913941
	 D(10,5,8,13)     =        -0.897175	     -51.404352
	 D(12,8,11,14)    =         1.023726	      58.655186
	 D(12,8,11,15)    =        -1.068678	     -61.230766
	 D(12,8,11,16)    =         3.126328	     179.125401
	 D(13,8,11,14)    =         3.038289	     174.081161
	 D(13,8,11,15)    =         0.945885	      54.195210
	 D(13,8,11,16)    =        -1.142294	     -65.448623

	Current energy   :      -212.3155215199

	Energy change for the previous step:
		Projected    :        -0.0000002034
		Actual       :        -0.0000001070

	Performing BFGS update.
	Previous computed or guess Hessian on step 1.
	Steps to be used in Hessian update: 5 4
	Taking RFO optimization step.
	Going to follow RFO solution 1.
	Using RFO vector 1.
	Norm of target step-size    0.00193
	Projected energy change by RFO approximation:         0.0000000496

	Back-transformation to cartesian coordinates...
	Successfully converged to displaced geometry.

	Back-transformation to cartesian coordinates to adjust frozen coordinates...
	Successfully converged to displaced geometry.

	--- Internal Coordinate Step in ANG or DEG, aJ/ANG or AJ/DEG ---
	 ---------------------------------------------------------------------------
	   Coordinate                Previous        Force       Change         New 
	   ----------                --------       ------       ------       ------
	    1 R(1,2)          =      1.001704     0.000021     0.000002     1.001707
	    2 R(2,3)          =      1.455818     0.000031     0.000004     1.455822
	    3 R(2,4)          =      1.002361     0.000006     0.000000     1.002361
	    4 R(3,5)          =      1.526459     0.000046     0.000008     1.526467
	    5 R(3,6)          =      1.084325    -0.000002    -0.000000     1.084325
	    6 R(3,7)          =      1.093350    -0.000002     0.000000     1.093350
	    7 R(5,8)          =      1.532256     0.000112     0.000016     1.532273
	    8 R(5,9)          =      1.086428     0.000042     0.000005     1.086433
	    9 R(5,10)         =      1.089016    -0.000034    -0.000004     1.089011
	   10 R(8,11)         =      1.530179    -0.000094    -0.000016     1.530163
	   11 R(8,12)         =      1.088330     0.000070     0.000009     1.088339
	   12 R(8,13)         =      1.086929    -0.000038    -0.000005     1.086924
	   13 R(11,14)        =      1.085199    -0.000054    -0.000006     1.085192
	   14 R(11,15)        =      1.085690     0.000004     0.000001     1.085691
	   15 R(11,16)        =      1.086504     0.000035     0.000005     1.086509
	   16 B(1,2,3)        =    110.803507     0.000000     0.002031   110.805538
	   17 B(1,2,4)        =    106.839369    -0.000000    -0.000093   106.839276
	   18 B(2,3,5)        =    110.216188     0.000001     0.001381   110.217569
	   19 B(2,3,6)        =    107.381385     0.000000     0.000927   107.382312
	   20 B(2,3,7)        =    113.156077    -0.000001    -0.002302   113.153775
	   21 B(3,2,4)        =    110.566867     0.000000     0.001289   110.568156
	   22 B(3,5,8)        =    114.517165     0.000000     0.001049   114.518214
	   23 B(3,5,9)        =    108.506299    -0.000000     0.000226   108.506525
	   24 B(3,5,10)       =    108.397872    -0.000000    -0.002390   108.395483
	   25 B(5,3,6)        =    110.018934    -0.000000    -0.000859   110.018075
	   26 B(5,3,7)        =    109.251067     0.000000     0.000906   109.251973
	   27 B(5,8,11)       =    114.449890    -0.000000    -0.000500   114.449390
	   28 B(5,8,12)       =    109.484876     0.000000     0.003932   109.488808
	   29 B(5,8,13)       =    108.395587     0.000000     0.000066   108.395653
	   30 B(6,3,7)        =    106.723271     0.000000    -0.000123   106.723148
	   31 B(8,5,9)        =    110.162302     0.000000     0.002719   110.165021
	   32 B(8,5,10)       =    108.590706    -0.000000    -0.001198   108.589509
	   33 B(8,11,14)      =    112.030301    -0.000001    -0.003807   112.026494
	   34 B(8,11,15)      =    110.795937     0.000000     0.000025   110.795962
	   35 B(8,11,16)      =    111.014797     0.000001     0.002272   111.017069
	   36 B(9,5,10)       =    106.340372    -0.000000    -0.000614   106.339758
	   37 B(11,8,12)      =    109.363406     0.000000     0.001802   109.365207
	   38 B(11,8,13)      =    108.710665    -0.000001    -0.006147   108.704518
	   39 B(12,8,13)      =    106.098590     0.000000     0.000840   106.099430
	   40 B(14,11,15)     =    107.375173     0.000000     0.000320   107.375492
	   41 B(14,11,16)     =    107.715290     0.000000     0.000477   107.715768
	   42 B(15,11,16)     =    107.716582    -0.000000     0.000826   107.717408
	   43 D(1,2,3,5)      =    175.872779    -0.000000    -0.004229   175.868550
	   44 D(1,2,3,6)      =     56.036050    -0.000000    -0.004540    56.031510
	   45 D(1,2,3,7)      =    -61.468276     0.000000    -0.003662   -61.471938
	   46 D(2,3,5,8)      =    177.597566    -0.000000     0.024566   177.622132
	   47 D(2,3,5,9)      =    -58.887320     0.000000     0.029027   -58.858293
	   48 D(2,3,5,10)     =     56.199927    -0.000000     0.027168    56.227095
	   49 D(3,5,8,11)     =     65.798638     0.000000     0.008226    65.806864
	   50 D(3,5,8,12)     =    -57.377800     0.000000     0.003174   -57.374626
	   51 D(3,5,8,13)     =   -172.696093    -0.000000     0.000035  -172.696058
	   52 D(4,2,3,5)      =    -65.862437    -0.000000    -0.002248   -65.864686
	   53 D(4,2,3,6)      =    174.300834    -0.000000    -0.002560   174.298275
	   54 D(4,2,3,7)      =     56.796509     0.000000    -0.001682    56.794827
	   55 D(5,8,11,14)    =    -64.586687    -0.000000    -0.027261   -64.613948
	   56 D(5,8,11,15)    =    175.527362    -0.000000    -0.025132   175.502230
	   57 D(5,8,11,16)    =     55.883529    -0.000000    -0.027675    55.855854
	   58 D(6,3,5,8)      =    -64.174336    -0.000000     0.026023   -64.148314
	   59 D(6,3,5,9)      =     59.340778     0.000000     0.030483    59.371262
	   60 D(6,3,5,10)     =    174.428025     0.000000     0.028624   174.456650
	   61 D(7,3,5,8)      =     52.674297    -0.000000     0.025910    52.700206
	   62 D(7,3,5,9)      =    176.189411     0.000000     0.030370   176.219781
	   63 D(7,3,5,10)     =    -68.723342     0.000000     0.028511   -68.694831
	   64 D(9,5,8,11)     =    -56.824065     0.000000     0.005052   -56.819013
	   65 *D(9,5,8,12)    =    180.000000     0.000000     0.000000   180.000000
	   66 D(9,5,8,13)     =     64.681204    -0.000000    -0.003139    64.678065
	   67 D(10,5,8,11)    =   -172.909621     0.000000     0.004969  -172.904652
	   68 D(10,5,8,12)    =     63.913941    -0.000000    -0.000084    63.913857
	   69 D(10,5,8,13)    =    -51.404352    -0.000000    -0.003223   -51.407575
	   70 D(12,8,11,14)   =     58.655186     0.000000    -0.021065    58.634121
	   71 D(12,8,11,15)   =    -61.230766     0.000000    -0.018935   -61.249701
	   72 D(12,8,11,16)   =    179.125401     0.000000    -0.021478   179.103923
	   73 D(13,8,11,14)   =    174.081161    -0.000000    -0.022470   174.058691
	   74 D(13,8,11,15)   =     54.195210     0.000000    -0.020341    54.174869
	   75 D(13,8,11,16)   =    -65.448623    -0.000000    -0.022884   -65.471507
	 ---------------------------------------------------------------------------

  ==> Convergence Check <==

  Measures of convergence in internal coordinates in au.
  Criteria marked as inactive (o), active & met (*), and active & unmet ( ).
  ---------------------------------------------------------------------------------------------
   Step     Total Energy     Delta E     MAX Force     RMS Force      MAX Disp      RMS Disp   
  ---------------------------------------------------------------------------------------------
    Convergence Criteria    1.00e-06 *    3.00e-04 *             o    1.20e-03 *             o
  ---------------------------------------------------------------------------------------------
      6    -212.31552152   -1.07e-07 *    1.36e-05 *    4.52e-06 o    5.32e-04 *    2.23e-04 o  ~
  ---------------------------------------------------------------------------------------------


  **** Optimization is complete! (in 6 steps) ****

  ==> Optimization Summary <==

  Measures of convergence in internal coordinates in au.
  --------------------------------------------------------------------------------------------------------------- ~
   Step         Total Energy             Delta E       MAX Force       RMS Force        MAX Disp        RMS Disp  ~
  --------------------------------------------------------------------------------------------------------------- ~
      1    -212.314852915772   -212.314852915772      0.00875954      0.00194050      0.12456145      0.04894277  ~
      2    -212.315181065724     -0.000328149952      0.00430292      0.00112763      0.04792958      0.01291682  ~
      3    -212.315503775695     -0.000322709971      0.00084987      0.00019946      0.02540787      0.00961304  ~
      4    -212.315520162745     -0.000016387050      0.00035337      0.00008266      0.00709633      0.00226374  ~
      5    -212.315521412928     -0.000001250183      0.00008977      0.00002196      0.00199569      0.00067723  ~
      6    -212.315521519898     -0.000000106970      0.00001357      0.00000452      0.00053203      0.00022257  ~
  --------------------------------------------------------------------------------------------------------------- ~

	Writing optimization data to binary file.
	Final energy is   -212.3155215198979
	Final (previous) structure:
	Cartesian Geometry (in Angstrom)
	    H     3.0684448567  -0.2600651963   0.1728963420
	    N     2.2099430420  -0.7755886240   0.1978250317
	    C     1.0670248187   0.1251227723   0.2409893358
	    H     2.2386105325  -1.3477751086   1.0203263397
	    C    -0.2341824712  -0.6702719975   0.1755340037
	    H     1.1421677901   0.7850979404  -0.6160684651
	    H     1.0554488177   0.7627962321   1.1290499783
	    C    -1.5049366636   0.1803585879   0.2725917021
	    H    -0.2394621243  -1.2476975025  -0.7447253400
	    H    -0.2368364416  -1.3926144075   0.9905001184
	    C    -1.7240195260   1.1286389931  -0.9081766702
	    H    -1.4882613672   0.7536495023   1.1975360430
	    H    -2.3595989874  -0.4870441700   0.3470282679
	    H    -0.9503414954   1.8870852665  -0.9701246127
	    H    -2.6758429426   1.6430500511  -0.8179767658
	    H    -1.7299343130   0.5848058868  -1.8487629064
	Saving final (previous) structure.
			--------------------------
			 OPTKING Finished Execution 
			--------------------------

    Final optimized geometry and variables:
    Molecular point group: c1
    Full point group: C1

    Geometry (in Angstrom), charge = 0, multiplicity = 1:

    H            3.068444622410    -0.260065176461     0.172896328781
    N            2.209942873219    -0.775588564769     0.197825016618
    C            1.067024737222     0.125122762699     0.240989317424
    H            2.238610361515    -1.347775005674     1.020326261784
    C           -0.234182453316    -0.670271946349     0.175533990333
    H            1.142167702878     0.785097880443    -0.616068418075
    H            1.055448737131     0.762796173860     1.129049892074
    C           -1.504936548677     0.180358574086     0.272591681271
    H           -0.239462105967    -1.247697407227    -0.744725283094
    H           -0.236836423478    -1.392614301184     0.990500042721
    C           -1.724019394303     1.128638906937    -0.908176600817
    H           -1.488261253565     0.753649444779     1.197535951601
    H           -2.359598807198    -0.487044132815     0.347028241361
    H           -0.950341422841     1.887085122356    -0.970124538570
    H           -2.675842738284     1.643049925640    -0.817976703365
    H           -1.729934180873     0.584805842144    -1.848762765211

	Cleaning optimization helper files.


Properties will be evaluated at   0.000000,   0.000000,   0.000000 Bohr

Properties computed using the  density matrix

  Nuclear Dipole Moment: (a.u.)
     X:    -2.0460      Y:     1.5784      Z:    -0.1321

  Electronic Dipole Moment: (a.u.)
     X:     2.1064      Y:    -1.2813      Z:     0.5987

  Dipole Moment: (a.u.)
     X:     0.0604      Y:     0.2971      Z:     0.4666     Total:     0.5564

  Dipole Moment: (Debye)
     X:     0.1535      Y:     0.7551      Z:     1.1859     Total:     1.4142

  Quadrupole Moment: (Debye Ang)
    XX:   -32.2133     YY:   -35.3872     ZZ:   -33.7590
    XY:     2.1323     XZ:     2.8837     YZ:    -1.8692

  Traceless Quadrupole Moment: (Debye Ang)
    XX:     1.5732     YY:    -1.6007     ZZ:     0.0275
    XY:     2.1323     XZ:     2.8837     YZ:    -1.8692

  Mulliken Charges: (a.u.)
   Center  Symbol    Alpha    Beta     Spin     Total
       1     H     0.33242  0.33242  0.00000  0.33515
       2     N     3.92191  3.92191  0.00000 -0.84383
       3     C     3.06196  3.06196  0.00000 -0.12391
       4     H     0.33535  0.33535  0.00000  0.32929
       5     C     3.15129  3.15129  0.00000 -0.30258
       6     H     0.41894  0.41894  0.00000  0.16211
       7     H     0.43527  0.43527  0.00000  0.12947
       8     C     3.15673  3.15673  0.00000 -0.31345
       9     H     0.41404  0.41404  0.00000  0.17192
      10     H     0.42625  0.42625  0.00000  0.14751
      11     C     3.24124  3.24124  0.00000 -0.48249
      12     H     0.42399  0.42399  0.00000  0.15202
      13     H     0.41977  0.41977  0.00000  0.16047
      14     H     0.42117  0.42117  0.00000  0.15767
      15     H     0.41932  0.41932  0.00000  0.16137
      16     H     0.42035  0.42035  0.00000  0.15930

   Total alpha = 21.00000, Total beta = 21.00000, Total charge =  0.00000


*** PSI4 exiting successfully. Buy a developer a beer!
