    -----------------------------------------------------------------------
          Psi4: An Open-Source Ab Initio Electronic Structure Package
                              Psi4 1.0.54 Driver

                          Git: Rev {master} 8d4cec3 dirty

    J. M. Turney, A. C. Simmonett, R. M. Parrish, E. G. Hohenstein,
    F. A. Evangelista, J. T. Fermann, B. J. Mintz, L. A. Burns, J. J. Wilke,
    M. L. Abrams, N. J. Russ, M. L. Leininger, C. L. Janssen, E. T. Seidl,
    W. D. Allen, H. F. Schaefer, R. A. King, E. F. Valeev, C. D. Sherrill,
    and T. D. Crawford, WIREs Comput. Mol. Sci. 2, 556-565 (2012)
    (doi: 10.1002/wcms.93)

                         Additional Contributions by
    A. E. DePrince, U. Bozkaya, A. Yu. Sokolov, D. G. A. Smith, R. Di Remigio,
    R. M. Richard, J. F. Gonthier, H. R. McAlexander, M. Saitow, and
    B. P. Pritchard
    -----------------------------------------------------------------------


    Psi4 started on: Sat Sep 10 15:23:40 2016

    Process ID:    616
    PSI4DATADIR: /export131/home/mjharvey/miniconda3/share/psi4
    Memory level set to 256.000 MB

  ==> Input File <==

--------------------------------------------------------------------------
set {
	reference rhf
	basis cc-pvtz
}


set_num_threads( 4 )
memory 2 gb

molecule MOL {
0 1

H	 -2.698799	 -0.000846	 0.036018
C	 -1.694291	 -0.000483	 0.434279
O	 -0.828718	 -0.000608	 -0.655022
H	 -1.576855	 0.881100	 1.056504
H	 -1.576401	 -0.881658	 1.057001
C	 0.557892	 0.000078	 -0.420099
C	 0.907120	 0.343919	 1.023537
C	 1.231880	 -1.284677	 -0.888494
H	 0.914719	 0.807530	 -1.047248
H	 0.382917	 1.238962	 1.335253
H	 1.972092	 0.525528	 1.110705
H	 0.655768	 -0.457745	 1.708183
H	 0.932968	 -1.519022	 -1.902781
H	 2.308676	 -1.162331	 -0.870734
H	 0.989056	 -2.129557	 -0.254651

	symmetry c1
}
set optking {
	frozen_dihedral = ("
		9 6 3 2
	")
}

ee,wfn = optimize('scf', return_wfn=True)
oeprop( wfn, 'DIPOLE', 'QUADRUPOLE', 'MULLIKEN_CHARGES')
f=open( 'psi4out.xyz', 'w' )
f.write( "15  " )
f.write( str(ee) + "\n" )
f.write( MOL.save_string_xyz() )
f.close()
--------------------------------------------------------------------------

  Memory set to   2.000 GiB by Python script.
gradient() will perform analytic gradient computation.

*** tstart() called on cx1-27-3-3
*** at Sat Sep 10 15:23:41 2016


         ---------------------------------------------------------
                                   SCF
            by Justin Turney, Rob Parrish, and Andy Simmonett
                              RHF Reference
                        4 Threads,   2000 MiB Core
         ---------------------------------------------------------

  ==> Geometry <==

    Molecular point group: c1
    Full point group: C1

    Geometry (in Angstrom), charge = 0, multiplicity = 1:

       Center              X                  Y                   Z               Mass       
    ------------   -----------------  -----------------  -----------------  -----------------
           H         -2.713623657815     0.188464557489     0.122967961453     1.007825032070
           C         -1.709115657815     0.188827557489     0.521228961453    12.000000000000
           O         -0.843542657815     0.188702557489    -0.568072038547    15.994914619560
           H         -1.591679657815     1.070410557489     1.143453961453     1.007825032070
           H         -1.591225657815    -0.692347442511     1.143950961453     1.007825032070
           C          0.543067342185     0.189388557489    -0.333149038547    12.000000000000
           C          0.892295342185     0.533229557489     1.110486961453    12.000000000000
           C          1.217055342185    -1.095366442511    -0.801544038547    12.000000000000
           H          0.899894342185     0.996840557489    -0.960298038547     1.007825032070
           H          0.368092342185     1.428272557489     1.422202961453     1.007825032070
           H          1.957267342185     0.714838557489     1.197654961453     1.007825032070
           H          0.640943342185    -0.268434442511     1.795132961453     1.007825032070
           H          0.918143342185    -1.329711442511    -1.815831038547     1.007825032070
           H          2.293851342185    -0.973020442511    -0.783784038547     1.007825032070
           H          0.974231342185    -1.940246442511    -0.167701038547     1.007825032070

  Running in c1 symmetry.

  Rotational constants: A =      0.24368  B =      0.13488  C =      0.10190 [cm^-1]
  Rotational constants: A =   7305.31558  B =   4043.51068  C =   3054.95294 [MHz]
  Nuclear repulsion =  198.938092416657668

  Charge       = 0
  Multiplicity = 1
  Electrons    = 42
  Nalpha       = 21
  Nbeta        = 21

  ==> Algorithm <==

  SCF Algorithm Type is DF.
  DIIS enabled.
  MOM disabled.
  Fractional occupation disabled.
  Guess Type is SAD.
  Energy threshold   = 1.00e-08
  Density threshold  = 1.00e-08
  Integral threshold = 0.00e+00

  ==> Primary Basis <==

  Basis Set: CC-PVTZ
    Number of shells: 110
    Number of basis function: 290
    Number of Cartesian functions: 325
    Spherical Harmonics?: true
    Max angular momentum: 3

  ==> Pre-Iterations <==

   -------------------------------------------------------
    Irrep   Nso     Nmo     Nalpha   Nbeta   Ndocc  Nsocc
   -------------------------------------------------------
     A        290     290       0       0       0       0
   -------------------------------------------------------
    Total     290     290      21      21      21       0
   -------------------------------------------------------

  ==> Integral Setup <==

  ==> DFJK: Density-Fitted J/K Matrices <==

    J tasked:                  Yes
    K tasked:                  Yes
    wK tasked:                  No
    OpenMP threads:              4
    Integrals threads:           4
    Memory (MB):              1430
    Algorithm:                Core
    Integral Cache:           NONE
    Schwarz Cutoff:          1E-12
    Fitting Condition:       1E-12

   => Auxiliary Basis Set <=

  Basis Set: 
    Number of shells: 225
    Number of basis function: 695
    Number of Cartesian functions: 830
    Spherical Harmonics?: true
    Max angular momentum: 4

  Minimum eigenvalue in the overlap matrix is 6.5409016276E-04.
  Using Symmetric Orthogonalization.
  SCF Guess: Superposition of Atomic Densities via on-the-fly atomic UHF.

  ==> Iterations <==

                           Total Energy        Delta E     RMS |[F,P]|

   @DF-RHF iter   0:  -234.11960863531667   -2.34120e+02   1.48550e-02 
   @DF-RHF iter   1:  -232.08009068319794    2.03952e+00   1.52308e-03 
   @DF-RHF iter   2:  -232.20218112832575   -1.22090e-01   5.34865e-04 DIIS
   @DF-RHF iter   3:  -232.21594958700362   -1.37685e-02   2.36552e-04 DIIS
   @DF-RHF iter   4:  -232.21881573811893   -2.86615e-03   5.99558e-05 DIIS
   @DF-RHF iter   5:  -232.21904611316236   -2.30375e-04   1.82067e-05 DIIS
   @DF-RHF iter   6:  -232.21907189283357   -2.57797e-05   5.69676e-06 DIIS
   @DF-RHF iter   7:  -232.21907454628118   -2.65345e-06   1.49145e-06 DIIS
   @DF-RHF iter   8:  -232.21907474139280   -1.95112e-07   4.70642e-07 DIIS
   @DF-RHF iter   9:  -232.21907475945645   -1.80636e-08   1.15537e-07 DIIS
   @DF-RHF iter  10:  -232.21907476072502   -1.26857e-09   2.17131e-08 DIIS
   @DF-RHF iter  11:  -232.21907476077141   -4.63842e-11   5.14640e-09 DIIS

  ==> Post-Iterations <==

    Orbital Energies (a.u.)
    -----------------------

    Doubly Occupied:                                                      

       1A    -20.540115     2A    -11.271946     3A    -11.258576  
       4A    -11.212043     5A    -11.206064     6A     -1.373088  
       7A     -1.051139     8A     -0.950693     9A     -0.921412  
      10A     -0.780954    11A     -0.676419    12A     -0.650576  
      13A     -0.632491    14A     -0.580626    15A     -0.551406  
      16A     -0.546184    17A     -0.532416    18A     -0.511479  
      19A     -0.495931    20A     -0.448019    21A     -0.400821  

    Virtual:                                                              

      22A      0.137739    23A      0.165671    24A      0.180816  
      25A      0.189067    26A      0.204863    27A      0.213054  
      28A      0.230533    29A      0.246882    30A      0.262785  
      31A      0.268767    32A      0.286592    33A      0.312573  
      34A      0.339781    35A      0.356775    36A      0.378380  
      37A      0.402180    38A      0.419155    39A      0.442187  
      40A      0.476740    41A      0.487232    42A      0.516991  
      43A      0.558731    44A      0.579653    45A      0.582512  
      46A      0.585588    47A      0.613226    48A      0.625059  
      49A      0.640318    50A      0.643907    51A      0.650879  
      52A      0.659403    53A      0.662036    54A      0.666699  
      55A      0.679194    56A      0.693704    57A      0.708455  
      58A      0.722086    59A      0.784039    60A      0.806447  
      61A      0.818743    62A      0.846576    63A      0.857288  
      64A      0.916403    65A      0.942098    66A      0.958066  
      67A      0.982691    68A      0.998745    69A      1.023043  
      70A      1.052358    71A      1.082365    72A      1.093921  
      73A      1.114642    74A      1.129132    75A      1.163218  
      76A      1.189353    77A      1.208660    78A      1.218783  
      79A      1.222680    80A      1.232215    81A      1.267973  
      82A      1.271420    83A      1.288584    84A      1.314791  
      85A      1.325068    86A      1.349674    87A      1.360782  
      88A      1.373604    89A      1.401628    90A      1.407668  
      91A      1.432241    92A      1.459761    93A      1.462952  
      94A      1.483304    95A      1.503283    96A      1.514368  
      97A      1.536748    98A      1.548683    99A      1.558972  
     100A      1.579986   101A      1.586575   102A      1.610324  
     103A      1.622029   104A      1.636902   105A      1.656239  
     106A      1.685832   107A      1.735853   108A      1.774073  
     109A      1.798994   110A      1.811853   111A      1.833813  
     112A      1.840590   113A      1.852425   114A      1.895612  
     115A      2.009618   116A      2.209992   117A      2.249912  
     118A      2.338448   119A      2.433853   120A      2.468177  
     121A      2.476494   122A      2.559380   123A      2.604746  
     124A      2.618098   125A      2.649323   126A      2.686941  
     127A      2.712490   128A      2.763655   129A      2.816737  
     130A      2.833319   131A      2.847345   132A      2.851236  
     133A      2.864671   134A      2.933562   135A      2.957509  
     136A      2.965358   137A      2.982835   138A      2.995344  
     139A      3.057272   140A      3.073967   141A      3.097370  
     142A      3.120755   143A      3.125287   144A      3.138348  
     145A      3.148715   146A      3.149788   147A      3.191550  
     148A      3.218777   149A      3.255763   150A      3.261905  
     151A      3.267030   152A      3.285652   153A      3.312025  
     154A      3.334796   155A      3.349441   156A      3.361368  
     157A      3.383241   158A      3.408545   159A      3.418046  
     160A      3.425208   161A      3.433899   162A      3.448712  
     163A      3.468235   164A      3.499859   165A      3.520207  
     166A      3.524245   167A      3.546212   168A      3.567595  
     169A      3.599430   170A      3.603996   171A      3.651064  
     172A      3.671423   173A      3.693930   174A      3.697670  
     175A      3.723349   176A      3.728829   177A      3.750917  
     178A      3.771062   179A      3.782907   180A      3.793779  
     181A      3.813181   182A      3.826727   183A      3.842861  
     184A      3.866032   185A      3.886021   186A      3.907884  
     187A      3.931628   188A      3.944818   189A      3.968718  
     190A      4.020818   191A      4.046384   192A      4.075924  
     193A      4.091160   194A      4.120021   195A      4.133413  
     196A      4.138887   197A      4.144349   198A      4.161072  
     199A      4.199231   200A      4.214693   201A      4.235863  
     202A      4.253897   203A      4.270511   204A      4.283617  
     205A      4.311796   206A      4.336308   207A      4.343338  
     208A      4.368449   209A      4.386247   210A      4.405752  
     211A      4.417297   212A      4.444452   213A      4.473240  
     214A      4.481507   215A      4.492424   216A      4.499727  
     217A      4.519122   218A      4.548013   219A      4.559567  
     220A      4.569969   221A      4.617644   222A      4.642950  
     223A      4.657718   224A      4.701915   225A      4.739309  
     226A      4.760946   227A      4.773588   228A      4.786594  
     229A      4.840701   230A      4.845378   231A      4.928848  
     232A      4.953877   233A      5.000778   234A      5.061058  
     235A      5.096194   236A      5.146880   237A      5.160402  
     238A      5.192336   239A      5.198437   240A      5.210519  
     241A      5.241716   242A      5.278618   243A      5.284116  
     244A      5.342827   245A      5.351696   246A      5.418753  
     247A      5.434684   248A      5.452546   249A      5.494535  
     250A      5.519996   251A      5.549791   252A      5.555042  
     253A      5.572626   254A      5.613951   255A      5.640811  
     256A      5.648961   257A      5.708380   258A      5.724685  
     259A      5.728721   260A      5.759541   261A      5.767779  
     262A      5.814756   263A      5.826616   264A      5.854898  
     265A      5.889296   266A      5.955000   267A      6.022683  
     268A      6.066598   269A      6.131224   270A      6.253554  
     271A      6.289293   272A      6.307799   273A      6.341061  
     274A      6.347989   275A      6.382291   276A      6.486531  
     277A      6.664933   278A      6.803131   279A      6.827273  
     280A      7.038343   281A      7.313230   282A      7.338675  
     283A      7.638913   284A      7.839514   285A      8.003836  
     286A     11.556324   287A     12.541325   288A     14.250726  
     289A     14.404415   290A     14.514740  

    Final Occupation by Irrep:
              A 
    DOCC [    21 ]

  Energy converged.

  @DF-RHF Final Energy:  -232.21907476077141

   => Energetics <=

    Nuclear Repulsion Energy =            198.9380924166576676
    One-Electron Energy =                -709.1295337840505226
    Two-Electron Energy =                 277.9723666066212218
    DFT Exchange-Correlation Energy =       0.0000000000000000
    Empirical Dispersion Energy =           0.0000000000000000
    PCM Polarization Energy =               0.0000000000000000
    EFP Energy =                            0.0000000000000000
    Total Energy =                       -232.2190747607716048


  Saving occupied orbitals to File 180.

*** tstop() called on cx1-27-3-3 at Sat Sep 10 15:23:47 2016
Module time:
	user time   =      19.57 seconds =       0.33 minutes
	system time =       0.59 seconds =       0.01 minutes
	total time  =          6 seconds =       0.10 minutes
Total time:
	user time   =      19.57 seconds =       0.33 minutes
	system time =       0.59 seconds =       0.01 minutes
	total time  =          6 seconds =       0.10 minutes


Properties will be evaluated at   0.000000,   0.000000,   0.000000 Bohr

Properties computed using the SCF density matrix

  Nuclear Dipole Moment: (a.u.)
     X:     2.0170      Y:    -0.7537      Z:     2.9013

  Electronic Dipole Moment: (a.u.)
     X:    -1.7949      Y:     0.7743      Z:    -2.3974

  Dipole Moment: (a.u.)
     X:     0.2221      Y:     0.0206      Z:     0.5039     Total:     0.5511

  Dipole Moment: (Debye)
     X:     0.5646      Y:     0.0524      Z:     1.2809     Total:     1.4008


*** tstart() called on cx1-27-3-3
*** at Sat Sep 10 15:23:47 2016


         ------------------------------------------------------------
                                   SCF GRAD                          
                          Rob Parrish, Justin Turney,                
                       Andy Simmonett, and Alex Sokolov              
         ------------------------------------------------------------

  ==> Geometry <==

    Molecular point group: c1
    Full point group: C1

    Geometry (in Angstrom), charge = 0, multiplicity = 1:

       Center              X                  Y                   Z               Mass       
    ------------   -----------------  -----------------  -----------------  -----------------
           H         -2.713623657815     0.188464557489     0.122967961453     1.007825032070
           C         -1.709115657815     0.188827557489     0.521228961453    12.000000000000
           O         -0.843542657815     0.188702557489    -0.568072038547    15.994914619560
           H         -1.591679657815     1.070410557489     1.143453961453     1.007825032070
           H         -1.591225657815    -0.692347442511     1.143950961453     1.007825032070
           C          0.543067342185     0.189388557489    -0.333149038547    12.000000000000
           C          0.892295342185     0.533229557489     1.110486961453    12.000000000000
           C          1.217055342185    -1.095366442511    -0.801544038547    12.000000000000
           H          0.899894342185     0.996840557489    -0.960298038547     1.007825032070
           H          0.368092342185     1.428272557489     1.422202961453     1.007825032070
           H          1.957267342185     0.714838557489     1.197654961453     1.007825032070
           H          0.640943342185    -0.268434442511     1.795132961453     1.007825032070
           H          0.918143342185    -1.329711442511    -1.815831038547     1.007825032070
           H          2.293851342185    -0.973020442511    -0.783784038547     1.007825032070
           H          0.974231342185    -1.940246442511    -0.167701038547     1.007825032070

  Nuclear repulsion =  198.938092416657668

  ==> Basis Set <==

  Basis Set: CC-PVTZ
    Number of shells: 110
    Number of basis function: 290
    Number of Cartesian functions: 325
    Spherical Harmonics?: true
    Max angular momentum: 3

  ==> DFJKGrad: Density-Fitted SCF Gradients <==

    Gradient:                    1
    J tasked:                  Yes
    K tasked:                  Yes
    wK tasked:                  No
    OpenMP threads:              4
    Integrals threads:           4
    Memory (MB):              1430
    Schwarz Cutoff:          0E+00
    Fitting Condition:       1E-12

   => Auxiliary Basis Set <=

  Basis Set: 
    Number of shells: 225
    Number of basis function: 695
    Number of Cartesian functions: 830
    Spherical Harmonics?: true
    Max angular momentum: 4


  -Total Gradient:
     Atom            X                  Y                   Z
    ------   -----------------  -----------------  -----------------
       1        0.000032311340     0.000379356246     0.000500860355
       2        0.005665242790     0.001983133144     0.002384109896
       3        0.004011781865     0.006420107647    -0.001508497372
       4        0.003032316737     0.001998698915     0.001593822854
       5        0.000689825913     0.000221763586    -0.000195454921
       6       -0.003815291066    -0.008486905800    -0.002427604818
       7       -0.005876839805    -0.001592758473     0.000065268413
       8        0.004580500292    -0.000257776802     0.000157839436
       9       -0.005378463239    -0.000341333055     0.000237582860
      10       -0.005465021471     0.000597388822    -0.001008003353
      11        0.000382282385     0.000016736355     0.000739782184
      12        0.000023665662    -0.000442406527     0.000332335953
      13        0.000247306576    -0.000057943781    -0.000441680310
      14       -0.000371824564    -0.000727133973     0.000108569142
      15        0.002242206586     0.000289073697    -0.000538930320


*** tstop() called on cx1-27-3-3 at Sat Sep 10 15:23:52 2016
Module time:
	user time   =      18.85 seconds =       0.31 minutes
	system time =       0.42 seconds =       0.01 minutes
	total time  =          5 seconds =       0.08 minutes
Total time:
	user time   =      38.49 seconds =       0.64 minutes
	system time =       1.01 seconds =       0.02 minutes
	total time  =         11 seconds =       0.18 minutes

			-----------------------------------------
			 OPTKING 2.0: for geometry optimizations 
			  - R.A. King,  Bethel University        
			-----------------------------------------

	Internal coordinates to be generated automatically.
	Detected frag 1 with atoms:  1 2 3 4 5 6 7 8 9 10 11 12 13 14 15
	---Fragment 1 Bond Connectivity---
	 1 : 2
	 2 : 1 3 4 5
	 3 : 2 6
	 4 : 2
	 5 : 2
	 6 : 3 7 8 9
	 7 : 6 10 11 12
	 8 : 6 13 14 15
	 9 : 6
	 10 : 7
	 11 : 7
	 12 : 7
	 13 : 8
	 14 : 8
	 15 : 8

	Assuming in current code that numbering for constraints corresponds to unified fragment.
	Frozen dihedral atom list: 
	     9     6     3     2
	---Fragment 1 Geometry and Gradient---
	 H          -5.1280055410        0.3561463994        0.2323757703
	 C          -3.2297605227        0.3568323700        0.9849799897
	 O          -1.5940646047        0.3565961542       -1.0735005766
	 H          -3.0078386446        2.0227828034        2.1608148327
	 H          -3.0069807089       -1.3083470552        2.1617540266
	 C           1.0262485484        0.3578925064       -0.6295604443
	 C           1.6861938264        1.0076578296        2.0985162313
	 C           2.2999012853       -2.0699425915       -1.5146987163
	 H           1.7005538553        1.8837556518       -1.8147002988
	 H           0.6955937183        2.6990439768        2.6875741025
	 H           3.6986992456        1.3508491029        2.2632398788
	 H           1.2112073834       -0.5072675810        3.3923096693
	 H           1.7350394675       -2.5127904621       -3.4314233664
	 H           4.3347508263       -1.8387421580       -1.4811371802
	 H           1.8410304268       -3.6665344067       -0.3169090351
	             0.0000323113        0.0003793562        0.0005008604
	             0.0056652428        0.0019831331        0.0023841099
	             0.0040117819        0.0064201076       -0.0015084974
	             0.0030323167        0.0019986989        0.0015938229
	             0.0006898259        0.0002217636       -0.0001954549
	            -0.0038152911       -0.0084869058       -0.0024276048
	            -0.0058768398       -0.0015927585        0.0000652684
	             0.0045805003       -0.0002577768        0.0001578394
	            -0.0053784632       -0.0003413331        0.0002375829
	            -0.0054650215        0.0005973888       -0.0010080034
	             0.0003822824        0.0000167364        0.0007397822
	             0.0000236657       -0.0004424065        0.0003323360
	             0.0002473066       -0.0000579438       -0.0004416803
	            -0.0003718246       -0.0007271340        0.0001085691
	             0.0022422066        0.0002890737       -0.0005389303

	Previous optimization step data not found.  Starting new optimization.

	---Fragment 1 Intrafragment Coordinates---
	 - Coordinate -           - BOHR/RAD -       - ANG/DEG -
	 R(1,2)           =         2.041996	       1.080578
	 R(2,3)           =         2.629229	       1.391328
	 R(2,4)           =         2.051153	       1.085423
	 R(2,5)           =         2.051158	       1.085426
	 R(3,6)           =         2.657654	       1.406370
	 R(6,7)           =         2.880994	       1.524556
	 R(6,8)           =         2.880980	       1.524549
	 R(6,9)           =         2.046339	       1.082876
	 R(7,10)          =         2.046721	       1.083078
	 R(7,11)          =         2.048192	       1.083857
	 R(7,12)          =         2.048051	       1.083782
	 R(8,13)          =         2.046709	       1.083072
	 R(8,14)          =         2.048217	       1.083870
	 R(8,15)          =         2.048016	       1.083763
	 B(1,2,3)         =         1.864781	     106.844093
	 B(1,2,4)         =         1.888231	     108.187692
	 B(1,2,5)         =         1.888243	     108.188367
	 B(2,3,6)         =         2.074415	     118.855226
	 B(3,2,4)         =         1.962299	     112.431451
	 B(3,2,5)         =         1.962246	     112.428434
	 B(3,6,7)         =         1.965068	     112.590112
	 B(3,6,8)         =         1.965079	     112.590755
	 B(3,6,9)         =         1.801342	     103.209314
	 B(4,2,5)         =         1.895186	     108.586159
	 B(6,7,10)        =         1.926277	     110.367567
	 B(6,7,11)        =         1.916674	     109.817351
	 B(6,7,12)        =         1.958687	     112.224508
	 B(6,8,13)        =         1.926287	     110.368134
	 B(6,8,14)        =         1.916699	     109.818779
	 B(6,8,15)        =         1.958669	     112.223487
	 B(7,6,8)         =         1.960290	     112.316331
	 B(7,6,9)         =         1.880480	     107.743578
	 B(8,6,9)         =         1.880483	     107.743726
	 B(10,7,11)       =         1.890143	     108.297217
	 B(10,7,12)       =         1.893584	     108.494368
	 B(11,7,12)       =         1.876554	     107.518650
	 B(13,8,14)       =         1.890150	     108.297622
	 B(13,8,15)       =         1.893567	     108.493426
	 B(14,8,15)       =         1.876547	     107.518210
	 D(1,2,3,6)       =         3.141364	     179.986923
	 D(2,3,6,7)       =        -0.246193	     -14.105840
	 D(2,3,6,8)       =         1.991514	     114.105366
	*D(2,3,6,9)       =        -2.268928	    -130.000001
	 D(3,6,7,10)      =        -0.863515	     -49.475739
	 D(3,6,7,11)      =        -2.946114	    -168.799925
	 D(3,6,7,12)      =         1.250872	      71.669682
	 D(3,6,8,13)      =         0.863600	      49.480630
	 D(3,6,8,14)      =         2.946230	     168.806566
	 D(3,6,8,15)      =        -1.250760	     -71.663292
	 D(4,2,3,6)       =         1.072419	      61.445101
	 D(5,2,3,6)       =        -1.072891	     -61.472148
	 D(7,6,8,13)      =         3.103810	     177.835186
	 D(7,6,8,14)      =        -1.096745	     -62.838878
	 D(7,6,8,15)      =         0.989449	      56.691264
	 D(8,6,7,10)      =        -3.103730	    -177.830633
	 D(8,6,7,11)      =         1.096855	      62.845181
	 D(8,6,7,12)      =        -0.989344	     -56.685212
	 D(9,6,7,10)      =         1.111162	      63.664884
	 D(9,6,7,11)      =        -0.971438	     -55.659302
	 D(9,6,7,12)      =        -3.057637	    -175.189695
	 D(9,6,8,13)      =        -1.111084	     -63.660418
	 D(9,6,8,14)      =         0.971547	      55.665518
	 D(9,6,8,15)      =         3.057741	     175.195660

	Current energy   :      -232.2190747608

	Generating empirical Hessian (Schlegel '84) for each fragment.
	Taking RFO optimization step.
	Going to follow RFO solution 1.
	Using RFO vector 1.
	Norm of target step-size    0.32568
	Projected energy change by RFO approximation:        -0.0114834158

	Back-transformation to cartesian coordinates...
	Successfully converged to displaced geometry.

	Back-transformation to cartesian coordinates to adjust frozen coordinates...
	Successfully converged to displaced geometry.

	--- Internal Coordinate Step in ANG or DEG, aJ/ANG or AJ/DEG ---
	 ---------------------------------------------------------------------------
	   Coordinate                Previous        Force       Change         New 
	   ----------                --------       ------       ------       ------
	    1 R(1,2)          =      1.080578     0.001769     0.418922     1.499499
	    2 R(2,3)          =      1.391328     0.020648     0.279994     1.671321
	    3 R(2,4)          =      1.085423    -0.023605     0.079053     1.164476
	    4 R(2,5)          =      1.085426     0.001790     0.432774     1.518200
	    5 R(3,6)          =      1.406370     0.112966     0.573102     1.979472
	    6 R(6,7)          =      1.524556     0.022270     0.310303     1.834859
	    7 R(6,8)          =      1.524549    -0.031438     0.176773     1.701322
	    8 R(6,9)          =      1.082876     0.017832     0.433416     1.516292
	    9 R(7,10)         =      1.083078    -0.023469     0.121425     1.204503
	   10 R(7,11)         =      1.083857    -0.003608     0.406601     1.490458
	   11 R(7,12)         =      1.083782    -0.004381     0.422054     1.505836
	   12 R(8,13)         =      1.083072    -0.002949     0.218372     1.301443
	   13 R(8,14)         =      1.083870     0.003705     0.406799     1.490669
	   14 R(8,15)         =      1.083763     0.008592     0.431692     1.515455
	   15 B(1,2,3)        =    106.844093    -0.000155     6.383824   113.227916
	   16 B(1,2,4)        =    108.187692    -0.000110     0.124507   108.312200
	   17 B(1,2,5)        =    108.188367    -0.000053    -0.130658   108.057709
	   18 B(2,3,6)        =    118.855226     0.002389     9.130529   127.985755
	   19 B(3,2,4)        =    112.431451     0.000240   -16.609247    95.822204
	   20 B(3,2,5)        =    112.428434     0.000059     3.683161   116.111595
	   21 B(3,6,7)        =    112.590112     0.001480    15.310366   127.900478
	   22 B(3,6,8)        =    112.590755    -0.001255    -3.934604   108.656151
	   23 B(3,6,9)        =    103.209314     0.000138     2.088706   105.298020
	   24 B(4,2,5)        =    108.586159    -0.000001     6.238211   114.824369
	   25 B(6,7,10)       =    110.367567     0.000381   -15.258030    95.109536
	   26 B(6,7,11)       =    109.817351    -0.000173    10.268406   120.085757
	   27 B(6,7,12)       =    112.224508    -0.000018    -1.753587   110.470921
	   28 B(6,8,13)       =    110.368134     0.000000   -17.177463    93.190670
	   29 B(6,8,14)       =    109.818779    -0.000018    -2.711223   107.107556
	   30 B(6,8,15)       =    112.223487    -0.000146     9.763510   121.986997
	   31 B(7,6,8)        =    112.316331    -0.000274   -18.437905    93.878427
	   32 B(7,6,9)        =    107.743578    -0.000535    -5.675912   102.067665
	   33 B(8,6,9)        =    107.743726     0.000469    12.558542   120.302268
	   34 B(10,7,11)      =    108.297217    -0.000178    -4.391332   103.905884
	   35 B(10,7,12)      =    108.494368    -0.000070    12.083991   120.578359
	   36 B(11,7,12)      =    107.518650     0.000044    -0.444919   107.073731
	   37 B(13,8,14)      =    108.297622     0.000027    11.129253   119.426875
	   38 B(13,8,15)      =    108.493426     0.000027    -0.135490   108.357936
	   39 B(14,8,15)      =    107.518210     0.000117    -0.311284   107.206926
	   40 D(1,2,3,6)      =    179.986923     0.000024     4.147500   184.134423
	   41 D(2,3,6,7)      =    -14.105840     0.000031     3.290487   -10.815353
	   42 D(2,3,6,8)      =    114.105366    -0.000012   -14.230520    99.874845
	   43 *D(2,3,6,9)     =   -130.000001    -0.000000    -0.000000  -130.000001
	   44 D(3,6,7,10)     =    -49.475739    -0.000134   -14.321349   -63.797088
	   45 D(3,6,7,11)     =   -168.799925    -0.000113    -4.305857  -173.105782
	   46 D(3,6,7,12)     =     71.669682    -0.000097   -10.117938    61.551744
	   47 D(3,6,8,13)     =     49.480630    -0.000076    -0.820671    48.659959
	   48 D(3,6,8,14)     =    168.806566    -0.000071     1.994950   170.801517
	   49 D(3,6,8,15)     =    -71.663292    -0.000062     6.323993   -65.339299
	   50 D(4,2,3,6)      =     61.445101     0.000046     9.893785    71.338886
	   51 D(5,2,3,6)      =    -61.472148    -0.000006    11.481378   -49.990770
	   52 D(7,6,8,13)     =    177.835186     0.000092     3.103462   180.938648
	   53 D(7,6,8,14)     =    -62.838878     0.000098     5.919083   -56.919795
	   54 D(7,6,8,15)     =     56.691264     0.000107    10.248126    66.939390
	   55 D(8,6,7,10)     =   -177.830633     0.000027    -3.295664  -181.126296
	   56 D(8,6,7,11)     =     62.845181     0.000048     6.719829    69.565010
	   57 D(8,6,7,12)     =    -56.685212     0.000064     0.907748   -55.777464
	   58 D(9,6,7,10)     =     63.664884     0.000010    -6.907660    56.757224
	   59 D(9,6,7,11)     =    -55.659302     0.000031     3.107833   -52.551469
	   60 D(9,6,7,12)     =   -175.189695     0.000048    -2.704248  -177.893943
	   61 D(9,6,8,13)     =    -63.660418    -0.000027    -9.001860   -72.662278
	   62 D(9,6,8,14)     =     55.665518    -0.000021    -6.186238    49.479280
	   63 D(9,6,8,15)     =    175.195660    -0.000012    -1.857196   173.338464
	 ---------------------------------------------------------------------------
	Successfully symmetrized geometry.

  ==> Convergence Check <==

  Measures of convergence in internal coordinates in au.
  Criteria marked as inactive (o), active & met (*), and active & unmet ( ).
  --------------------------------------------------------------------------------------------- ~
   Step     Total Energy     Delta E     MAX Force     RMS Force      MAX Disp      RMS Disp    ~
  --------------------------------------------------------------------------------------------- ~
    Convergence Criteria    1.00e-06 *    3.00e-04 *             o    1.20e-03 *             o  ~
  --------------------------------------------------------------------------------------------- ~
      1    -232.21907476   -2.32e+02      3.14e-02      6.13e-03 o    1.08e+00      3.49e-01 o  ~
  ---------------------------------------------------------------------------------------------

	Writing optimization data to binary file.
	Structure for next step:
	Cartesian Geometry (in Angstrom)
	    H    -2.9855296466  -2.2241512489   1.5150505627
	    C    -1.8738840812  -1.2182124736   1.4862470544
	    O    -1.3839729340  -0.8213621562  -0.0615941094
	    H    -2.3196303184  -0.1729538102   1.7407064369
	    H    -0.7844107998  -1.6936240117   2.4306857279
	    C     0.1082230450   0.3619733628  -0.6013878417
	    C     1.0976223574   1.4843109247   0.4607585415
	    C     1.4436077390  -0.6040498705  -1.0233392955
	    H    -0.4889267095   1.3242838409  -1.6096097129
	    H     0.1721515924   2.1967267354   0.7553697498
	    H     2.0855823068   2.4160901244  -0.1533979248
	    H     1.8278683544   0.7002237607   1.5188175284
	    H     0.7329080264  -1.3791627647  -1.7900602405
	    H     2.4612148059   0.2974440537  -1.6347953451
	    H     2.1628303953  -1.4676881045  -0.0067507099
			--------------------------
			 OPTKING Finished Execution 
			--------------------------

    Structure for next step:
    Molecular point group: c1
    Full point group: C1

    Geometry (in Angstrom), charge = 0, multiplicity = 1:

    H           -2.851294382678    -2.050644585970     1.438507198737
    C           -1.739648817360    -1.044705810628     1.409703690520
    O           -1.249737670157    -0.647855493270    -0.138137473340
    H           -2.185395054561     0.000552852741     1.664163072996
    H           -0.650175535942    -1.520117348780     2.354142363946
    C            0.242458308827     0.535480025787    -0.677931205585
    C            1.231857621274     1.657817587670     0.384215177541
    C            1.577843002873    -0.430543207527    -1.099882659400
    H           -0.354691445668     1.497790503804    -1.686153076853
    H            0.306386856231     2.370233398329     0.678826385922
    H            2.219817570653     2.589596787351    -0.229941288764
    H            1.962103618248     0.873730423685     1.442274164473
    H            0.867143290275    -1.205656101748    -1.866603604427
    H            2.595450069759     0.470950716697    -1.711338709017
    H            2.297065659128    -1.294181441588    -0.083294073783

gradient() will perform analytic gradient computation.

*** tstart() called on cx1-27-3-3
*** at Sat Sep 10 15:23:53 2016


         ---------------------------------------------------------
                                   SCF
            by Justin Turney, Rob Parrish, and Andy Simmonett
                              RHF Reference
                        4 Threads,   2000 MiB Core
         ---------------------------------------------------------

  ==> Geometry <==

    Molecular point group: c1
    Full point group: C1

    Geometry (in Angstrom), charge = 0, multiplicity = 1:

       Center              X                  Y                   Z               Mass       
    ------------   -----------------  -----------------  -----------------  -----------------
           H         -2.851294382678    -2.050644585970     1.438507198737     1.007825032070
           C         -1.739648817360    -1.044705810628     1.409703690520    12.000000000000
           O         -1.249737670157    -0.647855493270    -0.138137473340    15.994914619560
           H         -2.185395054561     0.000552852741     1.664163072996     1.007825032070
           H         -0.650175535942    -1.520117348780     2.354142363946     1.007825032070
           C          0.242458308827     0.535480025787    -0.677931205585    12.000000000000
           C          1.231857621274     1.657817587670     0.384215177541    12.000000000000
           C          1.577843002873    -0.430543207527    -1.099882659400    12.000000000000
           H         -0.354691445668     1.497790503804    -1.686153076853     1.007825032070
           H          0.306386856231     2.370233398329     0.678826385922     1.007825032070
           H          2.219817570653     2.589596787351    -0.229941288764     1.007825032070
           H          1.962103618248     0.873730423685     1.442274164473     1.007825032070
           H          0.867143290275    -1.205656101748    -1.866603604427     1.007825032070
           H          2.595450069759     0.470950716697    -1.711338709017     1.007825032070
           H          2.297065659128    -1.294181441588    -0.083294073783     1.007825032070

  Running in c1 symmetry.

  Rotational constants: A =      0.18719  B =      0.07190  C =      0.06225 [cm^-1]
  Rotational constants: A =   5611.88238  B =   2155.49640  C =   1866.06783 [MHz]
  Nuclear repulsion =  157.867025409671328

  Charge       = 0
  Multiplicity = 1
  Electrons    = 42
  Nalpha       = 21
  Nbeta        = 21

  ==> Algorithm <==

  SCF Algorithm Type is DF.
  DIIS enabled.
  MOM disabled.
  Fractional occupation disabled.
  Guess Type is READ.
  Energy threshold   = 1.00e-08
  Density threshold  = 1.00e-08
  Integral threshold = 0.00e+00

  ==> Primary Basis <==

  Basis Set: CC-PVTZ
    Number of shells: 110
    Number of basis function: 290
    Number of Cartesian functions: 325
    Spherical Harmonics?: true
    Max angular momentum: 3

  ==> Pre-Iterations <==

   -------------------------------------------------------
    Irrep   Nso     Nmo     Nalpha   Nbeta   Ndocc  Nsocc
   -------------------------------------------------------
     A        290     290       0       0       0       0
   -------------------------------------------------------
    Total     290     290      21      21      21       0
   -------------------------------------------------------

  ==> Integral Setup <==

  ==> DFJK: Density-Fitted J/K Matrices <==

    J tasked:                  Yes
    K tasked:                  Yes
    wK tasked:                  No
    OpenMP threads:              4
    Integrals threads:           4
    Memory (MB):              1430
    Algorithm:                Core
    Integral Cache:           NONE
    Schwarz Cutoff:          1E-12
    Fitting Condition:       1E-12

   => Auxiliary Basis Set <=

  Basis Set: 
    Number of shells: 225
    Number of basis function: 695
    Number of Cartesian functions: 830
    Spherical Harmonics?: true
    Max angular momentum: 4

  Minimum eigenvalue in the overlap matrix is 1.8385999803E-03.
  Using Symmetric Orthogonalization.
  SCF Guess: Reading in previously saved MOs, projecting if necessary.

  Using orbitals from previous SCF, no projection.
  Recomputing DOCC and SOCC from number of alpha and beta electrons from previous calculation.
              A 
    DOCC [    21 ]

  ==> Iterations <==

                           Total Energy        Delta E     RMS |[F,P]|

   @DF-RHF iter   0:  -227.05625873321117   -2.27056e+02   5.05940e-03 
   @DF-RHF iter   1:  -230.79262267032937   -3.73636e+00   3.31869e-03 
   @DF-RHF iter   2:  -231.17402271266519   -3.81400e-01   2.38822e-03 DIIS
   @DF-RHF iter   3:  -231.47777777642170   -3.03755e-01   3.46348e-04 DIIS
   @DF-RHF iter   4:  -231.48971151556316   -1.19337e-02   2.52135e-04 DIIS
   @DF-RHF iter   5:  -231.49412947441067   -4.41796e-03   8.88922e-05 DIIS
   @DF-RHF iter   6:  -231.49561591369832   -1.48644e-03   5.37981e-05 DIIS
   @DF-RHF iter   7:  -231.49619712191145   -5.81208e-04   2.65881e-05 DIIS
   @DF-RHF iter   8:  -231.49641236709294   -2.15245e-04   1.02619e-05 DIIS
   @DF-RHF iter   9:  -231.49644097604664   -2.86090e-05   4.77966e-06 DIIS
   @DF-RHF iter  10:  -231.49644585939154   -4.88334e-06   1.71291e-06 DIIS
   @DF-RHF iter  11:  -231.49644653032146   -6.70930e-07   5.15824e-07 DIIS
   @DF-RHF iter  12:  -231.49644658931169   -5.89902e-08   1.90126e-07 DIIS
   @DF-RHF iter  13:  -231.49644659694638   -7.63470e-09   8.90537e-08 DIIS
   @DF-RHF iter  14:  -231.49644659807831   -1.13192e-09   4.04422e-08 DIIS
   @DF-RHF iter  15:  -231.49644659837264   -2.94335e-10   1.21286e-08 DIIS
   @DF-RHF iter  16:  -231.49644659839976   -2.71143e-11   8.16944e-09 DIIS

  ==> Post-Iterations <==

    Orbital Energies (a.u.)
    -----------------------

    Doubly Occupied:                                                      

       1A    -20.563143     2A    -11.403224     3A    -11.367071  
       4A    -11.346337     5A    -11.343038     6A     -1.208487  
       7A     -0.962502     8A     -0.843732     9A     -0.829533  
      10A     -0.702119    11A     -0.549172    12A     -0.542369  
      13A     -0.516408    14A     -0.503260    15A     -0.483068  
      16A     -0.475472    17A     -0.454944    18A     -0.437180  
      19A     -0.418502    20A     -0.393139    21A     -0.385765  

    Virtual:                                                              

      22A      0.049521    23A      0.085138    24A      0.096167  
      25A      0.116092    26A      0.128764    27A      0.166829  
      28A      0.172920    29A      0.184054    30A      0.197209  
      31A      0.207074    32A      0.228722    33A      0.234099  
      34A      0.273308    35A      0.277499    36A      0.354714  
      37A      0.373093    38A      0.379482    39A      0.396286  
      40A      0.407713    41A      0.433827    42A      0.450754  
      43A      0.453447    44A      0.461369    45A      0.475363  
      46A      0.487486    47A      0.496079    48A      0.518990  
      49A      0.525872    50A      0.545746    51A      0.557472  
      52A      0.565362    53A      0.577154    54A      0.588340  
      55A      0.593750    56A      0.614177    57A      0.625304  
      58A      0.664141    59A      0.704363    60A      0.707003  
      61A      0.723221    62A      0.775469    63A      0.785150  
      64A      0.843216    65A      0.859804    66A      0.882349  
      67A      0.915148    68A      0.922313    69A      0.929915  
      70A      0.956403    71A      0.972713    72A      1.000493  
      73A      1.012125    74A      1.017950    75A      1.031268  
      76A      1.062678    77A      1.066631    78A      1.080009  
      79A      1.101708    80A      1.109051    81A      1.124474  
      82A      1.131183    83A      1.137924    84A      1.158370  
      85A      1.174947    86A      1.200807    87A      1.220502  
      88A      1.233118    89A      1.244992    90A      1.270148  
      91A      1.277523    92A      1.301811    93A      1.310745  
      94A      1.322603    95A      1.334179    96A      1.353932  
      97A      1.361905    98A      1.384199    99A      1.397076  
     100A      1.410139   101A      1.418039   102A      1.429386  
     103A      1.446574   104A      1.458141   105A      1.480137  
     106A      1.489650   107A      1.501475   108A      1.512347  
     109A      1.540039   110A      1.559053   111A      1.590391  
     112A      1.608676   113A      1.611562   114A      1.622875  
     115A      1.770679   116A      1.936031   117A      1.991604  
     118A      2.046876   119A      2.092808   120A      2.174463  
     121A      2.366026   122A      2.466085   123A      2.498403  
     124A      2.516766   125A      2.519390   126A      2.558933  
     127A      2.594245   128A      2.643517   129A      2.655894  
     130A      2.694633   131A      2.704419   132A      2.712674  
     133A      2.727188   134A      2.750573   135A      2.759317  
     136A      2.781495   137A      2.793697   138A      2.811459  
     139A      2.817971   140A      2.827815   141A      2.830883  
     142A      2.851293   143A      2.865259   144A      2.876284  
     145A      2.888183   146A      2.905507   147A      2.921539  
     148A      2.925109   149A      2.962343   150A      2.968039  
     151A      2.976626   152A      3.003837   153A      3.013199  
     154A      3.029261   155A      3.046353   156A      3.073876  
     157A      3.077109   158A      3.128551   159A      3.147522  
     160A      3.229125   161A      3.237666   162A      3.275970  
     163A      3.306487   164A      3.317713   165A      3.327937  
     166A      3.353213   167A      3.377021   168A      3.384583  
     169A      3.402874   170A      3.417739   171A      3.426611  
     172A      3.439137   173A      3.451659   174A      3.453487  
     175A      3.471012   176A      3.473115   177A      3.476944  
     178A      3.482204   179A      3.492370   180A      3.533053  
     181A      3.542308   182A      3.554154   183A      3.562030  
     184A      3.575102   185A      3.595523   186A      3.602410  
     187A      3.607075   188A      3.620677   189A      3.625103  
     190A      3.636321   191A      3.650203   192A      3.668462  
     193A      3.686056   194A      3.689034   195A      3.697821  
     196A      3.717696   197A      3.755450   198A      3.762377  
     199A      3.778037   200A      3.792084   201A      3.823290  
     202A      3.845114   203A      3.860309   204A      3.873105  
     205A      3.895443   206A      3.923731   207A      3.937813  
     208A      3.955884   209A      3.971477   210A      3.976397  
     211A      4.000938   212A      4.026874   213A      4.036801  
     214A      4.052075   215A      4.056063   216A      4.063267  
     217A      4.082149   218A      4.089122   219A      4.103397  
     220A      4.118180   221A      4.138617   222A      4.150607  
     223A      4.157919   224A      4.185548   225A      4.193217  
     226A      4.202499   227A      4.237055   228A      4.255284  
     229A      4.261253   230A      4.280327   231A      4.317971  
     232A      4.326475   233A      4.335621   234A      4.358671  
     235A      4.362928   236A      4.369060   237A      4.387329  
     238A      4.412320   239A      4.421533   240A      4.435953  
     241A      4.459142   242A      4.485036   243A      4.495577  
     244A      4.498149   245A      4.514700   246A      4.541343  
     247A      4.582331   248A      4.609922   249A      4.614747  
     250A      4.624899   251A      4.666657   252A      4.684183  
     253A      4.706659   254A      4.723624   255A      4.808802  
     256A      4.859963   257A      4.868068   258A      4.927315  
     259A      4.988544   260A      5.010571   261A      5.019919  
     262A      5.035229   263A      5.052316   264A      5.106784  
     265A      5.130401   266A      5.150833   267A      5.279217  
     268A      5.371136   269A      5.417130   270A      5.440309  
     271A      5.628779   272A      5.653468   273A      5.680020  
     274A      5.698003   275A      5.751557   276A      5.760454  
     277A      5.806080   278A      5.950156   279A      6.027189  
     280A      6.192607   281A      6.921389   282A      6.952373  
     283A      7.035678   284A      7.151214   285A      7.393213  
     286A      7.470837   287A      8.505992   288A      8.860985  
     289A      9.074868   290A      9.717502  

    Final Occupation by Irrep:
              A 
    DOCC [    21 ]

  Energy converged.

  @DF-RHF Final Energy:  -231.49644659839976

   => Energetics <=

    Nuclear Repulsion Energy =            157.8670254096713279
    One-Electron Energy =                -627.2700222492164812
    Two-Electron Energy =                 237.9065502411452826
    DFT Exchange-Correlation Energy =       0.0000000000000000
    Empirical Dispersion Energy =           0.0000000000000000
    PCM Polarization Energy =               0.0000000000000000
    EFP Energy =                            0.0000000000000000
    Total Energy =                       -231.4964465983998707


  Saving occupied orbitals to File 180.

*** tstop() called on cx1-27-3-3 at Sat Sep 10 15:23:59 2016
Module time:
	user time   =      21.11 seconds =       0.35 minutes
	system time =       0.47 seconds =       0.01 minutes
	total time  =          6 seconds =       0.10 minutes
Total time:
	user time   =      61.51 seconds =       1.03 minutes
	system time =       1.56 seconds =       0.03 minutes
	total time  =         18 seconds =       0.30 minutes


Properties will be evaluated at   0.000000,   0.000000,   0.000000 Bohr

Properties computed using the SCF density matrix

  Nuclear Dipole Moment: (a.u.)
     X:     3.9374      Y:     1.6208      Z:     1.8748

  Electronic Dipole Moment: (a.u.)
     X:    -3.3858      Y:    -1.0148      Z:    -1.5961

  Dipole Moment: (a.u.)
     X:     0.5516      Y:     0.6060      Z:     0.2787     Total:     0.8656

  Dipole Moment: (Debye)
     X:     1.4020      Y:     1.5404      Z:     0.7085     Total:     2.2001


*** tstart() called on cx1-27-3-3
*** at Sat Sep 10 15:23:59 2016


         ------------------------------------------------------------
                                   SCF GRAD                          
                          Rob Parrish, Justin Turney,                
                       Andy Simmonett, and Alex Sokolov              
         ------------------------------------------------------------

  ==> Geometry <==

    Molecular point group: c1
    Full point group: C1

    Geometry (in Angstrom), charge = 0, multiplicity = 1:

       Center              X                  Y                   Z               Mass       
    ------------   -----------------  -----------------  -----------------  -----------------
           H         -2.851294382678    -2.050644585970     1.438507198737     1.007825032070
           C         -1.739648817360    -1.044705810628     1.409703690520    12.000000000000
           O         -1.249737670157    -0.647855493270    -0.138137473340    15.994914619560
           H         -2.185395054561     0.000552852741     1.664163072996     1.007825032070
           H         -0.650175535942    -1.520117348780     2.354142363946     1.007825032070
           C          0.242458308827     0.535480025787    -0.677931205585    12.000000000000
           C          1.231857621274     1.657817587670     0.384215177541    12.000000000000
           C          1.577843002873    -0.430543207527    -1.099882659400    12.000000000000
           H         -0.354691445668     1.497790503804    -1.686153076853     1.007825032070
           H          0.306386856231     2.370233398329     0.678826385922     1.007825032070
           H          2.219817570653     2.589596787351    -0.229941288764     1.007825032070
           H          1.962103618248     0.873730423685     1.442274164473     1.007825032070
           H          0.867143290275    -1.205656101748    -1.866603604427     1.007825032070
           H          2.595450069759     0.470950716697    -1.711338709017     1.007825032070
           H          2.297065659128    -1.294181441588    -0.083294073783     1.007825032070

  Nuclear repulsion =  157.867025409671328

  ==> Basis Set <==

  Basis Set: CC-PVTZ
    Number of shells: 110
    Number of basis function: 290
    Number of Cartesian functions: 325
    Spherical Harmonics?: true
    Max angular momentum: 3

  ==> DFJKGrad: Density-Fitted SCF Gradients <==

    Gradient:                    1
    J tasked:                  Yes
    K tasked:                  Yes
    wK tasked:                  No
    OpenMP threads:              4
    Integrals threads:           4
    Memory (MB):              1430
    Schwarz Cutoff:          0E+00
    Fitting Condition:       1E-12

   => Auxiliary Basis Set <=

  Basis Set: 
    Number of shells: 225
    Number of basis function: 695
    Number of Cartesian functions: 830
    Spherical Harmonics?: true
    Max angular momentum: 4


  -Total Gradient:
     Atom            X                  Y                   Z
    ------   -----------------  -----------------  -----------------
       1       -0.083637140466    -0.068741245651     0.011762037397
       2       -0.011621682362    -0.001938334827     0.014038411891
       3       -0.037821341943    -0.013015720463    -0.053803255275
       4       -0.020120373588     0.053083986565    -0.006826191254
       5        0.076280438240    -0.034866192336     0.070561327381
       6       -0.069362655904    -0.037986400632    -0.008555302396
       7        0.025244308451    -0.015066731383    -0.019242101232
       8        0.031452585551     0.031779811968     0.040916248397
       9       -0.036917500458     0.080905017058    -0.066925191675
      10       -0.062532219727     0.030393961904    -0.009852737741
      11        0.070385430412     0.074275332259    -0.032696299646
      12        0.057457186102    -0.060424954850     0.072869165243
      13       -0.073137254890    -0.039949262650    -0.039234591319
      14        0.076178003677     0.068983257644    -0.039045078829
      15        0.058152216902    -0.067432524609     0.066033559057


*** tstop() called on cx1-27-3-3 at Sat Sep 10 15:24:04 2016
Module time:
	user time   =      18.69 seconds =       0.31 minutes
	system time =       0.39 seconds =       0.01 minutes
	total time  =          5 seconds =       0.08 minutes
Total time:
	user time   =      80.31 seconds =       1.34 minutes
	system time =       1.95 seconds =       0.03 minutes
	total time  =         23 seconds =       0.38 minutes

			-----------------------------------------
			 OPTKING 2.0: for geometry optimizations 
			  - R.A. King,  Bethel University        
			-----------------------------------------

	Previous internal coordinate definitions found.
	---Fragment 1 Geometry and Gradient---
	 H          -5.3881655075       -3.8751566634        2.7183846458
	 C          -3.2874598322       -1.9742078715        2.6639539036
	 O          -2.3616619345       -1.2242694560       -0.2610419933
	 H          -4.1297981453        0.0010447403        3.1448124484
	 H          -1.2286537012       -2.8726054790        4.4486843457
	 C           0.4581798023        1.0119105984       -1.2811043155
	 C           2.3278735389        3.1328212190        0.7260614616
	 C           2.9816911561       -0.8136087506       -2.0784770046
	 H          -0.6702696940        2.8304138566       -3.1863675334
	 H           0.5789872490        4.4790919939        1.2827959612
	 H           4.1948472735        4.8936287227       -0.4345260624
	 H           3.7078384828        1.6511112147        2.7255031794
	 H           1.6386633366       -2.2783598427       -3.5273696110
	 H           4.9046898234        0.8899678766       -3.2339614806
	 H           4.3408250050       -2.4456484909       -0.1574029879
	            -0.0836371405       -0.0687412457        0.0117620374
	            -0.0116216824       -0.0019383348        0.0140384119
	            -0.0378213419       -0.0130157205       -0.0538032553
	            -0.0201203736        0.0530839866       -0.0068261913
	             0.0762804382       -0.0348661923        0.0705613274
	            -0.0693626559       -0.0379864006       -0.0085553024
	             0.0252443085       -0.0150667314       -0.0192421012
	             0.0314525856        0.0317798120        0.0409162484
	            -0.0369175005        0.0809050171       -0.0669251917
	            -0.0625322197        0.0303939619       -0.0098527377
	             0.0703854304        0.0742753323       -0.0326962996
	             0.0574571861       -0.0604249548        0.0728691652
	            -0.0731372549       -0.0399492627       -0.0392345913
	             0.0761780037        0.0689832576       -0.0390450788
	             0.0581522169       -0.0674325246        0.0660335591

	---Fragment 1 Intrafragment Coordinates---
	 - Coordinate -           - BOHR/RAD -       - ANG/DEG -
	 R(1,2)           =         2.833643	       1.499499
	 R(2,3)           =         3.158340	       1.671321
	 R(2,4)           =         2.200541	       1.164476
	 R(2,5)           =         2.868983	       1.518200
	 R(3,6)           =         3.740660	       1.979472
	 R(6,7)           =         3.467381	       1.834859
	 R(6,8)           =         3.215032	       1.701322
	 R(6,9)           =         2.865376	       1.516292
	 R(7,10)          =         2.276181	       1.204503
	 R(7,11)          =         2.816558	       1.490458
	 R(7,12)          =         2.845617	       1.505836
	 R(8,13)          =         2.459372	       1.301443
	 R(8,14)          =         2.816956	       1.490669
	 R(8,15)          =         2.863795	       1.515455
	 B(1,2,3)         =         1.976200	     113.227916
	 B(1,2,4)         =         1.890405	     108.312200
	 B(1,2,5)         =         1.885963	     108.057709
	 B(2,3,6)         =         2.233773	     127.985755
	 B(3,2,4)         =         1.672413	      95.822204
	 B(3,2,5)         =         2.026530	     116.111595
	 B(3,6,7)         =         2.232284	     127.900478
	 B(3,6,8)         =         1.896408	     108.656151
	 B(3,6,9)         =         1.837797	     105.298020
	 B(4,2,5)         =         2.004063	     114.824369
	 B(6,7,10)        =         1.659975	      95.109536
	 B(6,7,11)        =         2.095892	     120.085757
	 B(6,7,12)        =         1.928081	     110.470921
	 B(6,8,13)        =         1.626484	      93.190670
	 B(6,8,14)        =         1.869380	     107.107556
	 B(6,8,15)        =         2.129075	     121.986997
	 B(7,6,8)         =         1.638488	      93.878427
	 B(7,6,9)         =         1.781417	     102.067665
	 B(8,6,9)         =         2.099671	     120.302268
	 B(10,7,11)       =         1.813500	     103.905884
	 B(10,7,12)       =         2.104489	     120.578359
	 B(11,7,12)       =         1.868789	     107.073731
	 B(13,8,14)       =         2.084392	     119.426875
	 B(13,8,15)       =         1.891203	     108.357936
	 B(14,8,15)       =         1.871114	     107.206926
	 D(1,2,3,6)       =        -3.069433	    -175.865577
	 D(2,3,6,7)       =        -0.188764	     -10.815353
	 D(2,3,6,8)       =         1.743145	      99.874845
	*D(2,3,6,9)       =        -2.268928	    -130.000001
	 D(3,6,7,10)      =        -1.113469	     -63.797088
	 D(3,6,7,11)      =        -3.021266	    -173.105782
	 D(3,6,7,12)      =         1.074281	      61.551744
	 D(3,6,8,13)      =         0.849277	      48.659959
	 D(3,6,8,14)      =         2.981049	     170.801517
	 D(3,6,8,15)      =        -1.140386	     -65.339299
	 D(4,2,3,6)       =         1.245098	      71.338886
	 D(5,2,3,6)       =        -0.872504	     -49.990770
	 D(7,6,8,13)      =        -3.125210	    -179.061352
	 D(7,6,8,14)      =        -0.993438	     -56.919795
	 D(7,6,8,15)      =         1.168313	      66.939390
	 D(8,6,7,10)      =         3.121935	     178.873704
	 D(8,6,7,11)      =         1.214138	      69.565010
	 D(8,6,7,12)      =        -0.973500	     -55.777464
	 D(9,6,7,10)      =         0.990600	      56.757224
	 D(9,6,7,11)      =        -0.917196	     -52.551469
	 D(9,6,7,12)      =        -3.104835	    -177.893943
	 D(9,6,8,13)      =        -1.268196	     -72.662278
	 D(9,6,8,14)      =         0.863576	      49.479280
	 D(9,6,8,15)      =         3.025327	     173.338464

	Current energy   :      -231.4964465984

	Energy change for the previous step:
		Projected    :        -0.0114834158
		Actual       :         0.7226281624

	Performing BFGS update.
	Previous computed or guess Hessian on step 1.
	Steps to be used in Hessian update: 1
	Taking RFO optimization step.
	Going to follow RFO solution 1.
	Using RFO vector 1.

	Determining step-restricting scale parameter for RS-RFO.
	Maximum step size allowed    0.50000

	 Iter      |step|        alpha        rfo_root  
	------------------------------------------------
	    0     0.82018       1.00000           1
	    1     0.61834       1.95960           1
	    2     0.52669       2.82823           1
	    3     0.50194       3.15212           1
	    4     0.50001       3.17947           1
	    5     0.50000       3.17963           1
	------------------------------------------------
	Norm of target step-size    0.50000
	Projected energy change by RFO approximation:        -0.1598595967

	Back-transformation to cartesian coordinates...
	Successfully converged to displaced geometry.
	First geometry is closer to target in internal coordinates, so am using that one.
	First geometry has RMS(Delta(q)) = 1.43e-03

	Back-transformation to cartesian coordinates to adjust frozen coordinates...
	Successfully converged to displaced geometry.

	--- Internal Coordinate Step in ANG or DEG, aJ/ANG or AJ/DEG ---
	 ---------------------------------------------------------------------------
	   Coordinate                Previous        Force       Change         New 
	   ----------                --------       ------       ------       ------
	    1 R(1,2)          =      1.499499    -0.892624    -0.073982     1.425517
	    2 R(2,3)          =      1.671321    -0.880212    -0.061926     1.609395
	    3 R(2,4)          =      1.164476    -0.443733    -0.028065     1.136411
	    4 R(2,5)          =      1.518200    -0.902570    -0.075035     1.443166
	    5 R(3,6)          =      1.979472    -0.880487    -0.083840     1.895632
	    6 R(6,7)          =      1.834859    -0.602161    -0.048248     1.786611
	    7 R(6,8)          =      1.701322    -0.571487    -0.041301     1.660021
	    8 R(6,9)          =      1.516292    -0.909435    -0.076042     1.440250
	    9 R(7,10)         =      1.204503    -0.524090    -0.035560     1.168943
	   10 R(7,11)         =      1.490458    -0.877938    -0.072929     1.417529
	   11 R(7,12)         =      1.505836    -0.910605    -0.075377     1.430459
	   12 R(8,13)         =      1.301443    -0.715504    -0.050867     1.250577
	   13 R(8,14)         =      1.490669    -0.904093    -0.073387     1.417282
	   14 R(8,15)         =      1.515455    -0.908926    -0.075087     1.440368
	   15 B(1,2,3)        =    113.227916    -0.001832    -1.777695   111.450221
	   16 B(1,2,4)        =    108.312200     0.000192     0.098615   108.410815
	   17 B(1,2,5)        =    108.057709     0.000359     0.298406   108.356115
	   18 B(2,3,6)        =    127.985755    -0.003441    -2.602421   125.383334
	   19 B(3,2,4)        =     95.822204     0.002844     2.977173    98.799376
	   20 B(3,2,5)        =    116.111595    -0.000752    -0.764636   115.346958
	   21 B(3,6,7)        =    127.900478    -0.002642    -2.490447   125.410031
	   22 B(3,6,8)        =    108.656151    -0.002125    -1.769492   106.886659
	   23 B(3,6,9)        =    105.298020     0.001067     0.860012   106.158033
	   24 B(4,2,5)        =    114.824369    -0.000665    -0.702956   114.121413
	   25 B(6,7,10)       =     95.109536     0.003499     3.433299    98.542835
	   26 B(6,7,11)       =    120.085757    -0.002472    -2.468149   117.617609
	   27 B(6,7,12)       =    110.470921     0.000393     0.503753   110.974673
	   28 B(6,8,13)       =     93.190670     0.004281     4.091963    97.282634
	   29 B(6,8,14)       =    107.107556     0.000390     0.500677   107.608233
	   30 B(6,8,15)       =    121.986997    -0.002376    -2.371625   119.615372
	   31 B(7,6,8)        =     93.878427     0.005147     4.630622    98.509049
	   32 B(7,6,9)        =    102.067665    -0.000521    -0.290117   101.777548
	   33 B(8,6,9)        =    120.302268    -0.001049    -1.079504   119.222764
	   34 B(10,7,11)      =    103.905884    -0.000491    -0.391932   103.513952
	   35 B(10,7,12)      =    120.578359    -0.001830    -1.880721   118.697638
	   36 B(11,7,12)      =    107.073731     0.000641     0.557657   107.631388
	   37 B(13,8,14)      =    119.426875    -0.001695    -1.780027   117.646848
	   38 B(13,8,15)      =    108.357936    -0.001182    -0.991123   107.366813
	   39 B(14,8,15)      =    107.206926     0.000525     0.466001   107.672927
	   40 D(1,2,3,6)      =   -175.865577     0.000243     1.083588  -174.781989
	   41 D(2,3,6,7)      =    -10.815353    -0.000374    -1.363379   -12.178732
	   42 D(2,3,6,8)      =     99.874845     0.000446     1.871584   101.746430
	   43 *D(2,3,6,9)     =   -130.000001    -0.000000     0.000000  -130.000001
	   44 D(3,6,7,10)     =    -63.797088     0.000191     0.763274   -63.033814
	   45 D(3,6,7,11)     =   -173.105782    -0.000024    -0.126909  -173.232691
	   46 D(3,6,7,12)     =     61.551744     0.000168     0.697684    62.249428
	   47 D(3,6,8,13)     =     48.659959     0.000051     0.291703    48.951662
	   48 D(3,6,8,14)     =    170.801517     0.000046     0.246738   171.048255
	   49 D(3,6,8,15)     =    -65.339299    -0.000127    -0.466410   -65.805709
	   50 D(4,2,3,6)      =     71.338886    -0.000016     0.038491    71.377377
	   51 D(5,2,3,6)      =    -49.990770    -0.000177    -0.699335   -50.690104
	   52 D(7,6,8,13)     =   -179.061352    -0.000216    -0.862973  -179.924325
	   53 D(7,6,8,14)     =    -56.919795    -0.000220    -0.907937   -57.827732
	   54 D(7,6,8,15)     =     66.939390    -0.000394    -1.621085    65.318304
	   55 D(8,6,7,10)     =    178.873704     0.000065     0.269905   179.143609
	   56 D(8,6,7,11)     =     69.565010    -0.000149    -0.620279    68.944732
	   57 D(8,6,7,12)     =    -55.777464     0.000042     0.204315   -55.573149
	   58 D(9,6,7,10)     =     56.757224    -0.000006     0.011913    56.769137
	   59 D(9,6,7,11)     =    -52.551469    -0.000221    -0.878271   -53.429740
	   60 D(9,6,7,12)     =   -177.893943    -0.000029    -0.053678  -177.947621
	   61 D(9,6,8,13)     =    -72.662278     0.000327     1.411479   -71.250799
	   62 D(9,6,8,14)     =     49.479280     0.000323     1.366515    50.845794
	   63 D(9,6,8,15)     =    173.338464     0.000149     0.653367   173.991830
	 ---------------------------------------------------------------------------
	Successfully symmetrized geometry.

  ==> Convergence Check <==

  Measures of convergence in internal coordinates in au.
  Criteria marked as inactive (o), active & met (*), and active & unmet ( ).
  ---------------------------------------------------------------------------------------------
   Step     Total Energy     Delta E     MAX Force     RMS Force      MAX Disp      RMS Disp   
  ---------------------------------------------------------------------------------------------
    Convergence Criteria    1.00e-06 *    3.00e-04 *             o    1.20e-03 *             o
  ---------------------------------------------------------------------------------------------
      2    -231.49644660    7.23e-01      1.11e-01      4.96e-02 o    1.58e-01      6.24e-02 o  ~
  ---------------------------------------------------------------------------------------------

	Writing optimization data to binary file.
	Structure for next step:
	Cartesian Geometry (in Angstrom)
	    H    -2.6317984455  -1.9943838499   1.3290245833
	    C    -1.6134407093  -0.9969933314   1.3129115626
	    O    -1.1585291280  -0.6445742730  -0.1900887321
	    H    -2.0829984483  -0.0001052313   1.5906869454
	    H    -0.5527558083  -1.4161185655   2.1972245513
	    C     0.2604254488   0.5200947786  -0.6628826888
	    C     1.1029356600   1.6317543417   0.4535262110
	    C     1.5518741927  -0.4368662196  -1.0776788284
	    H    -0.2788061201   1.4341496678  -1.6365627699
	    H     0.1976282005   2.3164830951   0.7327981699
	    H     2.0422846577   2.5354308053  -0.1035914678
	    H     1.7635921291   0.9076773088   1.4953793562
	    H     0.9396722825  -1.2007064587  -1.8559454240
	    H     2.5488420161   0.4047745009  -1.6311982497
	    H     2.1802571631  -1.2581682623  -0.0750532560
			--------------------------
			 OPTKING Finished Execution 
			--------------------------

    Structure for next step:
    Molecular point group: c1
    Full point group: C1

    Geometry (in Angstrom), charge = 0, multiplicity = 1:

    H           -2.648662362208    -1.995038974071     1.338085770885
    C           -1.630304626015    -0.997648455575     1.321972750196
    O           -1.175393044742    -0.645229397136    -0.181027544522
    H           -2.099862364951    -0.000760355433     1.599748132991
    H           -0.569619725039    -1.416773689592     2.206285738896
    C            0.243561532093     0.519439654439    -0.653821501239
    C            1.086071743252     1.631099217604     0.462587398613
    C            1.535010276038    -0.437521343692    -1.068617640793
    H           -0.295670036799     1.433494543694    -1.627501582291
    H            0.180764283803     2.315827970951     0.741859357491
    H            2.025420740978     2.534775681203    -0.094530280167
    H            1.746728212444     0.907022184616     1.504440543845
    H            0.922808365787    -1.201361582853    -1.846884236429
    H            2.531978099401     0.404119376724    -1.622137062116
    H            2.163393246376    -1.258823386405    -0.065992068433

gradient() will perform analytic gradient computation.

*** tstart() called on cx1-27-3-3
*** at Sat Sep 10 15:24:04 2016


         ---------------------------------------------------------
                                   SCF
            by Justin Turney, Rob Parrish, and Andy Simmonett
                              RHF Reference
                        4 Threads,   2000 MiB Core
         ---------------------------------------------------------

  ==> Geometry <==

    Molecular point group: c1
    Full point group: C1

    Geometry (in Angstrom), charge = 0, multiplicity = 1:

       Center              X                  Y                   Z               Mass       
    ------------   -----------------  -----------------  -----------------  -----------------
           H         -2.648662362208    -1.995038974071     1.338085770885     1.007825032070
           C         -1.630304626015    -0.997648455575     1.321972750196    12.000000000000
           O         -1.175393044742    -0.645229397136    -0.181027544522    15.994914619560
           H         -2.099862364951    -0.000760355433     1.599748132991     1.007825032070
           H         -0.569619725039    -1.416773689592     2.206285738896     1.007825032070
           C          0.243561532093     0.519439654439    -0.653821501239    12.000000000000
           C          1.086071743252     1.631099217604     0.462587398613    12.000000000000
           C          1.535010276038    -0.437521343692    -1.068617640793    12.000000000000
           H         -0.295670036799     1.433494543694    -1.627501582291     1.007825032070
           H          0.180764283803     2.315827970951     0.741859357491     1.007825032070
           H          2.025420740978     2.534775681203    -0.094530280167     1.007825032070
           H          1.746728212444     0.907022184616     1.504440543845     1.007825032070
           H          0.922808365787    -1.201361582853    -1.846884236429     1.007825032070
           H          2.531978099401     0.404119376724    -1.622137062116     1.007825032070
           H          2.163393246376    -1.258823386405    -0.065992068433     1.007825032070

  Running in c1 symmetry.

  Rotational constants: A =      0.18891  B =      0.08117  C =      0.06810 [cm^-1]
  Rotational constants: A =   5663.27156  B =   2433.50901  C =   2041.54131 [MHz]
  Nuclear repulsion =  163.856352055190456

  Charge       = 0
  Multiplicity = 1
  Electrons    = 42
  Nalpha       = 21
  Nbeta        = 21

  ==> Algorithm <==

  SCF Algorithm Type is DF.
  DIIS enabled.
  MOM disabled.
  Fractional occupation disabled.
  Guess Type is READ.
  Energy threshold   = 1.00e-08
  Density threshold  = 1.00e-08
  Integral threshold = 0.00e+00

  ==> Primary Basis <==

  Basis Set: CC-PVTZ
    Number of shells: 110
    Number of basis function: 290
    Number of Cartesian functions: 325
    Spherical Harmonics?: true
    Max angular momentum: 3

  ==> Pre-Iterations <==

   -------------------------------------------------------
    Irrep   Nso     Nmo     Nalpha   Nbeta   Ndocc  Nsocc
   -------------------------------------------------------
     A        290     290       0       0       0       0
   -------------------------------------------------------
    Total     290     290      21      21      21       0
   -------------------------------------------------------

  ==> Integral Setup <==

  ==> DFJK: Density-Fitted J/K Matrices <==

    J tasked:                  Yes
    K tasked:                  Yes
    wK tasked:                  No
    OpenMP threads:              4
    Integrals threads:           4
    Memory (MB):              1430
    Algorithm:                Core
    Integral Cache:           NONE
    Schwarz Cutoff:          1E-12
    Fitting Condition:       1E-12

   => Auxiliary Basis Set <=

  Basis Set: 
    Number of shells: 225
    Number of basis function: 695
    Number of Cartesian functions: 830
    Spherical Harmonics?: true
    Max angular momentum: 4

  Minimum eigenvalue in the overlap matrix is 1.6497585812E-03.
  Using Symmetric Orthogonalization.
  SCF Guess: Reading in previously saved MOs, projecting if necessary.

  Using orbitals from previous SCF, no projection.
  Recomputing DOCC and SOCC from number of alpha and beta electrons from previous calculation.
              A 
    DOCC [    21 ]

  ==> Iterations <==

                           Total Energy        Delta E     RMS |[F,P]|

   @DF-RHF iter   0:  -231.96505029613101   -2.31965e+02   6.59332e-04 
   @DF-RHF iter   1:  -231.67887427071864    2.86176e-01   3.25195e-04 
   @DF-RHF iter   2:  -231.68342720685868   -4.55294e-03   2.07135e-04 DIIS
   @DF-RHF iter   3:  -231.68545000966819   -2.02280e-03   2.98393e-05 DIIS
   @DF-RHF iter   4:  -231.68551041037799   -6.04007e-05   1.93438e-05 DIIS
   @DF-RHF iter   5:  -231.68553434266826   -2.39323e-05   5.57867e-06 DIIS
   @DF-RHF iter   6:  -231.68553910322848   -4.76056e-06   2.56110e-06 DIIS
   @DF-RHF iter   7:  -231.68554009689959   -9.93671e-07   1.21586e-06 DIIS
   @DF-RHF iter   8:  -231.68554044539721   -3.48498e-07   4.48720e-07 DIIS
   @DF-RHF iter   9:  -231.68554049437060   -4.89734e-08   2.12170e-07 DIIS
   @DF-RHF iter  10:  -231.68554050356065   -9.19005e-09   8.91239e-08 DIIS
   @DF-RHF iter  11:  -231.68554050537907   -1.81842e-09   2.63352e-08 DIIS
   @DF-RHF iter  12:  -231.68554050553448   -1.55410e-10   7.85064e-09 DIIS

  ==> Post-Iterations <==

    Orbital Energies (a.u.)
    -----------------------

    Doubly Occupied:                                                      

       1A    -20.559417     2A    -11.388822     3A    -11.349033  
       4A    -11.325843     5A    -11.325649     6A     -1.226354  
       7A     -0.976136     8A     -0.860859     9A     -0.839253  
      10A     -0.713548    11A     -0.564311    12A     -0.554146  
      13A     -0.536511    14A     -0.517910    15A     -0.495314  
      16A     -0.489170    17A     -0.468117    18A     -0.455369  
      19A     -0.418656    20A     -0.407902    21A     -0.398664  

    Virtual:                                                              

      22A      0.084403    23A      0.099996    24A      0.116518  
      25A      0.133534    26A      0.148931    27A      0.179733  
      28A      0.180601    29A      0.199122    30A      0.204717  
      31A      0.217800    32A      0.239963    33A      0.244943  
      34A      0.285469    35A      0.292033    36A      0.354198  
      37A      0.378283    38A      0.380472    39A      0.405385  
      40A      0.418711    41A      0.451457    42A      0.465178  
      43A      0.469419    44A      0.478280    45A      0.497179  
      46A      0.501031    47A      0.512756    48A      0.526990  
      49A      0.535235    50A      0.561304    51A      0.566301  
      52A      0.573441    53A      0.585480    54A      0.598843  
      55A      0.606818    56A      0.623983    57A      0.638995  
      58A      0.679020    59A      0.700246    60A      0.716216  
      61A      0.735362    62A      0.773408    63A      0.802351  
      64A      0.861825    65A      0.882360    66A      0.901356  
      67A      0.924579    68A      0.943301    69A      0.960439  
      70A      0.972156    71A      0.979720    72A      1.021539  
      73A      1.032013    74A      1.049974    75A      1.067538  
      76A      1.088227    77A      1.095234    78A      1.110351  
      79A      1.117394    80A      1.133759    81A      1.145320  
      82A      1.153502    83A      1.162519    84A      1.175723  
      85A      1.201443    86A      1.221472    87A      1.246307  
      88A      1.253647    89A      1.261183    90A      1.304315  
      91A      1.307941    92A      1.310786    93A      1.324739  
      94A      1.352646    95A      1.361285    96A      1.369550  
      97A      1.389665    98A      1.407975    99A      1.418057  
     100A      1.430797   101A      1.434812   102A      1.448309  
     103A      1.479520   104A      1.482838   105A      1.498545  
     106A      1.508727   107A      1.530607   108A      1.549782  
     109A      1.554212   110A      1.583044   111A      1.626848  
     112A      1.634307   113A      1.641615   114A      1.655014  
     115A      1.799108   116A      1.970335   117A      2.025919  
     118A      2.092270   119A      2.135679   120A      2.237021  
     121A      2.405452   122A      2.505590   123A      2.516406  
     124A      2.540745   125A      2.546931   126A      2.580665  
     127A      2.623553   128A      2.680979   129A      2.697483  
     130A      2.718227   131A      2.731422   132A      2.740437  
     133A      2.759147   134A      2.792092   135A      2.807092  
     136A      2.818469   137A      2.828738   138A      2.846294  
     139A      2.856946   140A      2.870907   141A      2.878826  
     142A      2.892950   143A      2.909783   144A      2.927628  
     145A      2.941617   146A      2.956252   147A      2.967614  
     148A      2.983522   149A      3.012874   150A      3.013380  
     151A      3.034446   152A      3.057362   153A      3.063765  
     154A      3.091676   155A      3.101353   156A      3.126257  
     157A      3.140265   158A      3.183154   159A      3.198768  
     160A      3.256636   161A      3.260871   162A      3.297922  
     163A      3.326685   164A      3.349634   165A      3.355277  
     166A      3.373262   167A      3.389933   168A      3.396995  
     169A      3.412451   170A      3.430966   171A      3.458290  
     172A      3.465489   173A      3.472493   174A      3.476941  
     175A      3.485092   176A      3.504651   177A      3.514674  
     178A      3.523314   179A      3.536446   180A      3.550897  
     181A      3.566449   182A      3.574854   183A      3.590177  
     184A      3.591588   185A      3.623067   186A      3.629687  
     187A      3.646197   188A      3.650149   189A      3.683470  
     190A      3.692006   191A      3.705349   192A      3.712745  
     193A      3.727507   194A      3.734821   195A      3.762140  
[...]
       5       -0.000002682566     0.000013012556    -0.000024481566
       6        0.000512742779    -0.000764616496    -0.001863594716
       7        0.000031482715    -0.000011117709     0.000051983222
       8        0.000048762728    -0.000021838147     0.000058171504
       9       -0.001123559630     0.001141809121     0.001319429096
      10       -0.000013079923     0.000011842215    -0.000003145512
      11       -0.000021418944    -0.000036230281    -0.000014003273
      12       -0.000000704895     0.000002230791    -0.000000267933
      13       -0.000013446863    -0.000026594626    -0.000032911991
      14       -0.000031914051     0.000002701957     0.000019343564
      15        0.000019186453    -0.000010864278    -0.000000103477


*** tstop() called on cx1-27-3-3 at Sat Sep 10 15:25:35 2016
Module time:
	user time   =      17.85 seconds =       0.30 minutes
	system time =       0.40 seconds =       0.01 minutes
	total time  =          5 seconds =       0.08 minutes
Total time:
	user time   =     401.90 seconds =       6.70 minutes
	system time =       9.64 seconds =       0.16 minutes
	total time  =        114 seconds =       1.90 minutes

			-----------------------------------------
			 OPTKING 2.0: for geometry optimizations 
			  - R.A. King,  Bethel University        
			-----------------------------------------

	Previous internal coordinate definitions found.
	---Fragment 1 Geometry and Gradient---
	 H          -3.6163184743       -3.4447131936        1.3078021578
	 C          -2.4186504959       -1.8246220276        1.6421864337
	 O          -1.3565230502       -1.1885291447       -0.6744975306
	 H          -3.5775004271       -0.3224161428        2.4189108680
	 H          -1.0096762586       -2.3529892399        3.0385535144
	 C           0.3798634476        0.8254703034       -0.9046561542
	 C           0.5601459814        2.5677961389        1.3831741347
	 C           2.9421717454       -0.2632460241       -1.6194194331
	 H          -0.3166316941        1.9650031162       -2.4610546082
	 H          -1.2508283164        3.3942628560        1.8534271973
	 H           1.8419737059        4.0999217939        0.9364743596
	 H           1.2897829413        1.6086573722        3.0379519337
	 H           2.7595336325       -1.4644560233       -3.2645662636
	 H           4.2810230584        1.2286828946       -2.0459208218
	 H           3.7016379823       -1.3922884139       -0.0855274482
	             0.0000169278        0.0000357976        0.0000255866
	            -0.0014408658        0.0011225939       -0.0002980224
	             0.0019987005       -0.0014221446        0.0007671583
	             0.0000198697       -0.0000365819       -0.0000051414
	            -0.0000026826        0.0000130126       -0.0000244816
	             0.0005127428       -0.0007646165       -0.0018635947
	             0.0000314827       -0.0000111177        0.0000519832
	             0.0000487627       -0.0000218381        0.0000581715
	            -0.0011235596        0.0011418091        0.0013194291
	            -0.0000130799        0.0000118422       -0.0000031455
	            -0.0000214189       -0.0000362303       -0.0000140033
	            -0.0000007049        0.0000022308       -0.0000002679
	            -0.0000134469       -0.0000265946       -0.0000329120
	            -0.0000319141        0.0000027020        0.0000193436
	             0.0000191865       -0.0000108643       -0.0000001035

	---Fragment 1 Intrafragment Coordinates---
	 - Coordinate -           - BOHR/RAD -       - ANG/DEG -
	 R(1,2)           =         2.042282	       1.080729
	 R(2,3)           =         2.626738	       1.390010
	 R(2,4)           =         2.050087	       1.084859
	 R(2,5)           =         2.052857	       1.086325
	 R(3,6)           =         2.669121	       1.412438
	 R(6,7)           =         2.881383	       1.524762
	 R(6,8)           =         2.874302	       1.521015
	 R(6,9)           =         2.050858	       1.085267
	 R(7,10)          =         2.045437	       1.082399
	 R(7,11)          =         2.046957	       1.083203
	 R(7,12)          =         2.047097	       1.083277
	 R(8,13)          =         2.045182	       1.082264
	 R(8,14)          =         2.049458	       1.084526
	 R(8,15)          =         2.050451	       1.085052
	 B(1,2,3)         =         1.859618	     106.548238
	 B(1,2,4)         =         1.887897	     108.168543
	 B(1,2,5)         =         1.885669	     108.040895
	 B(2,3,6)         =         2.119786	     121.454767
	 B(3,2,4)         =         1.966304	     112.660894
	 B(3,2,5)         =         1.965699	     112.626235
	 B(3,6,7)         =         2.013633	     115.372646
	 B(3,6,8)         =         1.891851	     108.395099
	 B(3,6,9)         =         1.837721	     105.293650
	 B(4,2,5)         =         1.895318	     108.593711
	 B(6,7,10)        =         1.951391	     111.806495
	 B(6,7,11)        =         1.894951	     108.572704
	 B(6,7,12)        =         1.961480	     112.384522
	 B(6,8,13)        =         1.920792	     110.053286
	 B(6,8,14)        =         1.937325	     111.000518
	 B(6,8,15)        =         1.931278	     110.654057
	 B(7,6,8)         =         1.950571	     111.759476
	 B(7,6,9)         =         1.862762	     106.728373
	 B(8,6,9)         =         1.901270	     108.934764
	 B(10,7,11)       =         1.877766	     107.588073
	 B(10,7,12)       =         1.895512	     108.604859
	 B(11,7,12)       =         1.879581	     107.692041
	 B(13,8,14)       =         1.894941	     108.572095
	 B(13,8,15)       =         1.887487	     108.145025
	 B(14,8,15)       =         1.890781	     108.333763
	 D(1,2,3,6)       =        -3.110642	    -178.226659
	 D(2,3,6,7)       =        -0.220201	     -12.616595
	 D(2,3,6,8)       =         1.981775	     113.547342
	*D(2,3,6,9)       =        -2.268928	    -130.000001
	 D(3,6,7,10)      =        -1.004463	     -57.551486
	 D(3,6,7,11)      =        -3.073384	    -176.091909
	 D(3,6,7,12)      =         1.132517	      64.888464
	 D(3,6,8,13)      =         0.919855	      52.703833
	 D(3,6,8,14)      =         3.018065	     172.922371
	 D(3,6,8,15)      =        -1.165200	     -66.761060
	 D(4,2,3,6)       =         1.105018	      63.312840
	 D(5,2,3,6)       =        -1.046177	     -59.941535
	 D(7,6,8,13)      =        -3.125110	    -179.055624
	 D(7,6,8,14)      =        -1.026901	     -58.837086
	 D(7,6,8,15)      =         1.073019	      61.479483
	 D(8,6,7,10)      =         3.107070	     178.021981
	 D(8,6,7,11)      =         1.038149	      59.481557
	 D(8,6,7,12)      =        -1.039135	     -59.538069
	 D(9,6,7,10)      =         1.030148	      59.023155
	 D(9,6,7,11)      =        -1.038772	     -59.517269
	 D(9,6,7,12)      =        -3.116057	    -178.536895
	 D(9,6,8,13)      =        -1.071157	     -61.372777
	 D(9,6,8,14)      =         1.027052	      58.845761
	 D(9,6,8,15)      =         3.126973	     179.162329

	Current energy   :      -232.2221200266

	Energy change for the previous step:
		Projected    :        -0.0000085766
		Actual       :        -0.0000015406
	Energy ratio indicates iffy step: Trust radius decreased to 4.688e-02.


	Performing BFGS update.
	Previous computed or guess Hessian on step 1.
	Steps to be used in Hessian update: 10 9
	Taking RFO optimization step.
	Going to follow RFO solution 1.
	Using RFO vector 1.
	Norm of target step-size    0.00257
	Projected energy change by RFO approximation:        -0.0000002153

	Back-transformation to cartesian coordinates...
	Could not converge backtransformation.
	Using first guess instead.

	Back-transformation to cartesian coordinates to adjust frozen coordinates...
	Successfully converged to displaced geometry.

	--- Internal Coordinate Step in ANG or DEG, aJ/ANG or AJ/DEG ---
	 ---------------------------------------------------------------------------
	   Coordinate                Previous        Force       Change         New 
	   ----------                --------       ------       ------       ------
	    1 R(1,2)          =      1.080729     0.000350     0.000086     1.080815
	    2 R(2,3)          =      1.390010    -0.000227    -0.000012     1.389998
	    3 R(2,4)          =      1.084859     0.000329     0.000066     1.084925
	    4 R(2,5)          =      1.086325     0.000180     0.000064     1.086389
	    5 R(3,6)          =      1.412438     0.001056     0.000207     1.412645
	    6 R(6,7)          =      1.524762    -0.000058    -0.000031     1.524731
	    7 R(6,8)          =      1.521015    -0.000251    -0.000063     1.520952
	    8 R(6,9)          =      1.085267    -0.000121    -0.000017     1.085250
	    9 R(7,10)         =      1.082399    -0.000129    -0.000007     1.082392
	   10 R(7,11)         =      1.083203     0.000309     0.000066     1.083269
	   11 R(7,12)         =      1.083277     0.000012     0.000008     1.083285
	   12 R(8,13)         =      1.082264    -0.000357    -0.000057     1.082207
	   13 R(8,14)         =      1.084526     0.000189     0.000028     1.084555
	   14 R(8,15)         =      1.085052    -0.000107    -0.000006     1.085046
	   15 B(1,2,3)        =    106.548238    -0.000003    -0.013053   106.535185
	   16 B(1,2,4)        =    108.168543     0.000001     0.003298   108.171841
	   17 B(1,2,5)        =    108.040895    -0.000000    -0.000705   108.040190
	   18 B(2,3,6)        =    121.454767    -0.000001    -0.001574   121.453193
	   19 B(3,2,4)        =    112.660894    -0.000001    -0.003630   112.657264
	   20 B(3,2,5)        =    112.626235     0.000003     0.009529   112.635763
	   21 B(3,6,7)        =    115.372646     0.000001     0.013488   115.386134
	   22 B(3,6,8)        =    108.395099     0.000001     0.012443   108.407542
	   23 B(3,6,9)        =    105.293650    -0.000002    -0.021401   105.272249
	   24 B(4,2,5)        =    108.593711     0.000000     0.004158   108.597869
	   25 B(6,7,10)       =    111.806495    -0.000000     0.000955   111.807450
	   26 B(6,7,11)       =    108.572704     0.000003     0.010554   108.583259
	   27 B(6,7,12)       =    112.384522    -0.000001    -0.004751   112.379771
	   28 B(6,8,13)       =    110.053286     0.000001     0.003744   110.057030
	   29 B(6,8,14)       =    111.000518     0.000003     0.013381   111.013900
	   30 B(6,8,15)       =    110.654057    -0.000003    -0.009056   110.645002
	   31 B(7,6,8)        =    111.759476     0.000000     0.013944   111.773419
	   32 B(7,6,9)        =    106.728373     0.000000    -0.004899   106.723474
	   33 B(8,6,9)        =    108.934764    -0.000001    -0.018396   108.916367
	   34 B(10,7,11)      =    107.588073    -0.000001     0.001594   107.589667
	   35 B(10,7,12)      =    108.604859    -0.000000    -0.003818   108.601042
	   36 B(11,7,12)      =    107.692041    -0.000001    -0.004443   107.687598
	   37 B(13,8,14)      =    108.572095    -0.000002    -0.006070   108.566025
	   38 B(13,8,15)      =    108.145025     0.000000    -0.000428   108.144597
	   39 B(14,8,15)      =    108.333763    -0.000000    -0.001964   108.331800
	   40 D(1,2,3,6)      =   -178.226659    -0.000000    -0.014561  -178.241220
	   41 D(2,3,6,7)      =    -12.616595    -0.000000    -0.013059   -12.629654
	   42 D(2,3,6,8)      =    113.547342     0.000000     0.026237   113.573579
	   43 *D(2,3,6,9)     =   -130.000001    -0.000000     0.000000  -130.000001
	   44 D(3,6,7,10)     =    -57.551486     0.000000     0.060230   -57.491256
	   45 D(3,6,7,11)     =   -176.091909     0.000000     0.050954  -176.040956
	   46 D(3,6,7,12)     =     64.888464     0.000000     0.052450    64.940913
	   47 D(3,6,8,13)     =     52.703833    -0.000000    -0.039335    52.664499
	   48 D(3,6,8,14)     =    172.922371    -0.000000    -0.035821   172.886550
	   49 D(3,6,8,15)     =    -66.761060    -0.000000    -0.035470   -66.796530
	   50 D(4,2,3,6)      =     63.312840     0.000000    -0.008244    63.304596
	   51 D(5,2,3,6)      =    -59.941535    -0.000000    -0.018336   -59.959871
	   52 D(7,6,8,13)     =   -179.055624     0.000000    -0.001833  -179.057457
	   53 D(7,6,8,14)     =    -58.837086     0.000000     0.001680   -58.835405
	   54 D(7,6,8,15)     =     61.479483     0.000000     0.002031    61.481514
	   55 D(8,6,7,10)     =    178.021981    -0.000000     0.020407   178.042388
	   56 D(8,6,7,11)     =     59.481557    -0.000000     0.011131    59.492688
	   57 D(8,6,7,12)     =    -59.538069    -0.000000     0.012627   -59.525442
	   58 D(9,6,7,10)     =     59.023155     0.000000     0.037952    59.061107
	   59 D(9,6,7,11)     =    -59.517269    -0.000000     0.028676   -59.488593
	   60 D(9,6,7,12)     =   -178.536895    -0.000000     0.030172  -178.506724
	   61 D(9,6,8,13)     =    -61.372777     0.000000    -0.011147   -61.383925
	   62 D(9,6,8,14)     =     58.845761     0.000000    -0.007634    58.838127
	   63 D(9,6,8,15)     =    179.162329     0.000000    -0.007283   179.155046
	 ---------------------------------------------------------------------------
	Successfully symmetrized geometry.

  ==> Convergence Check <==

  Measures of convergence in internal coordinates in au.
  Criteria marked as inactive (o), active & met (*), and active & unmet ( ).
  ---------------------------------------------------------------------------------------------
   Step     Total Energy     Delta E     MAX Force     RMS Force      MAX Disp      RMS Disp   
  ---------------------------------------------------------------------------------------------
    Convergence Criteria    1.00e-06 *    3.00e-04 *             o    1.20e-03 *             o
  ---------------------------------------------------------------------------------------------
     11    -232.22212003   -1.54e-06      1.28e-04 *    2.55e-05 o    1.05e-03 *    3.24e-04 o  ~
  ---------------------------------------------------------------------------------------------


  **** Optimization is complete! (in 11 steps) ****

  ==> Optimization Summary <==

  Measures of convergence in internal coordinates in au.
  --------------------------------------------------------------------------------------------------------------- ~
   Step         Total Energy             Delta E       MAX Force       RMS Force        MAX Disp        RMS Disp  ~
  --------------------------------------------------------------------------------------------------------------- ~
      1    -232.219074760771   -232.219074760771      0.03139891      0.00613099      1.08300567      0.34883054  ~
      2    -231.496446598400      0.722628162372      0.11052746      0.04956670      0.15843471      0.06239930  ~
      3    -231.685540505534     -0.189093907135      0.11108111      0.04668837      0.29611573      0.11244596  ~
      4    -231.985630353693     -0.300089848159      0.10825155      0.03715722      0.33066152      0.11024735  ~
      5    -232.182445781225     -0.196815427532      0.07045718      0.01771118      0.22130221      0.05648281  ~
      6    -232.219487079237     -0.037041298012      0.02478352      0.00469496      0.08839568      0.02852412  ~
      7    -232.221926767896     -0.002439688659      0.00532268      0.00094030      0.08543743      0.02937530  ~
      8    -232.222064273841     -0.000137505945      0.00265466      0.00059288      0.04403561      0.01516508  ~
      9    -232.222116687744     -0.000052413903      0.00029720      0.00011424      0.01235870      0.00607917  ~
     10    -232.222118485958     -0.000001798214      0.00028741      0.00006299      0.00729727      0.00309603  ~
     11    -232.222120026570     -0.000001540612      0.00012818      0.00002546      0.00105121      0.00032357  ~
  --------------------------------------------------------------------------------------------------------------- ~

	Writing optimization data to binary file.
	Final energy is   -232.2221200265699
	Final (previous) structure:
	Cartesian Geometry (in Angstrom)
	    H    -1.9136733156  -1.8228637122   0.6920590952
	    C    -1.2798947180  -0.9655483913   0.8690076329
	    O    -0.7178410811  -0.6289425351  -0.3569287204
	    H    -1.8931316897  -0.1706152744   1.2800325010
	    H    -0.5342976641  -1.2451482778   1.6079332669
	    C     0.2010150789   0.4368200709  -0.4787234184
	    C     0.2964164868   1.3588191930   0.7319442276
	    C     1.5569302314  -0.1393037962  -0.8569598551
	    H    -0.1675542760   1.0398348639  -1.3023340077
	    H    -0.6619098369   1.7961665434   0.9807914306
	    H     0.9747305040   2.1695851703   0.4955608875
	    H     0.6825237366   0.8512648178   1.6076149241
	    H     1.4602823046  -0.7749567505  -1.7275340626
	    H     2.2654198320   0.6501909844  -1.0826546695
	    H     1.9588224547  -0.7367672964  -0.0452591763
	Saving final (previous) structure.
			--------------------------
			 OPTKING Finished Execution 
			--------------------------

    Final optimized geometry and variables:
    Molecular point group: c1
    Full point group: C1

    Geometry (in Angstrom), charge = 0, multiplicity = 1:

    H           -1.913673315581    -1.822863712196     0.692059095227
    C           -1.279894717969    -0.965548391304     0.869007632947
    O           -0.717841081118    -0.628942535113    -0.356928720432
    H           -1.893131689735    -0.170615274436     1.280032500956
    H           -0.534297664110    -1.245148277794     1.607933266888
    C            0.201015078855     0.436820070942    -0.478723418392
    C            0.296416486821     1.358819193024     0.731944227594
    C            1.556930231418    -0.139303796214    -0.856959855126
    H           -0.167554276025     1.039834863887    -1.302334007740
    H           -0.661909836898     1.796166543370     0.980791430600
    H            0.974730504005     2.169585170345     0.495560887522
    H            0.682523736563     0.851264817817     1.607614924113
    H            1.460282304631    -0.774956750523    -1.727534062603
    H            2.265419831966     0.650190984389    -1.082654669480
    H            1.958822454667    -0.736767296444    -0.045259176283

	Cleaning optimization helper files.


Properties will be evaluated at   0.000000,   0.000000,   0.000000 Bohr

Properties computed using the  density matrix

  Nuclear Dipole Moment: (a.u.)
     X:     2.0320      Y:     1.6438      Z:     2.3478

  Electronic Dipole Moment: (a.u.)
     X:    -1.8963      Y:    -1.3308      Z:    -1.9344

  Dipole Moment: (a.u.)
     X:     0.1357      Y:     0.3130      Z:     0.4134     Total:     0.5360

  Dipole Moment: (Debye)
     X:     0.3450      Y:     0.7956      Z:     1.0507     Total:     1.3623

  Quadrupole Moment: (Debye Ang)
    XX:   -33.0283     YY:   -32.8914     ZZ:   -33.0751
    XY:     0.2859     XZ:    -1.5209     YZ:    -1.6532

  Traceless Quadrupole Moment: (Debye Ang)
    XX:    -0.0300     YY:     0.1069     ZZ:    -0.0768
    XY:     0.2859     XZ:    -1.5209     YZ:    -1.6532

  Mulliken Charges: (a.u.)
   Center  Symbol    Alpha    Beta     Spin     Total
       1     H     0.44196  0.44196  0.00000  0.11608
       2     C     3.03708  3.03708  0.00000 -0.07417
       3     O     4.18976  4.18976  0.00000 -0.37951
       4     H     0.46886  0.46886  0.00000  0.06229
       5     H     0.47134  0.47134  0.00000  0.05732
       6     C     2.92522  2.92522  0.00000  0.14956
       7     C     3.17219  3.17219  0.00000 -0.34438
       8     C     3.13977  3.13977  0.00000 -0.27954
       9     H     0.45277  0.45277  0.00000  0.09446
      10     H     0.44463  0.44463  0.00000  0.11074
      11     H     0.44358  0.44358  0.00000  0.11284
      12     H     0.45069  0.45069  0.00000  0.09862
      13     H     0.44604  0.44604  0.00000  0.10793
      14     H     0.45830  0.45830  0.00000  0.08341
      15     H     0.45782  0.45782  0.00000  0.08437

   Total alpha = 21.00000, Total beta = 21.00000, Total charge =  0.00000


*** Psi4 exiting successfully. Buy a developer a beer!
