    -----------------------------------------------------------------------
          Psi4: An Open-Source Ab Initio Electronic Structure Package
                              Psi4 (no tag) Driver

                          Git: Rev {detached?}  

    J. M. Turney, A. C. Simmonett, R. M. Parrish, E. G. Hohenstein,
    F. A. Evangelista, J. T. Fermann, B. J. Mintz, L. A. Burns, J. J. Wilke,
    M. L. Abrams, N. J. Russ, M. L. Leininger, C. L. Janssen, E. T. Seidl,
    W. D. Allen, H. F. Schaefer, R. A. King, E. F. Valeev, C. D. Sherrill,
    and T. D. Crawford, WIREs Comput. Mol. Sci. 2, 556-565 (2012)
    (doi: 10.1002/wcms.93)

                         Additional Contributions by
    A. E. DePrince, M. Saitow, U. Bozkaya, A. Yu. Sokolov
    -----------------------------------------------------------------------


    Psi4 started on: Fri Sep  9 20:21:57 2016

    Process ID:  36010
    PSI4DATADIR: /export131/home/mjharvey/miniconda3/share
    Memory level set to 256.000 MB

  ==> Input File <==

--------------------------------------------------------------------------
set {
	reference rhf
	basis cc-pvtz
}


set_num_threads( 4 )
memory 2 gb

molecule MOL {
0 1

H	 1.759000	 -0.724000	 -0.875000
C	 1.173000	 -0.465000	 0.000000
H	 1.758000	 -0.723000	 0.876000
O	 -0.000000	 -1.235000	 -0.000000
C	 0.770000	 1.020000	 -0.000000
C	 -1.173000	 -0.465000	 -0.000000
H	 1.164000	 1.529000	 -0.872000
H	 1.165000	 1.530000	 0.870000
C	 -0.770000	 1.020000	 0.000000
H	 -1.759000	 -0.723000	 -0.876000
H	 -1.759000	 -0.724000	 0.876000
H	 -1.164000	 1.530000	 0.872000
H	 -1.164000	 1.530000	 -0.871000

	symmetry c1
}
ee = optimize('scf')
oeprop('DIPOLE', 'QUADRUPOLE', 'MULLIKEN_CHARGES')
f=open( 'psi4out.xyz', 'w' )
f.write( "13  " )
f.write( str(ee) + "\n" )
f.write( MOL.save_string_xyz() )
f.close()
--------------------------------------------------------------------------

  Memory set to   2.000 GiB by Python script.
gradient() will perform analytic gradient computation.

*** tstart() called on cx1-27-3-4
*** at Fri Sep  9 20:21:58 2016


         ---------------------------------------------------------
                                   SCF
            by Justin Turney, Rob Parrish, and Andy Simmonett
                              RHF Reference
                        4 Threads,   2000 MiB Core
         ---------------------------------------------------------

  ==> Geometry <==

    Molecular point group: c1
    Full point group: C1

    Geometry (in Angstrom), charge = 0, multiplicity = 1:

       Center              X                  Y                   Z               Mass       
    ------------   -----------------  -----------------  -----------------  -----------------
           H          1.759000000000    -0.679820238428    -0.875000000000     1.007825032070
           C          1.173000000000    -0.420820238428    -0.000000000000    12.000000000000
           H          1.758000000000    -0.678820238428     0.876000000000     1.007825032070
           O         -0.000000000000    -1.190820238428    -0.000000000000    15.994914619560
           C          0.770000000000     1.064179761572    -0.000000000000    12.000000000000
           C         -1.173000000000    -0.420820238428    -0.000000000000    12.000000000000
           H          1.164000000000     1.573179761572    -0.872000000000     1.007825032070
           H          1.165000000000     1.574179761572     0.870000000000     1.007825032070
           C         -0.770000000000     1.064179761572    -0.000000000000    12.000000000000
           H         -1.759000000000    -0.678820238428    -0.876000000000     1.007825032070
           H         -1.759000000000    -0.679820238428     0.876000000000     1.007825032070
           H         -1.164000000000     1.574179761572     0.872000000000     1.007825032070
           H         -1.164000000000     1.574179761572    -0.871000000000     1.007825032070

  Running in c1 symmetry.

  Rotational constants: A =      0.23631  B =      0.23378  C =      0.12854 [cm^-1]
  Rotational constants: A =   7084.32022  B =   7008.44475  C =   3853.61778 [MHz]
  Nuclear repulsion =  190.422902206755055

  Charge       = 0
  Multiplicity = 1
  Electrons    = 40
  Nalpha       = 20
  Nbeta        = 20

  ==> Algorithm <==

  SCF Algorithm Type is DF.
  DIIS enabled.
  MOM disabled.
  Fractional occupation disabled.
  Guess Type is CORE.
  Energy threshold   = 1.00e-08
  Density threshold  = 1.00e-08
  Integral threshold = 0.00e+00

  ==> Primary Basis <==

  Basis Set: CC-PVTZ
    Number of shells: 98
    Number of basis function: 262
    Number of Cartesian functions: 295
    Spherical Harmonics?: true
    Max angular momentum: 3

  ==> Pre-Iterations <==

   -------------------------------------------------------
    Irrep   Nso     Nmo     Nalpha   Nbeta   Ndocc  Nsocc
   -------------------------------------------------------
     A        262     262       0       0       0       0
   -------------------------------------------------------
    Total     262     262      20      20      20       0
   -------------------------------------------------------

 OEINTS: Overlap, kinetic, potential, dipole, and quadrupole integrals
         stored in file 35.

  ==> Integral Setup <==

  ==> DFJK: Density-Fitted J/K Matrices <==

    J tasked:                  Yes
    K tasked:                  Yes
    wK tasked:                  No
    OpenMP threads:              4
    Integrals threads:           4
    Memory (MB):              1430
    Algorithm:                Core
    Integral Cache:           NONE
    Schwarz Cutoff:          1E-12
    Fitting Condition:       1E-12

   => Auxiliary Basis Set <=

  Basis Set: 
    Number of shells: 205
    Number of basis function: 635
    Number of Cartesian functions: 760
    Spherical Harmonics?: true
    Max angular momentum: 4

  Minimum eigenvalue in the overlap matrix is 2.2046256831E-04.
  Using Symmetric Orthogonalization.
  SCF Guess: Core (One-Electron) Hamiltonian.

  ==> Iterations <==

                           Total Energy        Delta E     RMS |[F,P]|

   @DF-RHF iter   1:  -175.97921264214307   -1.75979e+02   4.39806e-02 
   @DF-RHF iter   2:  -173.70153441360884    2.27768e+00   2.16869e-02 DIIS
   @DF-RHF iter   3:  -192.61345943600526   -1.89119e+01   3.13905e-02 DIIS
   @DF-RHF iter   4:  -216.35005117649592   -2.37366e+01   1.91409e-02 DIIS
   @DF-RHF iter   5:  -227.85799142640928   -1.15079e+01   9.47703e-03 DIIS
   @DF-RHF iter   6:  -230.19548030404297   -2.33749e+00   4.70293e-03 DIIS
   @DF-RHF iter   7:  -230.95359379485393   -7.58113e-01   1.53435e-03 DIIS
   @DF-RHF iter   8:  -231.04913391985957   -9.55401e-02   3.37530e-04 DIIS
   @DF-RHF iter   9:  -231.05426178717590   -5.12787e-03   1.34997e-04 DIIS
   @DF-RHF iter  10:  -231.05504283928980   -7.81052e-04   3.70812e-05 DIIS
   @DF-RHF iter  11:  -231.05510883451467   -6.59952e-05   1.01312e-05 DIIS
   @DF-RHF iter  12:  -231.05511415220684   -5.31769e-06   3.62052e-06 DIIS
   @DF-RHF iter  13:  -231.05511472181189   -5.69605e-07   5.49306e-07 DIIS
   @DF-RHF iter  14:  -231.05511474399697   -2.21851e-08   1.57779e-07 DIIS
   @DF-RHF iter  15:  -231.05511474559358   -1.59662e-09   5.24061e-08 DIIS
   @DF-RHF iter  16:  -231.05511474577179   -1.78204e-10   1.21546e-08 DIIS
   @DF-RHF iter  17:  -231.05511474578412   -1.23350e-11   2.47382e-09 DIIS

  ==> Post-Iterations <==

    Orbital Energies (a.u.)
    -----------------------

    Doubly Occupied:                                                      

       1A    -20.537845     2A    -11.263462     3A    -11.263279  
       4A    -11.222018     5A    -11.221422     6A     -1.374668  
       7A     -1.051954     8A     -0.996564     9A     -0.811181  
      10A     -0.810395    11A     -0.684356    12A     -0.670457  
      13A     -0.590695    14A     -0.587939    15A     -0.582025  
      16A     -0.499719    17A     -0.486586    18A     -0.465818  
      19A     -0.464391    20A     -0.401161  

    Virtual:                                                              

      21A      0.132793    22A      0.172565    23A      0.176182  
      24A      0.184927    25A      0.208407    26A      0.211715  
      27A      0.244799    28A      0.272024    29A      0.279900  
      30A      0.289623    31A      0.319455    32A      0.378037  
      33A      0.379997    34A      0.380743    35A      0.426049  
      36A      0.435239    37A      0.438265    38A      0.538438  
      39A      0.540389    40A      0.542720    41A      0.575277  
      42A      0.580910    43A      0.588382    44A      0.597181  
      45A      0.619388    46A      0.638204    47A      0.649427  
      48A      0.653072    49A      0.659218    50A      0.665258  
      51A      0.684662    52A      0.686478    53A      0.707722  
      54A      0.708426    55A      0.711724    56A      0.799560  
      57A      0.868356    58A      0.898456    59A      0.941100  
      60A      0.948052    61A      1.005054    62A      1.015335  
      63A      1.019634    64A      1.070127    65A      1.110110  
      66A      1.113276    67A      1.204869    68A      1.213352  
      69A      1.215643    70A      1.216269    71A      1.229917  
      72A      1.248419    73A      1.286404    74A      1.292300  
      75A      1.296337    76A      1.299993    77A      1.307271  
      78A      1.313186    79A      1.323755    80A      1.335106  
      81A      1.340582    82A      1.346034    83A      1.394895  
      84A      1.406186    85A      1.436806    86A      1.437963  
      87A      1.448445    88A      1.510548    89A      1.541626  
      90A      1.548879    91A      1.568774    92A      1.602936  
      93A      1.623730    94A      1.625515    95A      1.701202  
      96A      1.706265    97A      1.718918    98A      1.721889  
      99A      1.728842   100A      1.794526   101A      1.813857  
     102A      1.845532   103A      1.874610   104A      1.958414  
     105A      1.993093   106A      2.202632   107A      2.212349  
     108A      2.286984   109A      2.382292   110A      2.451005  
     111A      2.485594   112A      2.503788   113A      2.566221  
     114A      2.717973   115A      2.742868   116A      2.743649  
     117A      2.755964   118A      2.778045   119A      2.817404  
     120A      2.835279   121A      2.844878   122A      2.898155  
     123A      2.901244   124A      2.979271   125A      2.983841  
     126A      3.001368   127A      3.005612   128A      3.021547  
     129A      3.029610   130A      3.048799   131A      3.054631  
     132A      3.186788   133A      3.209561   134A      3.257296  
     135A      3.277429   136A      3.278433   137A      3.292081  
     138A      3.294499   139A      3.316087   140A      3.317983  
     141A      3.321544   142A      3.384054   143A      3.396889  
     144A      3.402678   145A      3.439501   146A      3.446752  
     147A      3.455790   148A      3.460677   149A      3.489488  
     150A      3.499346   151A      3.501726   152A      3.502445  
     153A      3.558835   154A      3.575844   155A      3.626072  
     156A      3.659931   157A      3.669143   158A      3.684778  
     159A      3.712565   160A      3.751544   161A      3.785427  
     162A      3.802777   163A      3.815644   164A      3.859531  
     165A      3.873593   166A      3.881541   167A      3.887021  
     168A      3.909123   169A      3.925968   170A      3.933196  
     171A      3.936730   172A      3.976514   173A      4.008904  
     174A      4.021518   175A      4.052486   176A      4.062316  
     177A      4.085925   178A      4.113265   179A      4.116567  
     180A      4.188631   181A      4.205004   182A      4.235993  
     183A      4.250719   184A      4.259069   185A      4.260366  
     186A      4.260816   187A      4.311377   188A      4.312206  
     189A      4.331488   190A      4.356607   191A      4.405215  
     192A      4.411038   193A      4.470354   194A      4.470528  
     195A      4.473907   196A      4.514845   197A      4.575056  
     198A      4.592962   199A      4.595962   200A      4.601426  
     201A      4.618019   202A      4.687607   203A      4.707570  
     204A      4.729828   205A      4.734517   206A      4.741739  
     207A      4.832894   208A      4.849822   209A      4.918209  
     210A      4.924343   211A      4.955553   212A      4.961063  
     213A      5.012563   214A      5.022055   215A      5.059747  
     216A      5.135906   217A      5.159432   218A      5.241882  
     219A      5.280977   220A      5.284418   221A      5.327372  
     222A      5.327721   223A      5.361835   224A      5.429050  
     225A      5.454830   226A      5.470646   227A      5.484671  
     228A      5.485509   229A      5.563506   230A      5.563742  
     231A      5.569774   232A      5.621914   233A      5.633569  
     234A      5.708737   235A      5.744868   236A      5.780126  
     237A      5.921870   238A      5.964337   239A      5.994213  
     240A      6.017994   241A      6.073336   242A      6.118636  
     243A      6.167916   244A      6.173487   245A      6.249999  
     246A      6.330163   247A      6.478726   248A      6.543640  
     249A      6.594077   250A      6.682583   251A      6.779930  
     252A      6.977579   253A      7.291554   254A      7.330634  
     255A      7.711035   256A      7.798269   257A      7.892055  
     258A     11.133977   259A     11.817597   260A     12.587960  
     261A     13.509882   262A     14.203161  

    Final Occupation by Irrep:
              A 
    DOCC [    20 ]

  Energy converged.

  @DF-RHF Final Energy:  -231.05511474578412

   => Energetics <=

    Nuclear Repulsion Energy =            190.4229022067550545
    One-Electron Energy =                -690.9841604311711762
    Two-Electron Energy =                 269.5061434786319978
    DFT Exchange-Correlation Energy =       0.0000000000000000
    Empirical Dispersion Energy =           0.0000000000000000
    PCM Polarization Energy =               0.0000000000000000
    EFP Energy =                            0.0000000000000000
    Total Energy =                       -231.0551147457841239

    Alert: EFP and PCM quantities not currently incorporated into SCF psivars.

Properties will be evaluated at   0.000000,   0.000000,   0.000000 Bohr
  ==> Properties <==


Properties computed using the SCF density matrix

  Nuclear Dipole Moment: (a.u.)
     X:     0.0000      Y:     3.3490      Z:     0.0000

  Electronic Dipole Moment: (a.u.)
     X:     0.0007      Y:    -2.6440      Z:    -0.0002

  Dipole Moment: (a.u.)
     X:     0.0007      Y:     0.7049      Z:    -0.0002     Total:     0.7049

  Dipole Moment: (Debye)
     X:     0.0017      Y:     1.7917      Z:    -0.0004     Total:     1.7917


  Saving occupied orbitals to File 180.

*** tstop() called on cx1-27-3-4 at Fri Sep  9 20:22:05 2016
Module time:
	user time   =      23.85 seconds =       0.40 minutes
	system time =       0.35 seconds =       0.01 minutes
	total time  =          7 seconds =       0.12 minutes
Total time:
	user time   =      23.85 seconds =       0.40 minutes
	system time =       0.35 seconds =       0.01 minutes
	total time  =          7 seconds =       0.12 minutes

*** tstart() called on cx1-27-3-4
*** at Fri Sep  9 20:22:05 2016


         ------------------------------------------------------------
                                   SCF GRAD                          
                          Rob Parrish, Justin Turney,                
                       Andy Simmonett, and Alex Sokolov              
         ------------------------------------------------------------

  ==> Geometry <==

    Molecular point group: c1
    Full point group: C1

    Geometry (in Angstrom), charge = 0, multiplicity = 1:

       Center              X                  Y                   Z               Mass       
    ------------   -----------------  -----------------  -----------------  -----------------
           H          1.759000000000    -0.679820238428    -0.875000000000     1.007825032070
           C          1.173000000000    -0.420820238428    -0.000000000000    12.000000000000
           H          1.758000000000    -0.678820238428     0.876000000000     1.007825032070
           O         -0.000000000000    -1.190820238428    -0.000000000000    15.994914619560
           C          0.770000000000     1.064179761572    -0.000000000000    12.000000000000
           C         -1.173000000000    -0.420820238428    -0.000000000000    12.000000000000
           H          1.164000000000     1.573179761572    -0.872000000000     1.007825032070
           H          1.165000000000     1.574179761572     0.870000000000     1.007825032070
           C         -0.770000000000     1.064179761572    -0.000000000000    12.000000000000
           H         -1.759000000000    -0.678820238428    -0.876000000000     1.007825032070
           H         -1.759000000000    -0.679820238428     0.876000000000     1.007825032070
           H         -1.164000000000     1.574179761572     0.872000000000     1.007825032070
           H         -1.164000000000     1.574179761572    -0.871000000000     1.007825032070

  Nuclear repulsion =  190.422902206755055

  ==> Basis Set <==

  Basis Set: CC-PVTZ
    Number of shells: 98
    Number of basis function: 262
    Number of Cartesian functions: 295
    Spherical Harmonics?: true
    Max angular momentum: 3

  ==> DFJKGrad: Density-Fitted SCF Gradients <==

    Gradient:                    1
    J tasked:                  Yes
    K tasked:                  Yes
    wK tasked:                  No
    OpenMP threads:              4
    Integrals threads:           4
    Memory (MB):              1430
    Schwarz Cutoff:          0E+00
    Fitting Condition:       1E-12

   => Auxiliary Basis Set <=

  Basis Set: 
    Number of shells: 205
    Number of basis function: 635
    Number of Cartesian functions: 760
    Spherical Harmonics?: true
    Max angular momentum: 4


  -Total Gradient:
     Atom            X                  Y                   Z
    ------   -----------------  -----------------  -----------------
       1        0.000209403132    -0.000568952127    -0.000317279153
       2        0.001530300889    -0.000079485420    -0.000207956147
       3        0.000159875147    -0.000487679383     0.000354666557
       4        0.000079625692    -0.001777020202     0.000071789088
       5       -0.000942334913     0.000339356071     0.000655294782
       6       -0.001078830447     0.000081530266    -0.000102339527
       7        0.000697014508     0.000936246601    -0.001246073478
       8        0.000573449499     0.000770412814     0.000803916062
       9        0.000974859486    -0.000025257296    -0.000569676756
      10       -0.000410603718    -0.000543002490    -0.000643562719
      11       -0.000467991625    -0.000687849445     0.000775003751
      12       -0.000750411173     0.001134839211     0.001526581052
      13       -0.000574356477     0.000906861404    -0.001100363513


*** tstop() called on cx1-27-3-4 at Fri Sep  9 20:22:17 2016
Module time:
	user time   =      44.73 seconds =       0.75 minutes
	system time =       0.40 seconds =       0.01 minutes
	total time  =         12 seconds =       0.20 minutes
Total time:
	user time   =      68.60 seconds =       1.14 minutes
	system time =       0.75 seconds =       0.01 minutes
	total time  =         19 seconds =       0.32 minutes
CURRENT ENERGY: -231.0551147458

			-----------------------------------------
			 OPTKING 2.0: for geometry optimizations 
			  - R.A. King,  Bethel University        
			-----------------------------------------

	Internal coordinates to be generated automatically.
	Detected frag with atoms:  1 2 3 4 5 6 7 8 9 10 11 12 13
	---Fragment 1 Bond Connectivity---
	 1 : 2
	 2 : 1 3 4 5
	 3 : 2
	 4 : 2 6
	 5 : 2 7 8 9
	 6 : 4 9 10 11
	 7 : 5
	 8 : 5
	 9 : 5 6 12 13
	 10 : 6
	 11 : 6
	 12 : 9
	 13 : 9

	---Fragment 1 Geometry and Gradient---
	 H           3.3240282677       -1.2846740702       -1.6535103663
	 C           2.2166487539       -0.7952350018       -0.0000000000
	 H           3.3221385416       -1.2827843441        1.6554000924
	 O          -0.0000000000       -2.2503241241       -0.0000000000
	 C           1.4550891223        2.0110083055       -0.0000000000
	 C          -2.2166487539       -0.7952350018       -0.0000000000
	 H           2.1996412187        2.9728789072       -1.6478411879
	 H           2.2015309448        2.9747686333        1.6440617356
	 C          -1.4550891223        2.0110083055       -0.0000000000
	 H          -3.3240282677       -1.2827843441       -1.6554000924
	 H          -3.3240282677       -1.2846740702        1.6554000924
	 H          -2.1996412187        2.9747686333        1.6478411879
	 H          -2.1996412187        2.9747686333       -1.6459514617
	             0.0002094031       -0.0005689521       -0.0003172792
	             0.0015303009       -0.0000794854       -0.0002079561
	             0.0001598751       -0.0004876794        0.0003546666
	             0.0000796257       -0.0017770202        0.0000717891
	            -0.0009423349        0.0003393561        0.0006552948
	            -0.0010788304        0.0000815303       -0.0001023395
	             0.0006970145        0.0009362466       -0.0012460735
	             0.0005734495        0.0007704128        0.0008039161
	             0.0009748595       -0.0000252573       -0.0005696768
	            -0.0004106037       -0.0005430025       -0.0006435627
	            -0.0004679916       -0.0006878494        0.0007750038
	            -0.0007504112        0.0011348392        0.0015265811
	            -0.0005743565        0.0009068614       -0.0011003635

	Previous optimization step data not found.  Starting new optimization.

	---Fragment 1 Intrafragment Coordinates---
	 - Coordinate -           - BOHR/RAD -       - ANG/DEG -
	 R(1,2)           =         2.049375	       1.084482
	 R(2,3)           =         2.049430	       1.084511
	 R(2,4)           =         2.651569	       1.403150
	 R(2,5)           =         2.907744	       1.538712
	 R(4,6)           =         2.651569	       1.403150
	 R(5,7)           =         2.048154	       1.083836
	 R(5,8)           =         2.046692	       1.083063
	 R(5,9)           =         2.910178	       1.540000
	 R(6,9)           =         2.907744	       1.538712
	 R(6,10)          =         2.050450	       1.085051
	 R(6,11)          =         2.050900	       1.085289
	 R(9,12)          =         2.049042	       1.084306
	 R(9,13)          =         2.047522	       1.083502
	 B(1,2,3)         =         1.879081	     107.663418
	 B(1,2,4)         =         1.897224	     108.702945
	 B(1,2,5)         =         1.951968	     111.839550
	 B(2,4,6)         =         1.979819	     113.435288
	 B(2,5,7)         =         1.936948	     110.978974
	 B(2,5,8)         =         1.937918	     111.034514
	 B(2,5,9)         =         1.835794	     105.183270
	 B(3,2,4)         =         1.896936	     108.686406
	 B(3,2,5)         =         1.950739	     111.769116
	 B(4,2,5)         =         1.886685	     108.099085
	 B(4,6,9)         =         1.886685	     108.099085
	 B(4,6,10)        =         1.897581	     108.723371
	 B(4,6,11)        =         1.896973	     108.688522
	 B(5,9,6)         =         1.835794	     105.183270
	 B(5,9,12)        =         1.942675	     111.307057
	 B(5,9,13)        =         1.942964	     111.323641
	 B(6,9,12)        =         1.937736	     111.024075
	 B(6,9,13)        =         1.938021	     111.040418
	 B(7,5,8)         =         1.867695	     107.011013
	 B(7,5,9)         =         1.942844	     111.316748
	 B(8,5,9)         =         1.944114	     111.389519
	 B(9,6,10)        =         1.950800	     111.772626
	 B(9,6,11)        =         1.951670	     111.822476
	 B(10,6,11)       =         1.878945	     107.655590
	 B(12,9,13)       =         1.868111	     107.034867
	 D(1,2,4,6)       =        -2.122147	    -121.590063
	 D(1,2,5,7)       =        -0.015078	      -0.863884
	 D(1,2,5,8)       =        -2.090122	    -119.755190
	 D(1,2,5,9)       =         2.087968	     119.631738
	 D(2,4,6,9)       =         0.000000	       0.000000
	 D(2,4,6,10)      =         2.120944	     121.521152
	 D(2,4,6,11)      =        -2.121637	    -121.560868
	 D(2,5,9,6)       =         0.000000	       0.000000
	 D(2,5,9,12)      =         2.100011	     120.321759
	 D(2,5,9,13)      =        -2.100511	    -120.350418
	 D(3,2,4,6)       =         2.120489	     121.495063
	 D(3,2,5,7)       =         2.093270	     119.935538
	 D(3,2,5,8)       =         0.018225	       1.044232
	 D(3,2,5,9)       =        -2.086870	    -119.568840
	 D(4,2,5,7)       =        -2.103045	    -120.495622
	 D(4,2,5,8)       =         2.105095	     120.613072
	 D(4,2,5,9)       =         0.000000	       0.000000
	 D(4,6,9,5)       =         0.000000	       0.000000
	 D(4,6,9,12)      =        -2.103268	    -120.508397
	 D(4,6,9,13)      =         2.103770	     120.537161
	 D(5,2,4,6)       =         0.000000	       0.000000
	 D(5,9,6,10)      =        -2.087703	    -119.616569
	 D(5,9,6,11)      =         2.087477	     119.603621
	 D(6,9,5,7)       =         2.099156	     120.272776
	 D(6,9,5,8)       =        -2.101012	    -120.379126
	 D(7,5,9,12)      =        -2.084019	    -119.405465
	 D(7,5,9,13)      =        -0.001355	      -0.077642
	 D(8,5,9,12)      =        -0.001001	      -0.057367
	 D(8,5,9,13)      =         2.081662	     119.270456
	 D(10,6,9,12)     =         2.092214	     119.875033
	 D(10,6,9,13)     =         0.016067	       0.920591
	 D(11,6,9,12)     =        -0.015791	      -0.904777
	 D(11,6,9,13)     =        -2.091938	    -119.859219

	Current energy   :      -231.0551147458

	Generating empirical Hessian (Schlegel '84) for each fragment.
	Taking RFO optimization step.
	Going to follow RFO solution 1.
	Using RFO vector 1.
	Norm of target step-size    0.02086
	Projected energy change by RFO approximation:        -0.0000837314

	Back-transformation to cartesian coordinates...
	Successfully converged to displaced geometry.

	--- Internal Coordinate Step in ANG or DEG, aJ/ANG or AJ/DEG ---
	 ---------------------------------------------------------------------------
	   Coordinate                Previous        Force       Change         New 
	   ----------                --------       ------       ------       ------
	    1 R(1,2)          =      1.084482    -0.004161    -0.000753     1.083729
	    2 R(2,3)          =      1.084511    -0.004027    -0.000729     1.083782
	    3 R(2,4)          =      1.403150    -0.011536    -0.001738     1.401412
	    4 R(2,5)          =      1.538712    -0.017750    -0.003922     1.534790
	    5 R(4,6)          =      1.403150    -0.012172    -0.001835     1.401314
	    6 R(5,7)          =      1.083836    -0.013970    -0.002524     1.081312
	    7 R(5,8)          =      1.083063    -0.010032    -0.001808     1.081255
	    8 R(5,9)          =      1.540000    -0.009307    -0.001909     1.538092
	    9 R(6,9)          =      1.538712    -0.017963    -0.003989     1.534723
	   10 R(6,10)         =      1.085051    -0.007171    -0.001301     1.083750
	   11 R(6,11)         =      1.085289    -0.008588    -0.001559     1.083730
	   12 R(9,12)         =      1.084306    -0.016759    -0.003033     1.081273
	   13 R(9,13)         =      1.083502    -0.012525    -0.002261     1.081241
	   14 B(1,2,3)        =    107.663418     0.000016     0.053472   107.716890
	   15 B(1,2,4)        =    108.702945     0.000019     0.141264   108.844208
	   16 B(1,2,5)        =    111.839550    -0.000031    -0.227063   111.612486
	   17 B(2,4,6)        =    113.435288    -0.000002    -0.048555   113.386733
	   18 B(2,5,7)        =    110.978974    -0.000001    -0.012290   110.966684
	   19 B(2,5,8)        =    111.034514    -0.000004    -0.078605   110.955909
	   20 B(2,5,9)        =    105.183270    -0.000002     0.005471   105.188742
	   21 B(3,2,4)        =    108.686406     0.000018     0.177055   108.863461
	   22 B(3,2,5)        =    111.769116    -0.000022    -0.142458   111.626658
	   23 B(4,2,5)        =    108.099085     0.000002     0.015482   108.114568
	   24 B(4,6,9)        =    108.099085     0.000005     0.019809   108.118895
	   25 B(4,6,10)       =    108.723371     0.000014     0.130548   108.853919
	   26 B(4,6,11)       =    108.688522     0.000019     0.167294   108.855816
	   27 B(5,9,6)        =    105.183270    -0.000003     0.007695   105.190965
	   28 B(5,9,12)       =    111.307057     0.000004     0.022476   111.329533
	   29 B(5,9,13)       =    111.323641     0.000001     0.001356   111.324997
	   30 B(6,9,12)       =    111.024075    -0.000005    -0.062021   110.962055
	   31 B(6,9,13)       =    111.040418    -0.000006    -0.082423   110.957994
	   32 B(7,5,8)        =    107.011013     0.000010     0.136259   107.147272
	   33 B(7,5,9)        =    111.316748     0.000001     0.005732   111.322480
	   34 B(8,5,9)        =    111.389519    -0.000003    -0.063231   111.326288
	   35 B(9,6,10)       =    111.772626    -0.000022    -0.149805   111.622821
	   36 B(9,6,11)       =    111.822476    -0.000029    -0.202044   111.620432
	   37 B(10,6,11)      =    107.655590     0.000015     0.050805   107.706395
	   38 B(12,9,13)      =    107.034867     0.000008     0.107161   107.142027
	   39 D(1,2,4,6)      =   -121.590063     0.000005     0.117183  -121.472880
	   40 D(1,2,5,7)      =     -0.863884     0.000003     0.141081    -0.722804
	   41 D(1,2,5,8)      =   -119.755190     0.000001     0.029452  -119.725738
	   42 D(1,2,5,9)      =    119.631738     0.000002     0.144620   119.776358
	   43 D(2,4,6,9)      =      0.000000     0.000000     0.003399     0.003399
	   44 D(2,4,6,10)     =    121.521152    -0.000003    -0.088860   121.432292
	   45 D(2,4,6,11)     =   -121.560868     0.000005     0.137143  -121.423725
	   46 D(2,5,9,6)      =      0.000000    -0.000001    -0.092162    -0.092162
	   47 D(2,5,9,12)     =    120.321759    -0.000002    -0.149865   120.171894
	   48 D(2,5,9,13)     =   -120.350418     0.000001     0.001542  -120.348876
	   49 D(3,2,4,6)      =    121.495063    -0.000004    -0.123315   121.371748
	   50 D(3,2,5,7)      =    119.935538    -0.000001    -0.048772   119.886766
	   51 D(3,2,5,8)      =      1.044232    -0.000003    -0.160401     0.883831
	   52 D(3,2,5,9)      =   -119.568840    -0.000002    -0.045233  -119.614073
	   53 D(4,2,5,7)      =   -120.495622     0.000001     0.093742  -120.401880
	   54 D(4,2,5,8)      =    120.613072    -0.000001    -0.017886   120.595185
	   55 D(4,2,5,9)      =      0.000000     0.000001     0.097281     0.097281
	   56 D(4,6,9,5)      =      0.000000     0.000000     0.058454     0.058454
	   57 D(4,6,9,12)     =   -120.508397     0.000000     0.060387  -120.448011
	   58 D(4,6,9,13)     =    120.537161    -0.000000     0.020119   120.557279
	   59 D(5,2,4,6)      =      0.000000    -0.000001    -0.064847    -0.064847
	   60 D(5,9,6,10)     =   -119.616569    -0.000001    -0.025034  -119.641604
	   61 D(5,9,6,11)     =    119.603621     0.000002     0.155790   119.759411
	   62 D(6,9,5,7)      =    120.272776    -0.000001    -0.100495   120.172281
	   63 D(6,9,5,8)      =   -120.379126     0.000001     0.033415  -120.345711
	   64 D(7,5,9,12)     =   -119.405465    -0.000002    -0.158198  -119.563663
	   65 D(7,5,9,13)     =     -0.077642     0.000001    -0.006791    -0.084433
	   66 D(8,5,9,12)     =     -0.057367     0.000000    -0.024288    -0.081655
	   67 D(8,5,9,13)     =    119.270456     0.000003     0.127119   119.397575
	   68 D(10,6,9,12)    =    119.875033    -0.000002    -0.023101   119.851932
	   69 D(10,6,9,13)    =      0.920591    -0.000002    -0.063369     0.857222
	   70 D(11,6,9,12)    =     -0.904777     0.000002     0.157723    -0.747054
	   71 D(11,6,9,13)    =   -119.859219     0.000002     0.117455  -119.741764
	 ---------------------------------------------------------------------------

  ==> Convergence Check <==

  Measures of convergence in internal coordinates in au.
  Criteria marked as inactive (o), active & met (*), and active & unmet ( ).
  --------------------------------------------------------------------------------------------- ~
   Step     Total Energy     Delta E     MAX Force     RMS Force      MAX Disp      RMS Disp    ~
  --------------------------------------------------------------------------------------------- ~
    Convergence Criteria    1.00e-06 *    3.00e-04 *             o    1.20e-03 *             o  ~
  --------------------------------------------------------------------------------------------- ~
      1    -231.05511475   -2.31e+02      2.18e-03      6.43e-04 o    7.54e-03      2.48e-03 o  ~
  ---------------------------------------------------------------------------------------------

	Writing optimization data to binary file.
	Structure for next step:
	Cartesian Geometry (in Angstrom)
	    H     1.7579482726  -0.6747705818  -0.8742183721
	    C     1.1711450196  -0.4197338767   0.0004739618
	    H     1.7568851139  -0.6739556766   0.8761815383
	    O    -0.0001767099  -1.1891235135  -0.0001689840
	    C     0.7691392202   1.0614715664  -0.0006955120
	    C    -1.1712160689  -0.4194813411  -0.0001926625
	    H     1.1617220136   1.5682505571  -0.8714936367
	    H     1.1630428798   1.5697648976   0.8685510055
	    C    -0.7689518825   1.0615851643   0.0004311815
	    H    -1.7573871859  -0.6737303068  -0.8755640839
	    H    -1.7578277080  -0.6742966963   0.8746939894
	    H    -1.1615698901   1.5686943276   0.8709730566
	    H    -1.1627530745   1.5696626608  -0.8689714821
			--------------------------
			 OPTKING Finished Execution 
			--------------------------

    Structure for next step:
    Molecular point group: c1
    Full point group: C1

    Geometry (in Angstrom), charge = 0, multiplicity = 1:

    H            1.757967152394    -0.674684472611    -0.874185747317
    C            1.171163944230    -0.419647787024     0.000506519831
    H            1.756903993777    -0.673869567455     0.876214029481
    O           -0.000157695870    -1.189037365060    -0.000136425896
    C            0.769158175498     1.061557542964    -0.000662953869
    C           -1.171196965428    -0.419395251430    -0.000160104398
    H            1.161740938902     1.568336495007    -0.871461012086
    H            1.163061805058     1.569850835342     0.868583497244
    C           -0.768932809713     1.061671140840     0.000463739551
    H           -1.757368037620    -0.673644197685    -0.875531458945
    H           -1.757808559716    -0.674210587170     0.874726480650
    H           -1.161550787317     1.568780265400     0.871005548192
    H           -1.162733971630     1.569748598591    -0.868938857710

gradient() will perform analytic gradient computation.

*** tstart() called on cx1-27-3-4
*** at Fri Sep  9 20:22:18 2016


         ---------------------------------------------------------
                                   SCF
            by Justin Turney, Rob Parrish, and Andy Simmonett
                              RHF Reference
                        4 Threads,   2000 MiB Core
         ---------------------------------------------------------

  ==> Geometry <==

    Molecular point group: c1
    Full point group: C1

    Geometry (in Angstrom), charge = 0, multiplicity = 1:

       Center              X                  Y                   Z               Mass       
    ------------   -----------------  -----------------  -----------------  -----------------
           H          1.757967152394    -0.674684472611    -0.874185747317     1.007825032070
           C          1.171163944230    -0.419647787024     0.000506519831    12.000000000000
           H          1.756903993777    -0.673869567455     0.876214029481     1.007825032070
           O         -0.000157695870    -1.189037365060    -0.000136425896    15.994914619560
           C          0.769158175498     1.061557542964    -0.000662953869    12.000000000000
           C         -1.171196965428    -0.419395251430    -0.000160104398    12.000000000000
           H          1.161740938902     1.568336495007    -0.871461012086     1.007825032070
           H          1.163061805058     1.569850835342     0.868583497244     1.007825032070
           C         -0.768932809713     1.061671140840     0.000463739551    12.000000000000
           H         -1.757368037620    -0.673644197685    -0.875531458945     1.007825032070
           H         -1.757808559716    -0.674210587170     0.874726480650     1.007825032070
           H         -1.161550787317     1.568780265400     0.871005548192     1.007825032070
           H         -1.162733971630     1.569748598591    -0.868938857710     1.007825032070

  Running in c1 symmetry.

  Rotational constants: A =      0.23693  B =      0.23484  C =      0.12902 [cm^-1]
  Rotational constants: A =   7102.90303  B =   7040.32384  C =   3867.99133 [MHz]
  Nuclear repulsion =  190.756734077566108

  Charge       = 0
  Multiplicity = 1
  Electrons    = 40
  Nalpha       = 20
  Nbeta        = 20

  ==> Algorithm <==

  SCF Algorithm Type is DF.
  DIIS enabled.
  MOM disabled.
  Fractional occupation disabled.
  Guess Type is READ.
  Energy threshold   = 1.00e-08
  Density threshold  = 1.00e-08
  Integral threshold = 0.00e+00

  ==> Primary Basis <==

  Basis Set: CC-PVTZ
    Number of shells: 98
    Number of basis function: 262
    Number of Cartesian functions: 295
    Spherical Harmonics?: true
    Max angular momentum: 3

  ==> Pre-Iterations <==

   -------------------------------------------------------
    Irrep   Nso     Nmo     Nalpha   Nbeta   Ndocc  Nsocc
   -------------------------------------------------------
     A        262     262       0       0       0       0
   -------------------------------------------------------
    Total     262     262      20      20      20       0
   -------------------------------------------------------

 OEINTS: Overlap, kinetic, potential, dipole, and quadrupole integrals
         stored in file 35.

  ==> Integral Setup <==

  ==> DFJK: Density-Fitted J/K Matrices <==

    J tasked:                  Yes
    K tasked:                  Yes
    wK tasked:                  No
    OpenMP threads:              4
    Integrals threads:           4
    Memory (MB):              1430
    Algorithm:                Core
    Integral Cache:           NONE
    Schwarz Cutoff:          1E-12
    Fitting Condition:       1E-12

   => Auxiliary Basis Set <=

  Basis Set: 
    Number of shells: 205
    Number of basis function: 635
    Number of Cartesian functions: 760
    Spherical Harmonics?: true
    Max angular momentum: 4

  Minimum eigenvalue in the overlap matrix is 2.1778229389E-04.
  Using Symmetric Orthogonalization.
  SCF Guess: Reading in previously saved MOs, projecting if necessary.

  Using orbitals from previous SCF, no projection.
  Recomputing DOCC and SOCC from number of alpha and beta electrons from previous calculation.
              A 
    DOCC [    20 ]

  ==> Iterations <==

                           Total Energy        Delta E     RMS |[F,P]|

   @DF-RHF iter   0:  -231.06380105409286   -2.31064e+02   4.50673e-05 
   @DF-RHF iter   1:  -231.05515490054458    8.64615e-03   6.86679e-06 
   @DF-RHF iter   2:  -231.05515649658307   -1.59604e-06   3.67480e-06 DIIS
   @DF-RHF iter   3:  -231.05515686255271   -3.65970e-07   6.60790e-07 DIIS
   @DF-RHF iter   4:  -231.05515689245780   -2.99051e-08   2.36335e-07 DIIS
   @DF-RHF iter   5:  -231.05515689536489   -2.90709e-09   9.13940e-08 DIIS
   @DF-RHF iter   6:  -231.05515689587233   -5.07441e-10   2.04180e-08 DIIS
   @DF-RHF iter   7:  -231.05515689590939   -3.70619e-11   4.16195e-09 DIIS

  ==> Post-Iterations <==

    Orbital Energies (a.u.)
    -----------------------

    Doubly Occupied:                                                      

       1A    -20.537869     2A    -11.262545     3A    -11.262508  
       4A    -11.220652     5A    -11.220065     6A     -1.376005  
       7A     -1.053333     8A     -0.997764     9A     -0.811727  
      10A     -0.810752    11A     -0.685642    12A     -0.671478  
      13A     -0.591657    14A     -0.588851    15A     -0.582624  
      16A     -0.499835    17A     -0.486895    18A     -0.465923  
      19A     -0.464747    20A     -0.401218  

    Virtual:                                                              

      21A      0.132841    22A      0.172616    23A      0.176283  
      24A      0.185199    25A      0.208281    26A      0.212114  
      27A      0.245084    28A      0.272445    29A      0.280311  
      30A      0.290070    31A      0.320133    32A      0.377352  
      33A      0.380103    34A      0.381335    35A      0.425850  
      36A      0.435480    37A      0.438582    38A      0.538920  
      39A      0.540986    40A      0.544519    41A      0.574990  
      42A      0.581407    43A      0.588684    44A      0.596691  
      45A      0.619022    46A      0.640485    47A      0.651010  
      48A      0.652150    49A      0.660181    50A      0.666532  
      51A      0.686630    52A      0.687576    53A      0.709402  
      54A      0.709636    55A      0.712141    56A      0.800668  
      57A      0.868113    58A      0.899788    59A      0.941708  
      60A      0.948885    61A      1.007642    62A      1.016145  
      63A      1.020559    64A      1.073464    65A      1.108424  
      66A      1.113647    67A      1.207058    68A      1.212698  
      69A      1.214640    70A      1.216588    71A      1.229385  
      72A      1.250562    73A      1.286647    74A      1.293043  
      75A      1.296864    76A      1.300627    77A      1.308562  
      78A      1.314432    79A      1.325121    80A      1.336964  
      81A      1.341652    82A      1.346866    83A      1.395997  
      84A      1.407318    85A      1.438186    86A      1.438247  
      87A      1.448498    88A      1.510674    89A      1.542507  
      90A      1.547450    91A      1.570018    92A      1.605451  
      93A      1.623979    94A      1.626920    95A      1.703404  
      96A      1.707856    97A      1.721824    98A      1.723348  
      99A      1.730033   100A      1.798107   101A      1.816117  
     102A      1.846655   103A      1.877708   104A      1.958010  
     105A      1.997253   106A      2.203539   107A      2.213924  
     108A      2.282677   109A      2.383735   110A      2.455612  
     111A      2.486516   112A      2.503273   113A      2.567402  
     114A      2.717111   115A      2.741595   116A      2.747076  
     117A      2.758417   118A      2.780594   119A      2.818336  
     120A      2.836337   121A      2.846531   122A      2.898484  
     123A      2.902151   124A      2.983438   125A      2.988002  
     126A      3.003584   127A      3.005546   128A      3.023195  
     129A      3.032035   130A      3.050762   131A      3.054447  
     132A      3.189118   133A      3.210577   134A      3.259919  
     135A      3.277965   136A      3.278266   137A      3.292344  
     138A      3.296397   139A      3.317530   140A      3.318584  
     141A      3.322943   142A      3.384344   143A      3.398911  
     144A      3.404141   145A      3.440926   146A      3.449090  
     147A      3.458042   148A      3.463217   149A      3.492486  
     150A      3.501680   151A      3.504130   152A      3.504406  
     153A      3.561167   154A      3.579000   155A      3.629952  
     156A      3.660277   157A      3.669984   158A      3.686404  
     159A      3.714601   160A      3.754562   161A      3.783795  
     162A      3.803337   163A      3.817356   164A      3.863286  
     165A      3.878988   166A      3.885593   167A      3.890107  
     168A      3.912848   169A      3.929770   170A      3.935831  
     171A      3.942234   172A      3.981027   173A      4.011044  
     174A      4.025393   175A      4.055505   176A      4.064807  
     177A      4.090172   178A      4.118812   179A      4.120425  
     180A      4.190189   181A      4.208573   182A      4.239853  
     183A      4.254912   184A      4.260998   185A      4.265510  
     186A      4.266068   187A      4.314065   188A      4.314865  
     189A      4.334618   190A      4.360615   191A      4.411414  
     192A      4.412039   193A      4.473801   194A      4.474776  
     195A      4.477992   196A      4.519321   197A      4.578268  
     198A      4.595536   199A      4.596433   200A      4.603498  
     201A      4.622890   202A      4.694812   203A      4.712882  
     204A      4.734339   205A      4.740105   206A      4.746657  
     207A      4.838390   208A      4.857253   209A      4.922635  
     210A      4.928281   211A      4.963985   212A      4.965641  
     213A      5.017337   214A      5.028336   215A      5.064531  
     216A      5.141523   217A      5.165401   218A      5.247919  
     219A      5.287725   220A      5.289673   221A      5.335247  
     222A      5.335688   223A      5.368800   224A      5.436402  
     225A      5.461541   226A      5.479160   227A      5.491584  
     228A      5.491947   229A      5.570895   230A      5.571719  
     231A      5.576095   232A      5.630720   233A      5.638061  
     234A      5.712533   235A      5.749738   236A      5.787328  
     237A      5.933572   238A      5.970306   239A      6.003670  
     240A      6.028007   241A      6.080825   242A      6.120642  
     243A      6.171523   244A      6.183273   245A      6.252086  
     246A      6.333396   247A      6.483346   248A      6.547908  
     249A      6.599350   250A      6.684500   251A      6.786001  
     252A      6.984201   253A      7.294160   254A      7.331758  
     255A      7.714255   256A      7.799178   257A      7.893998  
     258A     11.157905   259A     11.854904   260A     12.626744  
     261A     13.566879   262A     14.271563  

    Final Occupation by Irrep:
              A 
    DOCC [    20 ]

  Energy converged.

  @DF-RHF Final Energy:  -231.05515689590939

   => Energetics <=

    Nuclear Repulsion Energy =            190.7567340775661080
    One-Electron Energy =                -691.6396035552020294
    Two-Electron Energy =                 269.8277125817264732
    DFT Exchange-Correlation Energy =       0.0000000000000000
    Empirical Dispersion Energy =           0.0000000000000000
    PCM Polarization Energy =               0.0000000000000000
    EFP Energy =                            0.0000000000000000
    Total Energy =                       -231.0551568959094766

    Alert: EFP and PCM quantities not currently incorporated into SCF psivars.

Properties will be evaluated at   0.000000,   0.000000,   0.000000 Bohr
  ==> Properties <==


Properties computed using the SCF density matrix

  Nuclear Dipole Moment: (a.u.)
     X:     0.0002      Y:     3.3507      Z:     0.0004

  Electronic Dipole Moment: (a.u.)
     X:    -0.0000      Y:    -2.6455      Z:    -0.0002

  Dipole Moment: (a.u.)
     X:     0.0002      Y:     0.7052      Z:     0.0002     Total:     0.7052

  Dipole Moment: (Debye)
     X:     0.0005      Y:     1.7925      Z:     0.0004     Total:     1.7925


  Saving occupied orbitals to File 180.

*** tstop() called on cx1-27-3-4 at Fri Sep  9 20:22:24 2016
Module time:
	user time   =      17.41 seconds =       0.29 minutes
	system time =       0.22 seconds =       0.00 minutes
	total time  =          6 seconds =       0.10 minutes
Total time:
	user time   =      86.85 seconds =       1.45 minutes
	system time =       1.01 seconds =       0.02 minutes
	total time  =         26 seconds =       0.43 minutes

*** tstart() called on cx1-27-3-4
*** at Fri Sep  9 20:22:24 2016


         ------------------------------------------------------------
                                   SCF GRAD                          
                          Rob Parrish, Justin Turney,                
                       Andy Simmonett, and Alex Sokolov              
         ------------------------------------------------------------

  ==> Geometry <==

    Molecular point group: c1
    Full point group: C1

    Geometry (in Angstrom), charge = 0, multiplicity = 1:

       Center              X                  Y                   Z               Mass       
    ------------   -----------------  -----------------  -----------------  -----------------
           H          1.757967152394    -0.674684472611    -0.874185747317     1.007825032070
           C          1.171163944230    -0.419647787024     0.000506519831    12.000000000000
           H          1.756903993777    -0.673869567455     0.876214029481     1.007825032070
           O         -0.000157695870    -1.189037365060    -0.000136425896    15.994914619560
           C          0.769158175498     1.061557542964    -0.000662953869    12.000000000000
           C         -1.171196965428    -0.419395251430    -0.000160104398    12.000000000000
           H          1.161740938902     1.568336495007    -0.871461012086     1.007825032070
           H          1.163061805058     1.569850835342     0.868583497244     1.007825032070
           C         -0.768932809713     1.061671140840     0.000463739551    12.000000000000
           H         -1.757368037620    -0.673644197685    -0.875531458945     1.007825032070
           H         -1.757808559716    -0.674210587170     0.874726480650     1.007825032070
           H         -1.161550787317     1.568780265400     0.871005548192     1.007825032070
           H         -1.162733971630     1.569748598591    -0.868938857710     1.007825032070

  Nuclear repulsion =  190.756734077566108

  ==> Basis Set <==

  Basis Set: CC-PVTZ
    Number of shells: 98
    Number of basis function: 262
    Number of Cartesian functions: 295
    Spherical Harmonics?: true
    Max angular momentum: 3

  ==> DFJKGrad: Density-Fitted SCF Gradients <==

    Gradient:                    1
    J tasked:                  Yes
    K tasked:                  Yes
    wK tasked:                  No
    OpenMP threads:              4
    Integrals threads:           4
    Memory (MB):              1430
    Schwarz Cutoff:          0E+00
    Fitting Condition:       1E-12

   => Auxiliary Basis Set <=

  Basis Set: 
    Number of shells: 205
    Number of basis function: 635
    Number of Cartesian functions: 760
    Spherical Harmonics?: true
    Max angular momentum: 4


  -Total Gradient:
     Atom            X                  Y                   Z
    ------   -----------------  -----------------  -----------------
       1       -0.000086518927     0.000174507036     0.000016256882
       2        0.000337273129     0.000230806471     0.000040610507
       3       -0.000035173785     0.000155816956    -0.000016636702
       4       -0.000059893954    -0.000102166178    -0.000008941007
       5       -0.000226442175    -0.000291554126    -0.000009763533
       6       -0.000274226586     0.000244310127    -0.000001820597
       7        0.000019365327    -0.000077051392     0.000013204285
       8        0.000005318176    -0.000125786737    -0.000030216995
       9        0.000225076941    -0.000309439747     0.000000598160
      10        0.000055463049     0.000158127984     0.000035775765
      11        0.000068981588     0.000163320349    -0.000042397565
      12       -0.000023676597    -0.000097975723    -0.000040799859
      13       -0.000005546186    -0.000122915025     0.000044130658


*** tstop() called on cx1-27-3-4 at Fri Sep  9 20:22:35 2016
Module time:
	user time   =      43.48 seconds =       0.72 minutes
	system time =       0.34 seconds =       0.01 minutes
	total time  =         11 seconds =       0.18 minutes
Total time:
	user time   =     130.34 seconds =       2.17 minutes
	system time =       1.35 seconds =       0.02 minutes
	total time  =         37 seconds =       0.62 minutes
CURRENT ENERGY: -231.0551568959

			-----------------------------------------
			 OPTKING 2.0: for geometry optimizations 
			  - R.A. King,  Bethel University        
			-----------------------------------------

	Previous internal coordinate definitions found.
	---Fragment 1 Geometry and Gradient---
	 H           3.3220764686       -1.2749688793       -1.6519716517
	 C           2.2131791113       -0.7930193897        0.0009571838
	 H           3.3200673900       -1.2734289318        1.6558045495
	 O          -0.0002980020       -2.2469549817       -0.0002578076
	 C           1.4534983046        2.0060530305       -0.0012528013
	 C          -2.2132415123       -0.7925421666       -0.0003025535
	 H           2.1953722119        2.9637264598       -1.6468226483
	 H           2.1978682872        2.9665881483        1.6413849333
	 C          -1.4530724249        2.0062676994        0.0008763407
	 H          -3.3209443058       -1.2730030446       -1.6545146781
	 H          -3.3217767719       -1.2740733656        1.6529934896
	 H          -2.1950128775        2.9645650643        1.6459619463
	 H          -2.1972487718        2.9663949488       -1.6420564673
	            -0.0000865189        0.0001745070        0.0000162569
	             0.0003372731        0.0002308065        0.0000406105
	            -0.0000351738        0.0001558170       -0.0000166367
	            -0.0000598940       -0.0001021662       -0.0000089410
	            -0.0002264422       -0.0002915541       -0.0000097635
	            -0.0002742266        0.0002443101       -0.0000018206
	             0.0000193653       -0.0000770514        0.0000132043
	             0.0000053182       -0.0001257867       -0.0000302170
	             0.0002250769       -0.0003094397        0.0000005982
	             0.0000554630        0.0001581280        0.0000357758
	             0.0000689816        0.0001633203       -0.0000423976
	            -0.0000236766       -0.0000979757       -0.0000407999
	            -0.0000055462       -0.0001229150        0.0000441307

	---Fragment 1 Intrafragment Coordinates---
	 - Coordinate -           - BOHR/RAD -       - ANG/DEG -
	 R(1,2)           =         2.047951	       1.083729
	 R(2,3)           =         2.048051	       1.083782
	 R(2,4)           =         2.648285	       1.401412
	 R(2,5)           =         2.900332	       1.534790
	 R(4,6)           =         2.648100	       1.401314
	 R(5,7)           =         2.043383	       1.081312
	 R(5,8)           =         2.043275	       1.081255
	 R(5,9)           =         2.906572	       1.538092
	 R(6,9)           =         2.900206	       1.534723
	 R(6,10)          =         2.047991	       1.083750
	 R(6,11)          =         2.047953	       1.083730
	 R(9,12)          =         2.043310	       1.081273
	 R(9,13)          =         2.043250	       1.081241
	 B(1,2,3)         =         1.880014	     107.716890
	 B(1,2,4)         =         1.899690	     108.844208
	 B(1,2,5)         =         1.948005	     111.612486
	 B(2,4,6)         =         1.978972	     113.386733
	 B(2,5,7)         =         1.936734	     110.966684
	 B(2,5,8)         =         1.936546	     110.955909
	 B(2,5,9)         =         1.835890	     105.188742
	 B(3,2,4)         =         1.900026	     108.863461
	 B(3,2,5)         =         1.948253	     111.626658
	 B(4,2,5)         =         1.886955	     108.114568
	 B(4,6,9)         =         1.887031	     108.118895
	 B(4,6,10)        =         1.899859	     108.853919
	 B(4,6,11)        =         1.899892	     108.855816
	 B(5,9,6)         =         1.835929	     105.190965
	 B(5,9,12)        =         1.943067	     111.329533
	 B(5,9,13)        =         1.942988	     111.324997
	 B(6,9,12)        =         1.936653	     110.962055
	 B(6,9,13)        =         1.936582	     110.957994
	 B(7,5,8)         =         1.870073	     107.147272
	 B(7,5,9)         =         1.942944	     111.322480
	 B(8,5,9)         =         1.943010	     111.326288
	 B(9,6,10)        =         1.948186	     111.622821
	 B(9,6,11)        =         1.948144	     111.620432
	 B(10,6,11)       =         1.879831	     107.706395
	 B(12,9,13)       =         1.869981	     107.142027
	 D(1,2,4,6)       =        -2.120102	    -121.472880
	 D(1,2,5,7)       =        -0.012615	      -0.722804
	 D(1,2,5,8)       =        -2.089608	    -119.725738
	 D(1,2,5,9)       =         2.090492	     119.776358
	 D(2,4,6,9)       =         0.000059	       0.003399
	 D(2,4,6,10)      =         2.119393	     121.432292
	 D(2,4,6,11)      =        -2.119244	    -121.423725
	 D(2,5,9,6)       =        -0.001609	      -0.092162
	 D(2,5,9,12)      =         2.097395	     120.171894
	 D(2,5,9,13)      =        -2.100484	    -120.348876
	 D(3,2,4,6)       =         2.118337	     121.371748
	 D(3,2,5,7)       =         2.092419	     119.886766
	 D(3,2,5,8)       =         0.015426	       0.883831
	 D(3,2,5,9)       =        -2.087659	    -119.614073
	 D(4,2,5,7)       =        -2.101409	    -120.401880
	 D(4,2,5,8)       =         2.104783	     120.595185
	 D(4,2,5,9)       =         0.001698	       0.097281
	 D(4,6,9,5)       =         0.001020	       0.058454
	 D(4,6,9,12)      =        -2.102214	    -120.448011
	 D(4,6,9,13)      =         2.104121	     120.557279
	 D(5,2,4,6)       =        -0.001132	      -0.064847
	 D(5,9,6,10)      =        -2.088140	    -119.641604
	 D(5,9,6,11)      =         2.090196	     119.759411
	 D(6,9,5,7)       =         2.097402	     120.172281
	 D(6,9,5,8)       =        -2.100429	    -120.345711
	 D(7,5,9,12)      =        -2.086780	    -119.563663
	 D(7,5,9,13)      =        -0.001474	      -0.084433
	 D(8,5,9,12)      =        -0.001425	      -0.081655
	 D(8,5,9,13)      =         2.083881	     119.397575
	 D(10,6,9,12)     =         2.091811	     119.851932
	 D(10,6,9,13)     =         0.014961	       0.857222
	 D(11,6,9,12)     =        -0.013039	      -0.747054
	 D(11,6,9,13)     =        -2.089888	    -119.741764

	Current energy   :      -231.0551568959

	Energy change for the previous step:
		Projected    :        -0.0000837314
		Actual       :        -0.0000421501

	Performing BFGS update.
	Previous computed or guess Hessian on step 1.
	Steps to be used in Hessian update: 1
	Taking RFO optimization step.
	Going to follow RFO solution 1.
	Using RFO vector 1.
	Norm of target step-size    0.00746
	Projected energy change by RFO approximation:        -0.0000036269

	Back-transformation to cartesian coordinates...
	Successfully converged to displaced geometry.

	--- Internal Coordinate Step in ANG or DEG, aJ/ANG or AJ/DEG ---
	 ---------------------------------------------------------------------------
	   Coordinate                Previous        Force       Change         New 
	   ----------                --------       ------       ------       ------
	    1 R(1,2)          =      1.083729     0.000832     0.000116     1.083845
	    2 R(2,3)          =      1.083782     0.000568     0.000074     1.083856
	    3 R(2,4)          =      1.401412    -0.002054    -0.000317     1.401095
	    4 R(2,5)          =      1.534790     0.004053     0.000714     1.535504
	    5 R(4,6)          =      1.401314    -0.001537    -0.000250     1.401065
	    6 R(5,7)          =      1.081312     0.000327    -0.000004     1.081307
	    7 R(5,8)          =      1.081255     0.000671     0.000066     1.081321
	    8 R(5,9)          =      1.538092     0.002005     0.000390     1.538482
	    9 R(6,9)          =      1.534723     0.004287     0.000771     1.535494
	   10 R(6,10)         =      1.083750     0.000791     0.000097     1.083847
	   11 R(6,11)         =      1.083730     0.000906     0.000110     1.083840
	   12 R(9,12)         =      1.081273     0.000578     0.000024     1.081297
	   13 R(9,13)         =      1.081241     0.000752     0.000069     1.081310
	   14 B(1,2,3)        =    107.716890    -0.000007    -0.046276   107.670614
	   15 B(1,2,4)        =    108.844208    -0.000008    -0.030343   108.813865
	   16 B(1,2,5)        =    111.612486     0.000009     0.056179   111.668665
	   17 B(2,4,6)        =    113.386733     0.000005     0.000777   113.387510
	   18 B(2,5,7)        =    110.966684     0.000006     0.030330   110.997014
	   19 B(2,5,8)        =    110.955909     0.000007     0.042031   110.997940
	   20 B(2,5,9)        =    105.188742    -0.000010    -0.022990   105.165752
	   21 B(3,2,4)        =    108.863461    -0.000009    -0.047698   108.815763
	   22 B(3,2,5)        =    111.626658     0.000007     0.038692   111.665350
	   23 B(4,2,5)        =    108.114568     0.000009     0.025109   108.139677
	   24 B(4,6,9)        =    108.118895     0.000007     0.022058   108.140953
	   25 B(4,6,10)       =    108.853919    -0.000008    -0.039234   108.814685
	   26 B(4,6,11)       =    108.855816    -0.000008    -0.037914   108.817902
	   27 B(5,9,6)        =    105.190965    -0.000011    -0.025128   105.165837
	   28 B(5,9,12)       =    111.329533     0.000000    -0.021596   111.307937
	   29 B(5,9,13)       =    111.324997     0.000001    -0.016200   111.308796
	   30 B(6,9,12)       =    110.962055     0.000007     0.035459   110.997514
	   31 B(6,9,13)       =    110.957994     0.000007     0.040056   110.998050
	   32 B(7,5,8)        =    107.147272    -0.000004    -0.014947   107.132324
	   33 B(7,5,9)        =    111.322480     0.000001    -0.015187   111.307293
	   34 B(8,5,9)        =    111.326288     0.000000    -0.017903   111.308385
	   35 B(9,6,10)       =    111.622821     0.000007     0.044196   111.667017
	   36 B(9,6,11)       =    111.620432     0.000007     0.045549   111.665982
	   37 B(10,6,11)      =    107.706395    -0.000006    -0.038881   107.667515
	   38 B(12,9,13)      =    107.142027    -0.000003    -0.011375   107.130652
	   39 D(1,2,4,6)      =   -121.472880    -0.000002    -0.107745  -121.580625
	   40 D(1,2,5,7)      =     -0.722804     0.000000     0.092892    -0.629912
	   41 D(1,2,5,8)      =   -119.725738    -0.000000     0.064506  -119.661232
	   42 D(1,2,5,9)      =    119.776358    -0.000000     0.077165   119.853523
	   43 D(2,4,6,9)      =      0.003399    -0.000000     0.001578     0.004977
	   44 D(2,4,6,10)     =    121.432292     0.000002     0.045107   121.477400
	   45 D(2,4,6,11)     =   -121.423725    -0.000002    -0.044374  -121.468099
	   46 D(2,5,9,6)      =     -0.092162     0.000000    -0.061431    -0.153593
	   47 D(2,5,9,12)     =    120.171894     0.000000    -0.045830   120.126065
	   48 D(2,5,9,13)     =   -120.348876    -0.000000    -0.085486  -120.434362
	   49 D(3,2,4,6)      =    121.371748     0.000002    -0.008928   121.362821
	   50 D(3,2,5,7)      =    119.886766     0.000001     0.099616   119.986382
	   51 D(3,2,5,8)      =      0.883831    -0.000000     0.071231     0.955062
	   52 D(3,2,5,9)      =   -119.614073     0.000000     0.083889  -119.530183
	   53 D(4,2,5,7)      =   -120.401880     0.000000     0.080285  -120.321595
	   54 D(4,2,5,8)      =    120.595185    -0.000001     0.051900   120.647085
	   55 D(4,2,5,9)      =      0.097281    -0.000000     0.064558     0.161840
	   56 D(4,6,9,5)      =      0.058454    -0.000000     0.039421     0.097875
	   57 D(4,6,9,12)     =   -120.448011     0.000001     0.061356  -120.386655
	   58 D(4,6,9,13)     =    120.557279    -0.000000     0.026444   120.583724
	   59 D(5,2,4,6)      =     -0.064847     0.000000    -0.042610    -0.107457
	   60 D(5,9,6,10)     =   -119.641604     0.000000     0.046956  -119.594647
	   61 D(5,9,6,11)     =    119.759411    -0.000000     0.034330   119.793740
	   62 D(6,9,5,7)      =    120.172281     0.000000    -0.047217   120.125063
	   63 D(6,9,5,8)      =   -120.345711    -0.000000    -0.088244  -120.433955
	   64 D(7,5,9,12)     =   -119.563663     0.000001    -0.031615  -119.595278
	   65 D(7,5,9,13)     =     -0.084433    -0.000000    -0.071272    -0.155705
	   66 D(8,5,9,12)     =     -0.081655    -0.000000    -0.072642    -0.154297
	   67 D(8,5,9,13)     =    119.397575    -0.000001    -0.112298   119.285277
	   68 D(10,6,9,12)    =    119.851932     0.000001     0.068892   119.920824
	   69 D(10,6,9,13)    =      0.857222    -0.000000     0.033980     0.891202
	   70 D(11,6,9,12)    =     -0.747054     0.000000     0.056265    -0.690789
	   71 D(11,6,9,13)    =   -119.741764    -0.000001     0.021353  -119.720410
	 ---------------------------------------------------------------------------

  ==> Convergence Check <==

  Measures of convergence in internal coordinates in au.
  Criteria marked as inactive (o), active & met (*), and active & unmet ( ).
  ---------------------------------------------------------------------------------------------
   Step     Total Energy     Delta E     MAX Force     RMS Force      MAX Disp      RMS Disp   
  ---------------------------------------------------------------------------------------------
    Convergence Criteria    1.00e-06 *    3.00e-04 *             o    1.20e-03 *             o
  ---------------------------------------------------------------------------------------------
      2    -231.05515690   -4.22e-05      5.20e-04      1.19e-04 o    1.96e-03      8.86e-04 o  ~
  ---------------------------------------------------------------------------------------------

	Writing optimization data to binary file.
	Structure for next step:
	Cartesian Geometry (in Angstrom)
	    H     1.7584416547  -0.6762839404  -0.8732700545
	    C     1.1709133309  -0.4198263511   0.0006629643
	    H     1.7558394042  -0.6748793027   0.8767646266
	    O    -0.0001242452  -1.1890705924  -0.0004911770
	    C     0.7693348856   1.0622340521  -0.0010764280
	    C    -1.1709842128  -0.4196105861  -0.0004174624
	    H     1.1612183230   1.5688210618  -0.8722956198
	    H     1.1633914606   1.5714736835   0.8676286940
	    C    -0.7691454493   1.0623696744   0.0008237270
	    H    -1.7569033313  -0.6746245545  -0.8758551052
	    H    -1.7576713233  -0.6758602887   0.8741354125
	    H    -1.1609474306   1.5693266942   0.8718517540
	    H    -1.1631158839   1.5713863802  -0.8680380767
			--------------------------
			 OPTKING Finished Execution 
			--------------------------

    Structure for next step:
    Molecular point group: c1
    Full point group: C1

    Geometry (in Angstrom), charge = 0, multiplicity = 1:

    H            1.758445819520    -0.676426652631    -0.873172650590
    C            1.170917540663    -0.419969082904     0.000760301510
    H            1.755843569259    -0.675022014988     0.876861896933
    O           -0.000119946052    -1.189213265416    -0.000393839678
    C            0.769339125994     1.062091207148    -0.000979090687
    C           -1.170979824221    -0.419753317858    -0.000320125142
    H            1.161222533422     1.568678178168    -0.872198215904
    H            1.163395670934     1.571330799621     0.867725964960
    C           -0.769141091393     1.062226829451     0.000921064160
    H           -1.756898897970    -0.674767266812    -0.875757701062
    H           -1.757666889971    -0.676003000984     0.874232682998
    H           -1.160943042770     1.569183810537     0.871949024623
    H           -1.163111495948     1.571243496318    -0.867940673165

gradient() will perform analytic gradient computation.

*** tstart() called on cx1-27-3-4
*** at Fri Sep  9 20:22:35 2016


         ---------------------------------------------------------
                                   SCF
            by Justin Turney, Rob Parrish, and Andy Simmonett
                              RHF Reference
                        4 Threads,   2000 MiB Core
         ---------------------------------------------------------

  ==> Geometry <==

    Molecular point group: c1
    Full point group: C1

    Geometry (in Angstrom), charge = 0, multiplicity = 1:

       Center              X                  Y                   Z               Mass       
    ------------   -----------------  -----------------  -----------------  -----------------
           H          1.758445819520    -0.676426652631    -0.873172650590     1.007825032070
           C          1.170917540663    -0.419969082904     0.000760301510    12.000000000000
           H          1.755843569259    -0.675022014988     0.876861896933     1.007825032070
           O         -0.000119946052    -1.189213265416    -0.000393839678    15.994914619560
           C          0.769339125994     1.062091207148    -0.000979090687    12.000000000000
           C         -1.170979824221    -0.419753317858    -0.000320125142    12.000000000000
           H          1.161222533422     1.568678178168    -0.872198215904     1.007825032070
           H          1.163395670934     1.571330799621     0.867725964960     1.007825032070
           C         -0.769141091393     1.062226829451     0.000921064160    12.000000000000
           H         -1.756898897970    -0.674767266812    -0.875757701062     1.007825032070
           H         -1.757666889971    -0.676003000984     0.874232682998     1.007825032070
           H         -1.160943042770     1.569183810537     0.871949024623     1.007825032070
           H         -1.163111495948     1.571243496318    -0.867940673165     1.007825032070

  Running in c1 symmetry.

  Rotational constants: A =      0.23697  B =      0.23465  C =      0.12897 [cm^-1]
  Rotational constants: A =   7104.14282  B =   7034.48438  C =   3866.51341 [MHz]
  Nuclear repulsion =  190.730629270489430

  Charge       = 0
  Multiplicity = 1
  Electrons    = 40
  Nalpha       = 20
  Nbeta        = 20

  ==> Algorithm <==

  SCF Algorithm Type is DF.
  DIIS enabled.
  MOM disabled.
  Fractional occupation disabled.
  Guess Type is READ.
  Energy threshold   = 1.00e-08
  Density threshold  = 1.00e-08
  Integral threshold = 0.00e+00

  ==> Primary Basis <==

  Basis Set: CC-PVTZ
    Number of shells: 98
    Number of basis function: 262
    Number of Cartesian functions: 295
    Spherical Harmonics?: true
    Max angular momentum: 3

  ==> Pre-Iterations <==

   -------------------------------------------------------
    Irrep   Nso     Nmo     Nalpha   Nbeta   Ndocc  Nsocc
   -------------------------------------------------------
     A        262     262       0       0       0       0
   -------------------------------------------------------
    Total     262     262      20      20      20       0
   -------------------------------------------------------

 OEINTS: Overlap, kinetic, potential, dipole, and quadrupole integrals
         stored in file 35.

  ==> Integral Setup <==

  ==> DFJK: Density-Fitted J/K Matrices <==

    J tasked:                  Yes
    K tasked:                  Yes
    wK tasked:                  No
    OpenMP threads:              4
    Integrals threads:           4
    Memory (MB):              1430
    Algorithm:                Core
    Integral Cache:           NONE
    Schwarz Cutoff:          1E-12
    Fitting Condition:       1E-12

   => Auxiliary Basis Set <=

  Basis Set: 
    Number of shells: 205
    Number of basis function: 635
    Number of Cartesian functions: 760
    Spherical Harmonics?: true
    Max angular momentum: 4

  Minimum eigenvalue in the overlap matrix is 2.1805803739E-04.
  Using Symmetric Orthogonalization.
  SCF Guess: Reading in previously saved MOs, projecting if necessary.

  Using orbitals from previous SCF, no projection.
  Recomputing DOCC and SOCC from number of alpha and beta electrons from previous calculation.
              A 
    DOCC [    20 ]

  ==> Iterations <==

                           Total Energy        Delta E     RMS |[F,P]|

   @DF-RHF iter   0:  -231.05486562564215   -2.31055e+02   1.04891e-05 
   @DF-RHF iter   1:  -231.05515861046172   -2.92985e-04   1.43611e-06 
   @DF-RHF iter   2:  -231.05515871337093   -1.02909e-07   5.80450e-07 DIIS
   @DF-RHF iter   3:  -231.05515872636965   -1.29987e-08   2.67495e-07 DIIS
   @DF-RHF iter   4:  -231.05515872951111   -3.14145e-09   5.20784e-08 DIIS
   @DF-RHF iter   5:  -231.05515872969983   -1.88720e-10   1.50611e-08 DIIS
   @DF-RHF iter   6:  -231.05515872971574   -1.59162e-11   5.20475e-09 DIIS

  ==> Post-Iterations <==

    Orbital Energies (a.u.)
    -----------------------

    Doubly Occupied:                                                      

       1A    -20.537871     2A    -11.262608     3A    -11.262580  
       4A    -11.220785     5A    -11.220199     6A     -1.376172  
       7A     -1.053146     8A     -0.997618     9A     -0.811830  
      10A     -0.810672    11A     -0.685538    12A     -0.671491  
      13A     -0.591438    14A     -0.588883    15A     -0.582706  
      16A     -0.499817    17A     -0.486866    18A     -0.465995  
      19A     -0.464729    20A     -0.401111  

    Virtual:                                                              

      21A      0.132857    22A      0.172648    23A      0.176293  
      24A      0.185133    25A      0.208360    26A      0.212051  
      27A      0.245038    28A      0.272531    29A      0.280239  
      30A      0.290028    31A      0.320039    32A      0.377479  
      33A      0.380109    34A      0.381200    35A      0.425883  
      36A      0.435460    37A      0.438524    38A      0.538998  
      39A      0.540955    40A      0.544139    41A      0.575115  
      42A      0.581466    43A      0.588710    44A      0.596834  
      45A      0.619063    46A      0.640289    47A      0.650906  
      48A      0.652450    49A      0.660114    50A      0.666388  
      51A      0.686428    52A      0.687533    53A      0.709166  
      54A      0.709574    55A      0.712225    56A      0.800551  
      57A      0.868171    58A      0.899665    59A      0.941654  
      60A      0.948617    61A      1.007051    62A      1.015912  
      63A      1.020843    64A      1.072749    65A      1.108759  
      66A      1.113672    67A      1.206688    68A      1.212936  
      69A      1.214693    70A      1.216672    71A      1.229418  
      72A      1.250254    73A      1.286619    74A      1.293225  
      75A      1.296676    76A      1.300495    77A      1.308516  
      78A      1.314362    79A      1.324957    80A      1.336795  
      81A      1.341493    82A      1.347005    83A      1.396004  
      84A      1.407334    85A      1.438173    86A      1.438379  
      87A      1.448697    88A      1.510627    89A      1.542364  
      90A      1.547864    91A      1.569942    92A      1.605210  
      93A      1.624247    94A      1.626782    95A      1.703148  
      96A      1.708046    97A      1.721494    98A      1.723204  
      99A      1.729683   100A      1.798075   101A      1.816031  
     102A      1.846440   103A      1.877385   104A      1.958181  
     105A      1.996557   106A      2.203754   107A      2.213610  
     108A      2.283710   109A      2.383881   110A      2.455214  
     111A      2.486752   112A      2.503529   113A      2.566964  
     114A      2.717375   115A      2.741787   116A      2.746144  
     117A      2.757900   118A      2.780729   119A      2.818082  
     120A      2.836242   121A      2.846163   122A      2.898558  
     123A      2.901952   124A      2.982672   125A      2.987298  
     126A      3.003111   127A      3.005438   128A      3.023288  
     129A      3.031719   130A      3.050253   131A      3.054706  
     132A      3.188865   133A      3.210426   134A      3.259841  
     135A      3.278029   136A      3.278480   137A      3.292322  
     138A      3.295934   139A      3.317728   140A      3.318364  
     141A      3.323143   142A      3.384606   143A      3.398613  
     144A      3.404161   145A      3.440958   146A      3.448965  
     147A      3.457748   148A      3.462958   149A      3.492132  
     150A      3.501376   151A      3.503849   152A      3.504227  
     153A      3.560799   154A      3.578778   155A      3.629919  
     156A      3.660663   157A      3.670237   158A      3.686540  
     159A      3.714422   160A      3.754235   161A      3.784116  
     162A      3.803534   163A      3.817310   164A      3.862869  
     165A      3.878605   166A      3.885214   167A      3.889982  
     168A      3.912538   169A      3.929302   170A      3.935870  
     171A      3.941064   172A      3.980382   173A      4.010920  
     174A      4.025477   175A      4.055373   176A      4.064533  
     177A      4.089516   178A      4.118218   179A      4.120055  
     180A      4.190851   181A      4.208282   182A      4.239541  
     183A      4.254976   184A      4.260876   185A      4.264697  
     186A      4.265078   187A      4.313943   188A      4.314532  
     189A      4.334331   190A      4.359924   191A      4.410793  
     192A      4.412506   193A      4.473690   194A      4.474027  
     195A      4.477684   196A      4.519270   197A      4.578028  
     198A      4.595820   199A      4.596976   200A      4.603644  
     201A      4.622015   202A      4.693914   203A      4.712789  
     204A      4.733963   205A      4.739767   206A      4.746108  
     207A      4.837642   208A      4.856646   209A      4.922546  
     210A      4.927662   211A      4.962987   212A      4.965735  
     213A      5.017424   214A      5.027387   215A      5.064398  
     216A      5.140828   217A      5.164576   218A      5.247619  
     219A      5.287027   220A      5.289488   221A      5.334696  
     222A      5.334849   223A      5.368304   224A      5.435909  
     225A      5.460919   226A      5.478572   227A      5.490911  
     228A      5.491712   229A      5.570262   230A      5.571068  
     231A      5.576142   232A      5.629936   233A      5.638257  
     234A      5.712901   235A      5.749806   236A      5.786848  
     237A      5.931677   238A      5.970575   239A      6.002806  
     240A      6.027436   241A      6.080327   242A      6.121105  
     243A      6.171083   244A      6.182138   245A      6.252070  
     246A      6.333016   247A      6.482864   248A      6.548824  
     249A      6.599937   250A      6.684922   251A      6.786617  
     252A      6.984691   253A      7.293945   254A      7.331722  
     255A      7.714466   256A      7.799227   257A      7.894056  
     258A     11.156823   259A     11.855533   260A     12.623859  
     261A     13.560326   262A     14.263679  

    Final Occupation by Irrep:
              A 
    DOCC [    20 ]

  Energy converged.

  @DF-RHF Final Energy:  -231.05515872971574

   => Energetics <=

    Nuclear Repulsion Energy =            190.7306292704894304
    One-Electron Energy =                -691.5874700789188410
    Two-Electron Energy =                 269.8016820787136112
    DFT Exchange-Correlation Energy =       0.0000000000000000
    Empirical Dispersion Energy =           0.0000000000000000
    PCM Polarization Energy =               0.0000000000000000
    EFP Energy =                            0.0000000000000000
    Total Energy =                       -231.0551587297157994

    Alert: EFP and PCM quantities not currently incorporated into SCF psivars.

Properties will be evaluated at   0.000000,   0.000000,   0.000000 Bohr
  ==> Properties <==


Properties computed using the SCF density matrix

  Nuclear Dipole Moment: (a.u.)
     X:     0.0003      Y:     3.3488      Z:     0.0016

  Electronic Dipole Moment: (a.u.)
     X:    -0.0002      Y:    -2.6439      Z:    -0.0012

  Dipole Moment: (a.u.)
     X:     0.0001      Y:     0.7048      Z:     0.0003     Total:     0.7048

  Dipole Moment: (Debye)
     X:     0.0003      Y:     1.7915      Z:     0.0009     Total:     1.7915


  Saving occupied orbitals to File 180.

*** tstop() called on cx1-27-3-4 at Fri Sep  9 20:22:41 2016
Module time:
	user time   =      17.32 seconds =       0.29 minutes
	system time =       0.26 seconds =       0.00 minutes
[...]

  Basis Set: 
    Number of shells: 205
    Number of basis function: 635
    Number of Cartesian functions: 760
    Spherical Harmonics?: true
    Max angular momentum: 4


  -Total Gradient:
     Atom            X                  Y                   Z
    ------   -----------------  -----------------  -----------------
       1       -0.000001424766     0.000000351836    -0.000008321863
       2       -0.000007133851    -0.000004277606    -0.000008947856
       3        0.000009898603    -0.000012380772    -0.000030980809
       4        0.000000186401     0.000030886097     0.000046118932
       5        0.000043084559     0.000021942022    -0.000033356581
       6       -0.000003115917    -0.000015318012    -0.000011610643
       7        0.000004502831     0.000002321151     0.000056416384
       8       -0.000025000209    -0.000023825387     0.000001365162
       9       -0.000045286249     0.000032677212     0.000026986307
      10       -0.000010690406    -0.000000026788     0.000022302482
      11        0.000011675173    -0.000005859698    -0.000012145581
      12        0.000005029813    -0.000000937646    -0.000056277861
      13        0.000018274018    -0.000025552411     0.000008451928


*** tstop() called on cx1-27-3-4 at Fri Sep  9 20:23:11 2016
Module time:
	user time   =      45.42 seconds =       0.76 minutes
	system time =       0.35 seconds =       0.01 minutes
	total time  =         12 seconds =       0.20 minutes
Total time:
	user time   =     256.64 seconds =       4.28 minutes
	system time =       2.58 seconds =       0.04 minutes
	total time  =         73 seconds =       1.22 minutes
CURRENT ENERGY: -231.0551594084

			-----------------------------------------
			 OPTKING 2.0: for geometry optimizations 
			  - R.A. King,  Bethel University        
			-----------------------------------------

	Previous internal coordinate definitions found.
	---Fragment 1 Geometry and Gradient---
	 H           3.3258443099       -1.2792308441       -1.6466133728
	 C           2.2128451590       -0.7937708718        0.0029233148
	 H           3.3163207777       -1.2744326441        1.6603002031
	 O          -0.0002059693       -2.2468570007       -0.0017574979
	 C           1.4540782914        2.0069317810       -0.0032739641
	 C          -2.2130002655       -0.7933709501       -0.0015069223
	 H           2.1927603416        2.9619317965       -1.6517975227
	 H           2.2006299587        2.9713616339        1.6362541102
	 C          -1.4537030781        2.0072131685        0.0036081753
	 H          -3.3197835043       -1.2736439065       -1.6567406390
	 H          -3.3228433590       -1.2787643866        1.6501663544
	 H          -2.1922012799        2.9629838021        1.6517537332
	 H          -2.2000791377        2.9711351985       -1.6362742385
	            -0.0000014248        0.0000003518       -0.0000083219
	            -0.0000071339       -0.0000042776       -0.0000089479
	             0.0000098986       -0.0000123808       -0.0000309808
	             0.0000001864        0.0000308861        0.0000461189
	             0.0000430846        0.0000219420       -0.0000333566
	            -0.0000031159       -0.0000153180       -0.0000116106
	             0.0000045028        0.0000023212        0.0000564164
	            -0.0000250002       -0.0000238254        0.0000013652
	            -0.0000452862        0.0000326772        0.0000269863
	            -0.0000106904       -0.0000000268        0.0000223025
	             0.0000116752       -0.0000058597       -0.0000121456
	             0.0000050298       -0.0000009376       -0.0000562779
	             0.0000182740       -0.0000255524        0.0000084519

	---Fragment 1 Intrafragment Coordinates---
	 - Coordinate -           - BOHR/RAD -       - ANG/DEG -
	 R(1,2)           =         2.048270	       1.083898
	 R(2,3)           =         2.048315	       1.083921
	 R(2,4)           =         2.647466	       1.400979
	 R(2,5)           =         2.901672	       1.535499
	 R(4,6)           =         2.647467	       1.400979
	 R(5,7)           =         2.043357	       1.081298
	 R(5,8)           =         2.043408	       1.081325
	 R(5,9)           =         2.907790	       1.538736
	 R(6,9)           =         2.901694	       1.535511
	 R(6,10)          =         2.048275	       1.083900
	 R(6,11)          =         2.048263	       1.083894
	 R(9,12)          =         2.043346	       1.081292
	 R(9,13)          =         2.043389	       1.081315
	 B(1,2,3)         =         1.878925	     107.654470
	 B(1,2,4)         =         1.899392	     108.827118
	 B(1,2,5)         =         1.948873	     111.662213
	 B(2,4,6)         =         1.979412	     113.411977
	 B(2,5,7)         =         1.937240	     110.995677
	 B(2,5,8)         =         1.937242	     110.995765
	 B(2,5,9)         =         1.835456	     105.163869
	 B(3,2,4)         =         1.899652	     108.842044
	 B(3,2,5)         =         1.948834	     111.659948
	 B(4,2,5)         =         1.887222	     108.129840
	 B(4,6,9)         =         1.887219	     108.129687
	 B(4,6,10)        =         1.899510	     108.833888
	 B(4,6,11)        =         1.899542	     108.835748
	 B(5,9,6)         =         1.835450	     105.163563
	 B(5,9,12)        =         1.942678	     111.307273
	 B(5,9,13)        =         1.942721	     111.309707
	 B(6,9,12)        =         1.937240	     110.995700
	 B(6,9,13)        =         1.937237	     110.995530
	 B(7,5,8)         =         1.869891	     107.136850
	 B(7,5,9)         =         1.942676	     111.307147
	 B(8,5,9)         =         1.942712	     111.309189
	 B(9,6,10)        =         1.948865	     111.661731
	 B(9,6,11)        =         1.948822	     111.659249
	 B(10,6,11)       =         1.878941	     107.655364
	 B(12,9,13)       =         1.869889	     107.136732
	 D(1,2,4,6)       =        -2.123699	    -121.679006
	 D(1,2,5,7)       =        -0.008086	      -0.463271
	 D(1,2,5,8)       =        -2.085633	    -119.497977
	 D(1,2,5,9)       =         2.094711	     120.018128
	 D(2,4,6,9)       =         0.000144	       0.008236
	 D(2,4,6,10)      =         2.120206	     121.478875
	 D(2,4,6,11)      =        -2.119886	    -121.460500
	 D(2,5,9,6)       =        -0.005322	      -0.304933
	 D(2,5,9,12)      =         2.093885	     119.970798
	 D(2,5,9,13)      =        -2.104549	    -120.581778
	 D(3,2,4,6)       =         2.116416	     121.261703
	 D(3,2,5,7)       =         2.096561	     120.124075
	 D(3,2,5,8)       =         0.019013	       1.089369
	 D(3,2,5,9)       =        -2.083828	    -119.394526
	 D(4,2,5,7)       =        -2.097206	    -120.161074
	 D(4,2,5,8)       =         2.108431	     120.804220
	 D(4,2,5,9)       =         0.005591	       0.320325
	 D(4,6,9,5)       =         0.003408	       0.195236
	 D(4,6,9,12)      =        -2.099389	    -120.286141
	 D(4,6,9,13)      =         2.106254	     120.679441
	 D(5,2,4,6)       =        -0.003695	      -0.211703
	 D(5,9,6,10)      =        -2.085852	    -119.510530
	 D(5,9,6,11)      =         2.092681	     119.901800
	 D(6,9,5,7)       =         2.093887	     119.970890
	 D(6,9,5,8)       =        -2.104552	    -120.581966
	 D(7,5,9,12)      =        -2.090091	    -119.753379
	 D(7,5,9,13)      =        -0.005340	      -0.305955
	 D(8,5,9,12)      =        -0.005345	      -0.306235
	 D(8,5,9,13)      =         2.079406	     119.141189
	 D(10,6,9,12)     =         2.094536	     120.008093
	 D(10,6,9,13)     =         0.016994	       0.973675
	 D(11,6,9,12)     =        -0.010116	      -0.579577
	 D(11,6,9,13)     =        -2.087658	    -119.613996

	Current energy   :      -231.0551594084

	Energy change for the previous step:
		Projected    :        -0.0000074093
		Actual       :        -0.0000006786
	Energy ratio indicates iffy step: Trust radius decreased to 1.250e-01.


	Performing BFGS update.
	Previous computed or guess Hessian on step 1.
	Denominators (dg)(dq) or (dq)(dq) are very small.
	 Skipping Hessian update for step 3.
	Steps to be used in Hessian update: 2 1
	Taking RFO optimization step.
	Going to follow RFO solution 1.
	Using RFO vector 1.
	Norm of target step-size    0.05091
	Projected energy change by RFO approximation:         0.0001771471

	Back-transformation to cartesian coordinates...
	Successfully converged to displaced geometry.

	--- Internal Coordinate Step in ANG or DEG, aJ/ANG or AJ/DEG ---
	 ---------------------------------------------------------------------------
	   Coordinate                Previous        Force       Change         New 
	   ----------                --------       ------       ------       ------
	    1 R(1,2)          =      1.083898    -0.000048     0.000058     1.083955
	    2 R(2,3)          =      1.083921     0.000139     0.000075     1.083996
	    3 R(2,4)          =      1.400979     0.000091    -0.000660     1.400319
	    4 R(2,5)          =      1.535499    -0.000020     0.000191     1.535690
	    5 R(4,6)          =      1.400979     0.000092    -0.000571     1.400408
	    6 R(5,7)          =      1.081298     0.000353    -0.000273     1.081024
	    7 R(5,8)          =      1.081325     0.000159    -0.000136     1.081189
	    8 R(5,9)          =      1.538736    -0.000223     0.000321     1.539057
	    9 R(6,9)          =      1.535511    -0.000054     0.000256     1.535766
	   10 R(6,10)         =      1.083900     0.000101    -0.000000     1.083900
	   11 R(6,11)         =      1.083894     0.000121    -0.000016     1.083878
	   12 R(9,12)         =      1.081292     0.000393    -0.000299     1.080993
	   13 R(9,13)         =      1.081315     0.000210    -0.000182     1.081133
	   14 B(1,2,3)        =    107.654470     0.000001    -0.048311   107.606159
	   15 B(1,2,4)        =    108.827118    -0.000001    -0.008881   108.818236
	   16 B(1,2,5)        =    111.662213    -0.000000     0.017455   111.679668
	   17 B(2,4,6)        =    113.411977    -0.000002     0.011044   113.423021
	   18 B(2,5,7)        =    110.995677     0.000000     0.027193   111.022870
	   19 B(2,5,8)        =    110.995765    -0.000000     0.029627   111.025392
	   20 B(2,5,9)        =    105.163869     0.000000    -0.026755   105.137115
	   21 B(3,2,4)        =    108.842044     0.000001     0.010288   108.852332
	   22 B(3,2,5)        =    111.659948    -0.000001     0.009676   111.669624
	   23 B(4,2,5)        =    108.129840     0.000001     0.019322   108.149163
	   24 B(4,6,9)        =    108.129687     0.000001     0.016411   108.146098
	   25 B(4,6,10)       =    108.833888    -0.000000    -0.005919   108.827969
	   26 B(4,6,11)       =    108.835748    -0.000000     0.001686   108.837434
	   27 B(5,9,6)        =    105.163563     0.000000    -0.028189   105.135375
	   28 B(5,9,12)       =    111.307273    -0.000000    -0.020964   111.286309
	   29 B(5,9,13)       =    111.309707    -0.000000    -0.014741   111.294966
	   30 B(6,9,12)       =    110.995700    -0.000000     0.025276   111.020976
	   31 B(6,9,13)       =    110.995530    -0.000000     0.026483   111.022012
	   32 B(7,5,8)        =    107.136850     0.000000     0.010396   107.147246
	   33 B(7,5,9)        =    111.307147    -0.000000    -0.018533   111.288614
	   34 B(8,5,9)        =    111.309189     0.000000    -0.021855   111.287333
	   35 B(9,6,10)       =    111.661731    -0.000001     0.015816   111.677546
	   36 B(9,6,11)       =    111.659249    -0.000001     0.009190   111.668440
	   37 B(10,6,11)      =    107.655364     0.000001    -0.037794   107.617571
	   38 B(12,9,13)      =    107.136732     0.000000     0.012114   107.148846
	   39 D(1,2,4,6)      =   -121.679006    -0.000000    -0.436023  -122.115029
	   40 D(1,2,5,7)      =     -0.463271     0.000000     0.658284     0.195013
	   41 D(1,2,5,8)      =   -119.497977     0.000000     0.608152  -118.889825
	   42 D(1,2,5,9)      =    120.018128     0.000000     0.634554   120.652681
	   43 D(2,4,6,9)      =      0.008236     0.000000     0.011191     0.019427
	   44 D(2,4,6,10)     =    121.478875    -0.000000     0.036698   121.515574
	   45 D(2,4,6,11)     =   -121.460500     0.000000    -0.010800  -121.471300
	   46 D(2,5,9,6)      =     -0.304933    -0.000000    -0.594759    -0.899692
	   47 D(2,5,9,12)     =    119.970798    -0.000000    -0.592901   119.377897
	   48 D(2,5,9,13)     =   -120.581778    -0.000000    -0.601431  -121.183208
	   49 D(3,2,4,6)      =    121.261703    -0.000000    -0.379101   120.882601
	   50 D(3,2,5,7)      =    120.124075     0.000000     0.615256   120.739331
	   51 D(3,2,5,8)      =      1.089369     0.000000     0.565124     1.654493
	   52 D(3,2,5,9)      =   -119.394526     0.000000     0.591526  -118.803000
	   53 D(4,2,5,7)      =   -120.161074     0.000000     0.646252  -119.514822
	   54 D(4,2,5,8)      =    120.804220     0.000000     0.596119   121.400339
	   55 D(4,2,5,9)      =      0.320325     0.000000     0.622521     0.942846
	   56 D(4,6,9,5)      =      0.195236     0.000000     0.383867     0.579103
	   57 D(4,6,9,12)     =   -120.286141     0.000000     0.412415  -119.873726
	   58 D(4,6,9,13)     =    120.679441     0.000000     0.363435   121.042875
	   59 D(5,2,4,6)      =     -0.211703    -0.000000    -0.408543    -0.620246
	   60 D(5,9,6,10)     =   -119.510530     0.000000     0.371043  -119.139487
	   61 D(5,9,6,11)     =    119.901800     0.000000     0.402071   120.303871
	   62 D(6,9,5,7)      =    119.970890    -0.000000    -0.588410   119.382480
	   63 D(6,9,5,8)      =   -120.581966    -0.000000    -0.602236  -121.184202
	   64 D(7,5,9,12)     =   -119.753379    -0.000000    -0.586552  -120.339931
	   65 D(7,5,9,13)     =     -0.305955    -0.000000    -0.595081    -0.901036
	   66 D(8,5,9,12)     =     -0.306235    -0.000000    -0.600378    -0.906613
	   67 D(8,5,9,13)     =    119.141189    -0.000000    -0.608907   118.532282
	   68 D(10,6,9,12)    =    120.008093     0.000000     0.399592   120.407685
	   69 D(10,6,9,13)    =      0.973675     0.000000     0.350611     1.324286
	   70 D(11,6,9,12)    =     -0.579577     0.000000     0.430620    -0.148958
	   71 D(11,6,9,13)    =   -119.613996     0.000000     0.381639  -119.232357
	 ---------------------------------------------------------------------------

  ==> Convergence Check <==

  Measures of convergence in internal coordinates in au.
  Criteria marked as inactive (o), active & met (*), and active & unmet ( ).
  ---------------------------------------------------------------------------------------------
   Step     Total Energy     Delta E     MAX Force     RMS Force      MAX Disp      RMS Disp   
  ---------------------------------------------------------------------------------------------
    Convergence Criteria    1.00e-06 *    3.00e-04 *             o    1.20e-03 *             o
  ---------------------------------------------------------------------------------------------
      4    -231.05515941   -6.79e-07 *    4.76e-05 *    1.31e-05 o    1.15e-02      6.04e-03 o  ~
  ---------------------------------------------------------------------------------------------


  **** Optimization is complete! (in 4 steps) ****

  ==> Optimization Summary <==

  Measures of convergence in internal coordinates in au.
  --------------------------------------------------------------------------------------------------------------- ~
   Step         Total Energy             Delta E       MAX Force       RMS Force        MAX Disp        RMS Disp  ~
  --------------------------------------------------------------------------------------------------------------- ~
      1    -231.055114745784   -231.055114745784      0.00218026      0.00064259      0.00753785      0.00247511  ~
      2    -231.055156895909     -0.000042150125      0.00052032      0.00011876      0.00195997      0.00088577  ~
      3    -231.055158729716     -0.000001833806      0.00012492      0.00003216      0.00290843      0.00152063  ~
      4    -231.055159408365     -0.000000678649      0.00004765      0.00001309      0.01148923      0.00604245  ~
  --------------------------------------------------------------------------------------------------------------- ~

	Writing optimization data to binary file.
	Final energy is   -231.0551594083647
	Final (previous) structure:
	Cartesian Geometry (in Angstrom)
	    H     1.7599611425  -0.6769398589  -0.8713503348
	    C     1.1709873137  -0.4200454863   0.0015469517
	    H     1.7549215059  -0.6744007606   0.8785930940
	    O    -0.0001089942  -1.1889856065  -0.0009300279
	    C     0.7694651501   1.0620226388  -0.0017325073
	    C    -1.1710693925  -0.4198338568  -0.0007974290
	    H     1.1603588853   1.5673869198  -0.8740936690
	    H     1.1645233076   1.5723769752   0.8658684487
	    C    -0.7692665957   1.0621715427   0.0019093643
	    H    -1.7567539021  -0.6739833786  -0.8767094536
	    H    -1.7583731076  -0.6766930202   0.8732304918
	    H    -1.1600630426   1.5679436172   0.8740704966
	    H    -1.1642318257   1.5722571507  -0.8658791001
	Saving final (previous) structure.
			--------------------------
			 OPTKING Finished Execution 
			--------------------------

    Final optimized geometry and variables:
    Molecular point group: c1
    Full point group: C1

    Geometry (in Angstrom), charge = 0, multiplicity = 1:

    H            1.759961008126    -0.676939807226    -0.871350268251
    C            1.170987224270    -0.420045454222     0.001546951575
    H            1.754921371937    -0.674400709148     0.878593026887
    O           -0.000108994238    -1.188985515708    -0.000930027831
    C            0.769465091315     1.062022557704    -0.001732507195
    C           -1.171069303085    -0.419833824761    -0.000797428912
    H            1.160358796664     1.567386800127    -0.874093602240
    H            1.164523218699     1.572376855125     0.865868382600
    C           -0.769266536971     1.062171461561     0.001909364143
    H           -1.756753767909    -0.673983327182    -0.876709386700
    H           -1.758372973308    -0.676692968520     0.873230425140
    H           -1.160062953973     1.567943497488     0.874070429827
    H           -1.164231736770     1.572257030661    -0.865879033999

	Cleaning optimization helper files.


Properties will be evaluated at   0.000000,   0.000000,   0.000000 Bohr

Properties computed using the  density matrix

  Nuclear Dipole Moment: (a.u.)
     X:     0.0003      Y:     3.3485      Z:     0.0035

  Electronic Dipole Moment: (a.u.)
     X:    -0.0003      Y:    -2.6440      Z:    -0.0027

  Dipole Moment: (a.u.)
     X:     0.0001      Y:     0.7045      Z:     0.0008     Total:     0.7045

  Dipole Moment: (Debye)
     X:     0.0001      Y:     1.7906      Z:     0.0020     Total:     1.7906

  Quadrupole Moment: (Debye Ang)
    XX:   -29.5105     YY:   -34.9723     ZZ:   -30.5828
    XY:    -0.0005     XZ:     0.0013     YZ:    -0.0031

  Traceless Quadrupole Moment: (Debye Ang)
    XX:     2.1781     YY:    -3.2838     ZZ:     1.1057
    XY:    -0.0005     XZ:     0.0013     YZ:    -0.0031

  Mulliken Charges: (a.u.)
   Center  Symbol    Alpha    Beta     Spin     Total
       1     H     0.46482  0.46482  0.00000  0.07036
       2     C     2.97061  2.97061  0.00000  0.05878
       3     H     0.46491  0.46491  0.00000  0.07018
       4     O     4.18717  4.18717  0.00000 -0.37434
       5     C     3.11149  3.11149  0.00000 -0.22297
       6     C     2.97061  2.97061  0.00000  0.05878
       7     H     0.44729  0.44729  0.00000  0.10543
       8     H     0.44731  0.44731  0.00000  0.10539
       9     C     3.11149  3.11149  0.00000 -0.22298
      10     H     0.46486  0.46486  0.00000  0.07029
      11     H     0.46487  0.46487  0.00000  0.07026
      12     H     0.44729  0.44729  0.00000  0.10543
      13     H     0.44730  0.44730  0.00000  0.10540

   Total alpha = 20.00000, Total beta = 20.00000, Total charge = -0.00000


*** PSI4 exiting successfully. Buy a developer a beer!
