    -----------------------------------------------------------------------
          Psi4: An Open-Source Ab Initio Electronic Structure Package
                              Psi4 (no tag) Driver

                          Git: Rev {detached?}  

    J. M. Turney, A. C. Simmonett, R. M. Parrish, E. G. Hohenstein,
    F. A. Evangelista, J. T. Fermann, B. J. Mintz, L. A. Burns, J. J. Wilke,
    M. L. Abrams, N. J. Russ, M. L. Leininger, C. L. Janssen, E. T. Seidl,
    W. D. Allen, H. F. Schaefer, R. A. King, E. F. Valeev, C. D. Sherrill,
    and T. D. Crawford, WIREs Comput. Mol. Sci. 2, 556-565 (2012)
    (doi: 10.1002/wcms.93)

                         Additional Contributions by
    A. E. DePrince, M. Saitow, U. Bozkaya, A. Yu. Sokolov
    -----------------------------------------------------------------------


    Psi4 started on: Fri Sep  9 21:30:11 2016

    Process ID:  21879
    PSI4DATADIR: /export131/home/mjharvey/miniconda3/share
    Memory level set to 256.000 MB

  ==> Input File <==

--------------------------------------------------------------------------
set {
	reference rhf
	basis cc-pvtz
}


set_num_threads( 4 )
memory 2 gb

molecule MOL {
0 1

H	 5.269878	 0.195679	 1.068175
C	 4.673900	 -0.208485	 0.258034
C	 3.190199	 -0.204714	 0.610086
H	 4.865136	 0.391893	 -0.624684
H	 5.027838	 -1.214511	 0.056939
C	 2.319208	 -0.778154	 -0.505491
H	 2.876954	 0.809861	 0.827925
H	 3.035335	 -0.782733	 1.518235
C	 2.335851	 -2.301687	 -0.579364
H	 1.297665	 -0.442570	 -0.376410
H	 2.662350	 -0.387118	 -1.458973
C	 1.592199	 -2.999671	 0.546817
H	 1.864703	 -2.631174	 -1.501982
H	 3.353868	 -2.678011	 -0.618621
C	 1.885391	 -4.470234	 0.772326
O	 0.794080	 -2.427244	 1.216599
C	 1.491711	 -5.365984	 -0.407085
H	 1.347471	 -4.767761	 1.662246
H	 2.948191	 -4.581695	 0.970389
C	 1.710550	 -6.847310	 -0.111361
H	 0.445491	 -5.198923	 -0.648146
H	 2.061261	 -5.092738	 -1.289666
C	 1.315632	 -7.750710	 -1.274561
H	 1.140513	 -7.123589	 0.770569
H	 2.755550	 -7.012513	 0.136140
H	 0.266999	 -7.630467	 -1.524744
H	 1.895198	 -7.522503	 -2.162867
H	 1.479873	 -8.794066	 -1.032191

	symmetry c1
}
set optking {
	frozen_dihedral = ("
		10 6 3 2
	")
}

ee = optimize('scf')
oeprop('DIPOLE', 'QUADRUPOLE', 'MULLIKEN_CHARGES')
f=open( 'psi4out.xyz', 'w' )
f.write( "28  " )
f.write( str(ee) + "\n" )
f.write( MOL.save_string_xyz() )
f.close()
--------------------------------------------------------------------------

  Memory set to   2.000 GiB by Python script.
gradient() will perform analytic gradient computation.

*** tstart() called on cx1-27-4-2
*** at Fri Sep  9 21:30:11 2016


         ---------------------------------------------------------
                                   SCF
            by Justin Turney, Rob Parrish, and Andy Simmonett
                              RHF Reference
                        4 Threads,   2000 MiB Core
         ---------------------------------------------------------

  ==> Geometry <==

    Molecular point group: c1
    Full point group: C1

    Geometry (in Angstrom), charge = 0, multiplicity = 1:

       Center              X                  Y                   Z               Mass       
    ------------   -----------------  -----------------  -----------------  -----------------
           H          3.132343094520     3.536951419705     1.019549226609     1.007825032070
           C          2.536365094520     3.132787419705     0.209408226609    12.000000000000
           C          1.052664094520     3.136558419705     0.561460226609    12.000000000000
           H          2.727601094520     3.733165419705    -0.673309773391     1.007825032070
           H          2.890303094520     2.126761419705     0.008313226609     1.007825032070
           C          0.181673094520     2.563118419705    -0.554116773391    12.000000000000
           H          0.739419094520     4.151133419705     0.779299226609     1.007825032070
           H          0.897800094520     2.558539419705     1.469609226609     1.007825032070
           C          0.198316094520     1.039585419705    -0.627989773391    12.000000000000
           H         -0.839869905480     2.898702419705    -0.425035773391     1.007825032070
           H          0.524815094520     2.954154419705    -1.507598773391     1.007825032070
           C         -0.545335905480     0.341601419705     0.498191226609    12.000000000000
           H         -0.272831905480     0.710098419705    -1.550607773391     1.007825032070
           H          1.216333094520     0.663261419705    -0.667246773391     1.007825032070
           C         -0.252143905480    -1.128961580295     0.723700226609    12.000000000000
           O         -1.343454905480     0.914028419705     1.167973226609    15.994914619560
           C         -0.645823905480    -2.024711580295    -0.455710773391    12.000000000000
           H         -0.790063905480    -1.426488580295     1.613620226609     1.007825032070
           H          0.810656094520    -1.240422580295     0.921763226609     1.007825032070
           C         -0.426984905480    -3.506037580295    -0.159986773391    12.000000000000
           H         -1.692043905480    -1.857650580295    -0.696771773391     1.007825032070
           H         -0.076273905480    -1.751465580295    -1.338291773391     1.007825032070
           C         -0.821902905480    -4.409437580295    -1.323186773391    12.000000000000
           H         -0.997021905480    -3.782316580295     0.721943226609     1.007825032070
           H          0.618015094520    -3.671240580295     0.087514226609     1.007825032070
           H         -1.870535905480    -4.289194580295    -1.573369773391     1.007825032070
           H         -0.242336905480    -4.181230580295    -2.211492773391     1.007825032070
           H         -0.657661905480    -5.452793580295    -1.080816773391     1.007825032070

  Running in c1 symmetry.

  Rotational constants: A =      0.09211  B =      0.01515  C =      0.01431 [cm^-1]
  Rotational constants: A =   2761.33165  B =    454.26457  C =    429.03667 [MHz]
  Nuclear repulsion =  536.887197031249912

  Charge       = 0
  Multiplicity = 1
  Electrons    = 80
  Nalpha       = 40
  Nbeta        = 40

  ==> Algorithm <==

  SCF Algorithm Type is DF.
  DIIS enabled.
  MOM disabled.
  Fractional occupation disabled.
  Guess Type is CORE.
  Energy threshold   = 1.00e-08
  Density threshold  = 1.00e-08
  Integral threshold = 0.00e+00

  ==> Primary Basis <==

  Basis Set: CC-PVTZ
    Number of shells: 208
    Number of basis function: 552
    Number of Cartesian functions: 620
    Spherical Harmonics?: true
    Max angular momentum: 3

  ==> Pre-Iterations <==

   -------------------------------------------------------
    Irrep   Nso     Nmo     Nalpha   Nbeta   Ndocc  Nsocc
   -------------------------------------------------------
     A        552     552       0       0       0       0
   -------------------------------------------------------
    Total     552     552      40      40      40       0
   -------------------------------------------------------

 OEINTS: Overlap, kinetic, potential, dipole, and quadrupole integrals
         stored in file 35.

  ==> Integral Setup <==

  ==> DFJK: Density-Fitted J/K Matrices <==

    J tasked:                  Yes
    K tasked:                  Yes
    wK tasked:                  No
    OpenMP threads:              4
    Integrals threads:           4
    Memory (MB):              1430
    Algorithm:                Core
    Integral Cache:           NONE
    Schwarz Cutoff:          1E-12
    Fitting Condition:       1E-12

   => Auxiliary Basis Set <=

  Basis Set: 
    Number of shells: 430
    Number of basis function: 1330
    Number of Cartesian functions: 1590
    Spherical Harmonics?: true
    Max angular momentum: 4

  Minimum eigenvalue in the overlap matrix is 2.4877492761E-04.
  Using Symmetric Orthogonalization.
  SCF Guess: Core (One-Electron) Hamiltonian.

  ==> Iterations <==

                           Total Energy        Delta E     RMS |[F,P]|

   @DF-RHF iter   1:  -188.31249901080844   -1.88312e+02   3.54805e-02 
   @DF-RHF iter   2:   -16.70232416238446    1.71610e+02   3.50610e-02 DIIS
   @DF-RHF iter   3:  -246.68863925202970   -2.29986e+02   2.33076e-02 DIIS
   @DF-RHF iter   4:  -232.22756419754558    1.44611e+01   2.64695e-02 DIIS
   @DF-RHF iter   5:  -388.24993362677162   -1.56022e+02   1.33058e-02 DIIS
   @DF-RHF iter   6:  -380.00244361911700    8.24749e+00   1.17294e-02 DIIS
   @DF-RHF iter   7:  -394.63292445636421   -1.46305e+01   8.79715e-03 DIIS
   @DF-RHF iter   8:  -412.60657692841039   -1.79737e+01   5.49156e-03 DIIS
   @DF-RHF iter   9:  -418.07451947016500   -5.46794e+00   4.28010e-03 DIIS
   @DF-RHF iter  10:  -426.12834914647169   -8.05383e+00   1.05389e-03 DIIS
   @DF-RHF iter  11:  -426.29706615264342   -1.68717e-01   3.39494e-04 DIIS
   @DF-RHF iter  12:  -426.31418052278252   -1.71144e-02   1.17294e-04 DIIS
   @DF-RHF iter  13:  -426.31663507870542   -2.45456e-03   5.67659e-05 DIIS
   @DF-RHF iter  14:  -426.31719313754104   -5.58059e-04   2.38380e-05 DIIS
   @DF-RHF iter  15:  -426.31729389904979   -1.00762e-04   1.08849e-05 DIIS
   @DF-RHF iter  16:  -426.31731730767285   -2.34086e-05   5.15071e-06 DIIS
   @DF-RHF iter  17:  -426.31732352059885   -6.21293e-06   1.49171e-06 DIIS
   @DF-RHF iter  18:  -426.31732408734263   -5.66744e-07   2.99007e-07 DIIS
   @DF-RHF iter  19:  -426.31732411568589   -2.83433e-08   8.98767e-08 DIIS
   @DF-RHF iter  20:  -426.31732411873486   -3.04897e-09   2.95920e-08 DIIS
   @DF-RHF iter  21:  -426.31732411927828   -5.43423e-10   1.38315e-08 DIIS
   @DF-RHF iter  22:  -426.31732411944824   -1.69962e-10   6.15585e-09 DIIS

  ==> Post-Iterations <==

    Orbital Energies (a.u.)
    -----------------------

    Doubly Occupied:                                                      

       1A    -20.536578     2A    -11.316443     3A    -11.229872  
       4A    -11.227983     5A    -11.227008     6A    -11.223846  
       7A    -11.214318     8A    -11.214255     9A    -11.211227  
      10A    -11.207450    11A     -1.396423    12A     -1.096565  
      13A     -1.080640    14A     -1.023118    15A     -0.990347  
      16A     -0.910422    17A     -0.879158    18A     -0.809295  
      19A     -0.797654    20A     -0.721448    21A     -0.667334  
      22A     -0.653050    23A     -0.643666    24A     -0.622167  
      25A     -0.605481    26A     -0.598978    27A     -0.577548  
      28A     -0.565176    29A     -0.542035    30A     -0.539619  
      31A     -0.526870    32A     -0.510255    33A     -0.502752  
      34A     -0.485703    35A     -0.480352    36A     -0.476627  
      37A     -0.469794    38A     -0.461715    39A     -0.459202  
      40A     -0.394297  

    Virtual:                                                              

      41A      0.129662    42A      0.140990    43A      0.147365  
      44A      0.163638    45A      0.171284    46A      0.172156  
      47A      0.182330    48A      0.184831    49A      0.200963  
      50A      0.210295    51A      0.219516    52A      0.227712  
      53A      0.229176    54A      0.235832    55A      0.241475  
      56A      0.253263    57A      0.262092    58A      0.264908  
      59A      0.285693    60A      0.300840    61A      0.315364  
      62A      0.334158    63A      0.348041    64A      0.350144  
      65A      0.360820    66A      0.369683    67A      0.377426  
      68A      0.392935    69A      0.398598    70A      0.406974  
      71A      0.416067    72A      0.424137    73A      0.442994  
      74A      0.448436    75A      0.455924    76A      0.469680  
      77A      0.486279    78A      0.501284    79A      0.510758  
      80A      0.529459    81A      0.541565    82A      0.556024  
      83A      0.561200    84A      0.565891    85A      0.574038  
      86A      0.584112    87A      0.595455    88A      0.605757  
      89A      0.608729    90A      0.615920    91A      0.624625  
      92A      0.631173    93A      0.636223    94A      0.639339  
      95A      0.647188    96A      0.649278    97A      0.656116  
      98A      0.662877    99A      0.667728   100A      0.669325  
     101A      0.679905   102A      0.683047   103A      0.691462  
     104A      0.696434   105A      0.701157   106A      0.704509  
     107A      0.710278   108A      0.718197   109A      0.726915  
     110A      0.731932   111A      0.739157   112A      0.756240  
     113A      0.784313   114A      0.790866   115A      0.794956  
     116A      0.833120   117A      0.837756   118A      0.851197  
     119A      0.853391   120A      0.882267   121A      0.892241  
     122A      0.912968   123A      0.918729   124A      0.927946  
     125A      0.936089   126A      0.946510   127A      0.958571  
     128A      0.976522   129A      0.992361   130A      0.994900  
     131A      1.021169   132A      1.024756   133A      1.048791  
     134A      1.052338   135A      1.059144   136A      1.073249  
     137A      1.091264   138A      1.098069   139A      1.112325  
     140A      1.129277   141A      1.147705   142A      1.158323  
     143A      1.175627   144A      1.181058   145A      1.195375  
     146A      1.203644   147A      1.215577   148A      1.230776  
     149A      1.233906   150A      1.235712   151A      1.252647  
     152A      1.260166   153A      1.266834   154A      1.274555  
     155A      1.285621   156A      1.293170   157A      1.303516  
     158A      1.316436   159A      1.329557   160A      1.330617  
     161A      1.336265   162A      1.340142   163A      1.348549  
     164A      1.357700   165A      1.363915   166A      1.382157  
     167A      1.389432   168A      1.395191   169A      1.401687  
     170A      1.407246   171A      1.416332   172A      1.421588  
     173A      1.425932   174A      1.435003   175A      1.440844  
     176A      1.442055   177A      1.461382   178A      1.473535  
     179A      1.476538   180A      1.486116   181A      1.487838  
     182A      1.500916   183A      1.509268   184A      1.526065  
     185A      1.535972   186A      1.541142   187A      1.547078  
     188A      1.566989   189A      1.574164   190A      1.579629  
     191A      1.594297   192A      1.607477   193A      1.610218  
     194A      1.620375   195A      1.630810   196A      1.636018  
     197A      1.645756   198A      1.658673   199A      1.676622  
     200A      1.686617   201A      1.693611   202A      1.700091  
     203A      1.721319   204A      1.728417   205A      1.737862  
     206A      1.742827   207A      1.759675   208A      1.764196  
     209A      1.797590   210A      1.809817   211A      1.813100  
     212A      1.814126   213A      1.831078   214A      1.837054  
     215A      1.844269   216A      1.859403   217A      1.862858  
     218A      1.896629   219A      1.920677   220A      1.926222  
     221A      1.969860   222A      1.980445   223A      2.025483  
     224A      2.059286   225A      2.095282   226A      2.150141  
     227A      2.270745   228A      2.367464   229A      2.465889  
     230A      2.496731   231A      2.523779   232A      2.539182  
     233A      2.563651   234A      2.576805   235A      2.593956  
     236A      2.611683   237A      2.612909   238A      2.627577  
     239A      2.675662   240A      2.690400   241A      2.693910  
     242A      2.705056   243A      2.708837   244A      2.725417  
     245A      2.739840   246A      2.771451   247A      2.777121  
     248A      2.784739   249A      2.794336   250A      2.806597  
     251A      2.820233   252A      2.831296   253A      2.841853  
     254A      2.848668   255A      2.862214   256A      2.880534  
     257A      2.894151   258A      2.894897   259A      2.920250  
     260A      2.923485   261A      2.930358   262A      2.946362  
     263A      2.951541   264A      2.967225   265A      2.978392  
     266A      2.989210   267A      2.994190   268A      3.023432  
     269A      3.030077   270A      3.037696   271A      3.056121  
     272A      3.066800   273A      3.084950   274A      3.096366  
     275A      3.100856   276A      3.116333   277A      3.124225  
     278A      3.127498   279A      3.134287   280A      3.148683  
     281A      3.153668   282A      3.174390   283A      3.177955  
     284A      3.191275   285A      3.199105   286A      3.210024  
     287A      3.237234   288A      3.255362   289A      3.259939  
     290A      3.262312   291A      3.279840   292A      3.287602  
     293A      3.292123   294A      3.319847   295A      3.327087  
     296A      3.333738   297A      3.336156   298A      3.341466  
     299A      3.344990   300A      3.361455   301A      3.367408  
     302A      3.383095   303A      3.402134   304A      3.402806  
     305A      3.411568   306A      3.414198   307A      3.417203  
     308A      3.422239   309A      3.428582   310A      3.441813  
     311A      3.446114   312A      3.448532   313A      3.457785  
     314A      3.463163   315A      3.470334   316A      3.479832  
     317A      3.494444   318A      3.503826   319A      3.513099  
     320A      3.521281   321A      3.525625   322A      3.535976  
     323A      3.547488   324A      3.549859   325A      3.558880  
     326A      3.566196   327A      3.581879   328A      3.598825  
     329A      3.605645   330A      3.611518   331A      3.615787  
     332A      3.633700   333A      3.656897   334A      3.672795  
     335A      3.675582   336A      3.685687   337A      3.697470  
     338A      3.712589   339A      3.732890   340A      3.743957  
     341A      3.752769   342A      3.764363   343A      3.771892  
     344A      3.778529   345A      3.789888   346A      3.796333  
     347A      3.803249   348A      3.819089   349A      3.831406  
     350A      3.851399   351A      3.858439   352A      3.864631  
     353A      3.871517   354A      3.887297   355A      3.888494  
     356A      3.899883   357A      3.908483   358A      3.928489  
     359A      3.939292   360A      3.946615   361A      3.963745  
     362A      3.966882   363A      3.977890   364A      3.992002  
     365A      4.008498   366A      4.009680   367A      4.032500  
     368A      4.043294   369A      4.060641   370A      4.082171  
     371A      4.085530   372A      4.094352   373A      4.105685  
     374A      4.119460   375A      4.122751   376A      4.143671  
     377A      4.151437   378A      4.156523   379A      4.169868  
     380A      4.173282   381A      4.180574   382A      4.183128  
     383A      4.191440   384A      4.198200   385A      4.215942  
     386A      4.220194   387A      4.229203   388A      4.239664  
     389A      4.248763   390A      4.261933   391A      4.268340  
     392A      4.282839   393A      4.295596   394A      4.305276  
     395A      4.316230   396A      4.318863   397A      4.324438  
     398A      4.330576   399A      4.343597   400A      4.349739  
     401A      4.356946   402A      4.360397   403A      4.389881  
     404A      4.403003   405A      4.411945   406A      4.414561  
     407A      4.424543   408A      4.427521   409A      4.443018  
     410A      4.446394   411A      4.465735   412A      4.469779  
     413A      4.481021   414A      4.484600   415A      4.490173  
     416A      4.496585   417A      4.515777   418A      4.527297  
     419A      4.537002   420A      4.554291   421A      4.563054  
     422A      4.573484   423A      4.581773   424A      4.592504  
     425A      4.603228   426A      4.613908   427A      4.633577  
     428A      4.643200   429A      4.643637   430A      4.653472  
     431A      4.656335   432A      4.675703   433A      4.685855  
     434A      4.697041   435A      4.705071   436A      4.727066  
     437A      4.745304   438A      4.748872   439A      4.767796  
     440A      4.773346   441A      4.785834   442A      4.789630  
     443A      4.808555   444A      4.812405   445A      4.842889  
     446A      4.874802   447A      4.899383   448A      4.936708  
     449A      4.956827   450A      4.966673   451A      5.015127  
     452A      5.026079   453A      5.028092   454A      5.035712  
     455A      5.047394   456A      5.055452   457A      5.088393  
     458A      5.111024   459A      5.129133   460A      5.148832  
     461A      5.151956   462A      5.178122   463A      5.194483  
     464A      5.206376   465A      5.218483   466A      5.227559  
     467A      5.237875   468A      5.254106   469A      5.260664  
     470A      5.275227   471A      5.297607   472A      5.306536  
     473A      5.312367   474A      5.347849   475A      5.351289  
     476A      5.364231   477A      5.371127   478A      5.387932  
     479A      5.403763   480A      5.415370   481A      5.440561  
     482A      5.448894   483A      5.468917   484A      5.470537  
     485A      5.490212   486A      5.517222   487A      5.538128  
     488A      5.548870   489A      5.560538   490A      5.597532  
     491A      5.604730   492A      5.625166   493A      5.637331  
     494A      5.639022   495A      5.654885   496A      5.700219  
     497A      5.718595   498A      5.735337   499A      5.746876  
     500A      5.748696   501A      5.756425   502A      5.763036  
     503A      5.772850   504A      5.788927   505A      5.811064  
     506A      5.817220   507A      5.832320   508A      5.853675  
     509A      5.862882   510A      5.883518   511A      5.897517  
     512A      5.902806   513A      5.917138   514A      5.924308  
     515A      5.931401   516A      5.940751   517A      5.970254  
     518A      6.007370   519A      6.018923   520A      6.057244  
     521A      6.100396   522A      6.134575   523A      6.154530  
     524A      6.252967   525A      6.292681   526A      6.324447  
     527A      6.324989   528A      6.332050   529A      6.340533  
     530A      6.400257   531A      6.412579   532A      6.452854  
     533A      6.476175   534A      6.513118   535A      6.816826  
     536A      6.865632   537A      6.972000   538A      7.055041  
     539A      7.234083   540A      7.406721   541A      7.606131  
     542A      7.642380   543A      9.865165   544A     13.126768  
     545A     13.238619   546A     13.499452   547A     13.629730  
     548A     13.887675   549A     13.971318   550A     14.259365  
     551A     14.283674   552A     14.520873  

    Final Occupation by Irrep:
              A 
    DOCC [    40 ]

  Energy converged.

  @DF-RHF Final Energy:  -426.31732411944824

   => Energetics <=

    Nuclear Repulsion Energy =            536.8871970312499116
    One-Electron Energy =               -1642.2157057206379704
    Two-Electron Energy =                 679.0111845699401556
    DFT Exchange-Correlation Energy =       0.0000000000000000
    Empirical Dispersion Energy =           0.0000000000000000
    PCM Polarization Energy =               0.0000000000000000
    EFP Energy =                            0.0000000000000000
    Total Energy =                       -426.3173241194477896

    Alert: EFP and PCM quantities not currently incorporated into SCF psivars.

Properties will be evaluated at   0.000000,   0.000000,   0.000000 Bohr
  ==> Properties <==


Properties computed using the SCF density matrix

  Nuclear Dipole Moment: (a.u.)
     X:     5.7296      Y:    -4.0455      Z:    -4.7782

  Electronic Dipole Moment: (a.u.)
     X:    -5.0260      Y:     3.4234      Z:     4.1055

  Dipole Moment: (a.u.)
     X:     0.7036      Y:    -0.6221      Z:    -0.6727     Total:     1.1553

  Dipole Moment: (Debye)
     X:     1.7883      Y:    -1.5813      Z:    -1.7099     Total:     2.9364


  Saving occupied orbitals to File 180.

*** tstop() called on cx1-27-4-2 at Fri Sep  9 21:31:13 2016
Module time:
	user time   =     213.49 seconds =       3.56 minutes
	system time =       2.66 seconds =       0.04 minutes
	total time  =         62 seconds =       1.03 minutes
Total time:
	user time   =     213.49 seconds =       3.56 minutes
	system time =       2.66 seconds =       0.04 minutes
	total time  =         62 seconds =       1.03 minutes

*** tstart() called on cx1-27-4-2
*** at Fri Sep  9 21:31:13 2016


         ------------------------------------------------------------
                                   SCF GRAD                          
                          Rob Parrish, Justin Turney,                
                       Andy Simmonett, and Alex Sokolov              
         ------------------------------------------------------------

  ==> Geometry <==

    Molecular point group: c1
    Full point group: C1

    Geometry (in Angstrom), charge = 0, multiplicity = 1:

       Center              X                  Y                   Z               Mass       
    ------------   -----------------  -----------------  -----------------  -----------------
           H          3.132343094520     3.536951419705     1.019549226609     1.007825032070
           C          2.536365094520     3.132787419705     0.209408226609    12.000000000000
           C          1.052664094520     3.136558419705     0.561460226609    12.000000000000
           H          2.727601094520     3.733165419705    -0.673309773391     1.007825032070
           H          2.890303094520     2.126761419705     0.008313226609     1.007825032070
           C          0.181673094520     2.563118419705    -0.554116773391    12.000000000000
           H          0.739419094520     4.151133419705     0.779299226609     1.007825032070
           H          0.897800094520     2.558539419705     1.469609226609     1.007825032070
           C          0.198316094520     1.039585419705    -0.627989773391    12.000000000000
           H         -0.839869905480     2.898702419705    -0.425035773391     1.007825032070
           H          0.524815094520     2.954154419705    -1.507598773391     1.007825032070
           C         -0.545335905480     0.341601419705     0.498191226609    12.000000000000
           H         -0.272831905480     0.710098419705    -1.550607773391     1.007825032070
           H          1.216333094520     0.663261419705    -0.667246773391     1.007825032070
           C         -0.252143905480    -1.128961580295     0.723700226609    12.000000000000
           O         -1.343454905480     0.914028419705     1.167973226609    15.994914619560
           C         -0.645823905480    -2.024711580295    -0.455710773391    12.000000000000
           H         -0.790063905480    -1.426488580295     1.613620226609     1.007825032070
           H          0.810656094520    -1.240422580295     0.921763226609     1.007825032070
           C         -0.426984905480    -3.506037580295    -0.159986773391    12.000000000000
           H         -1.692043905480    -1.857650580295    -0.696771773391     1.007825032070
           H         -0.076273905480    -1.751465580295    -1.338291773391     1.007825032070
           C         -0.821902905480    -4.409437580295    -1.323186773391    12.000000000000
           H         -0.997021905480    -3.782316580295     0.721943226609     1.007825032070
           H          0.618015094520    -3.671240580295     0.087514226609     1.007825032070
           H         -1.870535905480    -4.289194580295    -1.573369773391     1.007825032070
           H         -0.242336905480    -4.181230580295    -2.211492773391     1.007825032070
           H         -0.657661905480    -5.452793580295    -1.080816773391     1.007825032070

  Nuclear repulsion =  536.887197031249912

  ==> Basis Set <==

  Basis Set: CC-PVTZ
    Number of shells: 208
    Number of basis function: 552
    Number of Cartesian functions: 620
    Spherical Harmonics?: true
    Max angular momentum: 3

  ==> DFJKGrad: Density-Fitted SCF Gradients <==

    Gradient:                    1
    J tasked:                  Yes
    K tasked:                  Yes
    wK tasked:                  No
    OpenMP threads:              4
    Integrals threads:           4
    Memory (MB):              1430
    Schwarz Cutoff:          0E+00
    Fitting Condition:       1E-12

   => Auxiliary Basis Set <=

  Basis Set: 
    Number of shells: 430
    Number of basis function: 1330
    Number of Cartesian functions: 1590
    Spherical Harmonics?: true
    Max angular momentum: 4


  -Total Gradient:
     Atom            X                  Y                   Z
    ------   -----------------  -----------------  -----------------
       1       -0.000359680734     0.000466031587     0.000025441611
       2       -0.001025462165    -0.000135685473    -0.001126167499
       3       -0.002557524186     0.002959613580    -0.001794627945
       4       -0.000294013150    -0.000095084538     0.000239408380
       5       -0.001279936933    -0.001103563766    -0.000227239172
       6        0.003843833177    -0.001021921601     0.000624800445
       7        0.000161163853    -0.000022925116     0.000056243669
       8        0.000794063873    -0.003396287445     0.000683733269
       9       -0.001016603913     0.000637849180     0.001068911828
      10       -0.000415950891     0.001561902116     0.000126063095
      11        0.000792366578    -0.000359939077     0.000022044478
      12        0.000461246137    -0.000505145287    -0.000070192302
      13       -0.000261987037     0.000065931109     0.000028758292
      14        0.001295456655     0.000724697769     0.000285677851
      15        0.000016727650    -0.000017722852     0.000042068788
      16       -0.000138667547     0.000236410253     0.000020832994
      17       -0.000012982607     0.000030175949     0.000043761485
      18        0.000005302697    -0.000012762468     0.000011141769
      19       -0.000019279394     0.000032535236     0.000001073650
      20        0.000021880951    -0.000001694420    -0.000020984772
      21       -0.000019984399    -0.000001915504    -0.000037894266
      22        0.000020302707    -0.000001662216    -0.000003290181
      23       -0.000018502707    -0.000023325851     0.000011723118
      24        0.000012956837     0.000003264435     0.000011175510
      25        0.000007587027    -0.000002932936    -0.000001740110
      26       -0.000007732007    -0.000001552309    -0.000012513023
      27        0.000006103007    -0.000004176832    -0.000001385107
      28       -0.000010683481    -0.000010113529    -0.000006825851


*** tstop() called on cx1-27-4-2 at Fri Sep  9 21:32:43 2016
Module time:
	user time   =     352.40 seconds =       5.87 minutes
	system time =       1.37 seconds =       0.02 minutes
	total time  =         90 seconds =       1.50 minutes
Total time:
	user time   =     565.90 seconds =       9.43 minutes
	system time =       4.03 seconds =       0.07 minutes
	total time  =        152 seconds =       2.53 minutes
CURRENT ENERGY: -426.3173241194

			-----------------------------------------
			 OPTKING 2.0: for geometry optimizations 
			  - R.A. King,  Bethel University        
			-----------------------------------------

	Internal coordinates to be generated automatically.
	Detected frag with atoms:  1 2 3 4 5 6 7 8 9 10 11 12 13 14 15 16 17 18 19 20
	 21 22 23 24 25 26 27 28
	---Fragment 1 Bond Connectivity---
	 1 : 2
	 2 : 1 3 4 5
	 3 : 2 6 7 8
	 4 : 2
	 5 : 2
	 6 : 3 9 10 11
	 7 : 3
	 8 : 3
	 9 : 6 12 13 14
	 10 : 6
	 11 : 6
	 12 : 9 15 16
	 13 : 9
	 14 : 9
	 15 : 12 17 18 19
	 16 : 12
	 17 : 15 20 21 22
	 18 : 15
	 19 : 15
	 20 : 17 23 24 25
	 21 : 17
	 22 : 17
	 23 : 20 26 27 28
	 24 : 20
	 25 : 20
	 26 : 23
	 27 : 23
	 28 : 23

	Assuming in current code that numbering for constraints corresponds to unified fragment.
	Frozen dihedral atom list: 
	    10     6     3     2
	---Fragment 1 Geometry and Gradient---
	 H           5.9192706029        6.6838695286        1.9266688173
	 C           4.7930354017        5.9201102558        0.3957241983
	 C           1.9892468486        5.9272364130        1.0610060628
	 H           5.1544190684        7.0546602520       -1.2723710743
	 H           5.4618812897        4.0189966332        0.0157097216
	 C           0.3433123944        4.8435918594       -1.0471289473
	 H           1.3972995861        7.8445053043        1.4726621139
	 H           1.6965963007        4.8349388034        2.7771589607
	 C           0.3747631064        1.9645317350       -1.1867286860
	 H          -1.5871241086        5.4777537140       -0.8032012084
	 H           0.9917567990        5.5825428075       -2.8489488000
	 C          -1.0305355118        0.6455331298        0.9414449801
	 H          -0.5155775817        1.3418915406       -2.9302240312
	 H           2.2985364350        1.2533824378       -1.2609136648
	 C          -0.4764829274       -2.1334282013        1.3675952306
	 O          -2.5387618432        1.7272633909        2.2071495288
	 C          -1.2204303114       -3.8261503848       -0.8611685575
	 H          -1.4930044088       -2.6956727484        3.0493003108
	 H           1.5319180066       -2.3440589658        1.7418800577
	 C          -0.8068845342       -6.6254508384       -0.3023311866
	 H          -3.1974995862       -3.5104508474       -1.3167078288
	 H          -0.1441367924       -3.3097902779       -2.5290049376
	 C          -1.5531713992       -8.3326294268       -2.5004606244
	 H          -1.8840983498       -7.1475424846        1.3642749818
	 H           1.1678792746       -6.9376392647        0.1653779210
	 H          -3.5348005831       -8.1054030874       -2.9732379775
	 H          -0.4579503832       -7.9013806952       -4.1791156866
	 H          -1.2428008894      -10.3042865259       -2.0424477015
	            -0.0003596807        0.0004660316        0.0000254416
	            -0.0010254622       -0.0001356855       -0.0011261675
	            -0.0025575242        0.0029596136       -0.0017946279
	            -0.0002940132       -0.0000950845        0.0002394084
	            -0.0012799369       -0.0011035638       -0.0002272392
	             0.0038438332       -0.0010219216        0.0006248004
	             0.0001611639       -0.0000229251        0.0000562437
	             0.0007940639       -0.0033962874        0.0006837333
	            -0.0010166039        0.0006378492        0.0010689118
	            -0.0004159509        0.0015619021        0.0001260631
	             0.0007923666       -0.0003599391        0.0000220445
	             0.0004612461       -0.0005051453       -0.0000701923
	            -0.0002619870        0.0000659311        0.0000287583
	             0.0012954567        0.0007246978        0.0002856779
	             0.0000167277       -0.0000177229        0.0000420688
	            -0.0001386675        0.0002364103        0.0000208330
	            -0.0000129826        0.0000301759        0.0000437615
	             0.0000053027       -0.0000127625        0.0000111418
	            -0.0000192794        0.0000325352        0.0000010736
	             0.0000218810       -0.0000016944       -0.0000209848
	            -0.0000199844       -0.0000019155       -0.0000378943
	             0.0000203027       -0.0000016622       -0.0000032902
	            -0.0000185027       -0.0000233259        0.0000117231
	             0.0000129568        0.0000032644        0.0000111755
	             0.0000075870       -0.0000029329       -0.0000017401
	            -0.0000077320       -0.0000015523       -0.0000125130
	             0.0000061030       -0.0000041768       -0.0000013851
	            -0.0000106835       -0.0000101135       -0.0000068259

	Previous optimization step data not found.  Starting new optimization.

	---Fragment 1 Intrafragment Coordinates---
	 - Coordinate -           - BOHR/RAD -       - ANG/DEG -
	 R(1,2)           =         2.048298	       1.083913
	 R(2,3)           =         2.881646	       1.524901
	 R(2,4)           =         2.049474	       1.084535
	 R(2,5)           =         2.050853	       1.085265
	 R(3,6)           =         2.885761	       1.527079
	 R(3,7)           =         2.048361	       1.083946
	 R(3,8)           =         2.055222	       1.087577
	 R(6,9)           =         2.882614	       1.525414
	 R(6,10)          =         2.046521	       1.082972
	 R(6,11)          =         2.052580	       1.086178
	 R(9,12)          =         2.871192	       1.519370
	 R(9,13)          =         2.054304	       1.087091
	 R(9,14)          =         2.052350	       1.086057
	 R(12,15)         =         2.865520	       1.516368
	 R(12,16)         =         2.246530	       1.188812
	 R(15,17)         =         2.895886	       1.532437
	 R(15,18)         =         2.043910	       1.081591
	 R(15,19)         =         2.053808	       1.086829
	 R(17,20)         =         2.884337	       1.526326
	 R(17,21)         =         2.053286	       1.086552
	 R(17,22)         =         2.051027	       1.085357
	 R(20,23)         =         2.881523	       1.524837
	 R(20,24)         =         2.051961	       1.085851
	 R(20,25)         =         2.053267	       1.086542
	 R(23,26)         =         2.049879	       1.084749
	 R(23,27)         =         2.050212	       1.084925
	 R(23,28)         =         2.047813	       1.083656
	 B(1,2,3)         =         1.940678	     111.192661
	 B(1,2,4)         =         1.880701	     107.756237
	 B(1,2,5)         =         1.880551	     107.747638
	 B(2,3,6)         =         1.966404	     112.666628
	 B(2,3,7)         =         1.906983	     109.262097
	 B(2,3,8)         =         1.907113	     109.269517
	 B(3,2,4)         =         1.937033	     110.983809
	 B(3,2,5)         =         1.941628	     111.247076
	 B(3,6,9)         =         1.986908	     113.841416
	 B(3,6,10)        =         1.911952	     109.546800
	 B(3,6,11)        =         1.902766	     109.020452
	 B(4,2,5)         =         1.880568	     107.748591
	 B(6,3,7)         =         1.910776	     109.479424
	 B(6,3,8)         =         1.906269	     109.221145
	 B(6,9,12)        =         2.001586	     114.682421
	 B(6,9,13)        =         1.916745	     109.821411
	 B(6,9,14)        =         1.936980	     110.980803
	 B(7,3,8)         =         1.863454	     106.768058
	 B(9,6,10)        =         1.902395	     108.999200
	 B(9,6,11)        =         1.889787	     108.276823
	 B(9,12,15)       =         2.050041	     117.458719
	 B(9,12,16)       =         2.123508	     121.668058
	 B(10,6,11)       =         1.866141	     106.921995
	 B(12,9,13)       =         1.852204	     106.123454
	 B(12,9,14)       =         1.903284	     109.050159
	 B(12,15,17)      =         1.985306	     113.749663
	 B(12,15,18)      =         1.868132	     107.036086
	 B(12,15,19)      =         1.891924	     108.399274
	 B(13,9,14)       =         1.844761	     105.697040
	 B(15,12,16)      =         2.109458	     120.863017
	 B(15,17,20)      =         1.962047	     112.417023
	 B(15,17,21)      =         1.905234	     109.161895
	 B(15,17,22)      =         1.921836	     110.113071
	 B(17,15,18)      =         1.922699	     110.162517
	 B(17,15,19)      =         1.908720	     109.361583
	 B(17,20,23)      =         1.971491	     112.958122
	 B(17,20,24)      =         1.906072	     109.209868
	 B(17,20,25)      =         1.906666	     109.243912
	 B(18,15,19)      =         1.884086	     107.950191
	 B(20,17,21)      =         1.907375	     109.284523
	 B(20,17,22)      =         1.903551	     109.065422
	 B(20,23,26)      =         1.939742	     111.139034
	 B(20,23,27)      =         1.940797	     111.199505
	 B(20,23,28)      =         1.939660	     111.134320
	 B(21,17,22)      =         1.861015	     106.628316
	 B(23,20,24)      =         1.910145	     109.443238
	 B(23,20,25)      =         1.910039	     109.437176
	 B(24,20,25)      =         1.855842	     106.331926
	 B(26,23,27)      =         1.879956	     107.713529
	 B(26,23,28)      =         1.880552	     107.747707
	 B(27,23,28)      =         1.880402	     107.739091
	 D(1,2,3,6)       =        -3.133832	    -179.555331
	 D(1,2,3,7)       =         1.021430	      58.523608
	 D(1,2,3,8)       =        -1.011559	     -57.958037
	 D(2,3,6,9)       =         1.355839	      77.683845
	*D(2,3,6,10)      =        -2.792526	    -159.999964
	 D(2,3,6,11)      =        -0.755973	     -43.314085
	 D(3,6,9,12)      =         1.254388	      71.871129
	 D(3,6,9,13)      =        -2.945302	    -168.753368
	 D(3,6,9,14)      =        -0.911954	     -52.251104
	 D(4,2,3,6)       =         1.056078	      60.508790
	 D(4,2,3,7)       =        -1.071846	     -61.412271
	 D(4,2,3,8)       =        -3.104835	    -177.893917
	 D(5,2,3,6)       =        -1.037663	     -59.453694
	 D(5,2,3,7)       =         3.117599	     178.625245
	 D(5,2,3,8)       =         1.084610	      62.143600
	 D(6,9,12,15)     =        -2.844500	    -162.977866
	 D(6,9,12,16)     =         0.317215	      18.175054
	 D(7,3,6,9)       =        -2.801568	    -160.518041
	 D(7,3,6,10)      =        -0.666748	     -38.201851
	 D(7,3,6,11)      =         1.369805	      78.484028
	 D(8,3,6,9)       =        -0.766913	     -43.940887
	 D(8,3,6,10)      =         1.367907	      78.375304
	 D(8,3,6,11)      =        -2.878725	    -164.938818
	 D(9,12,15,17)    =        -1.108964	     -63.538952
	 D(9,12,15,18)    =         3.046377	     174.544549
	 D(9,12,15,19)    =         1.018169	      58.336794
	 D(10,6,9,12)     =        -0.885685	     -50.746008
	 D(10,6,9,13)     =         1.197811	      68.629494
	 D(10,6,9,14)     =        -3.052027	    -174.868242
	 D(11,6,9,12)     =        -2.909754	    -166.716632
	 D(11,6,9,13)     =        -0.826259	     -47.341129
	 D(11,6,9,14)     =         1.207090	      69.161135
	 D(12,15,17,20)   =        -3.072953	    -176.067221
	 D(12,15,17,21)   =        -0.953481	     -54.630436
	 D(12,15,17,22)   =         1.083941	      62.105242
	 D(13,9,12,15)    =         1.319493	      75.601365
	 D(13,9,12,16)    =        -1.801978	    -103.245715
	 D(14,9,12,15)    =        -0.660385	     -37.837284
	 D(14,9,12,16)    =         2.501330	     143.315635
	 D(15,17,20,23)   =         3.136254	     179.694144
	 D(15,17,20,24)   =         1.006359	      57.660118
	 D(15,17,20,25)   =        -1.016744	     -58.255140
	 D(16,12,15,17)   =         2.012677	     115.317924
	 D(16,12,15,18)   =        -0.115167	      -6.598575
	 D(16,12,15,19)   =        -2.143375	    -122.806329
	 D(17,20,23,26)   =        -1.044342	     -59.836377
	 D(17,20,23,27)   =         1.049886	      60.154051
	 D(17,20,23,28)   =        -3.138562	    -179.826352
	 D(18,15,17,20)   =        -0.975624	     -55.899114
	 D(18,15,17,21)   =         1.143848	      65.537671
	 D(18,15,17,22)   =        -3.101915	    -177.726650
	 D(19,15,17,20)   =         1.092433	      62.591819
	 D(19,15,17,21)   =        -3.071280	    -175.971397
	 D(19,15,17,22)   =        -1.033858	     -59.235718
	 D(21,17,20,23)   =         1.018005	      58.327406
	 D(21,17,20,24)   =        -1.111890	     -63.706620
	 D(21,17,20,25)   =        -3.134993	    -179.621878
	 D(22,17,20,23)   =        -1.010276	     -57.884529
	 D(22,17,20,24)   =        -3.140171	    -179.918555
	 D(22,17,20,25)   =         1.119911	      64.166187
	 D(24,20,23,26)   =         1.083265	      62.066508
	 D(24,20,23,27)   =        -3.105692	    -177.943065
	 D(24,20,23,28)   =        -1.010955	     -57.923468
	 D(25,20,23,26)   =         3.110552	     178.221479
	 D(25,20,23,27)   =        -1.078406	     -61.788093
	 D(25,20,23,28)   =         1.016331	      58.231504
	 R(3,16)          =         6.281423	       3.323986

	Current energy   :      -426.3173241194

	Generating empirical Hessian (Schlegel '84) for each fragment.
	Taking RFO optimization step.
	Going to follow RFO solution 1.
	Using RFO vector 1.
	Norm of target step-size    0.14165
	Projected energy change by RFO approximation:        -0.0013381820

	Back-transformation to cartesian coordinates...
	Successfully converged to displaced geometry.

	Back-transformation to cartesian coordinates to adjust frozen coordinates...
	Successfully converged to displaced geometry.

	--- Internal Coordinate Step in ANG or DEG, aJ/ANG or AJ/DEG ---
	 ---------------------------------------------------------------------------
	   Coordinate                Previous        Force       Change         New 
	   ----------                --------       ------       ------       ------
	    1 R(1,2)          =      1.083913     0.000041     0.000007     1.083920
	    2 R(2,3)          =      1.524901     0.021632     0.004636     1.529537
	    3 R(2,4)          =      1.084535     0.002466     0.000446     1.084981
	    4 R(2,5)          =      1.085265    -0.005336    -0.000967     1.084298
	    5 R(3,6)          =      1.527079     0.036620     0.008146     1.535225
	    6 R(3,7)          =      1.083946     0.000467     0.000084     1.084030
	    7 R(3,8)          =      1.087577    -0.018643    -0.003405     1.084172
	    8 R(6,9)          =      1.525414     0.007718     0.001956     1.527370
	    9 R(6,10)         =      1.082972    -0.007344    -0.001321     1.081651
	   10 R(6,11)         =      1.086178    -0.000835    -0.000152     1.086027
	   11 R(9,12)         =      1.519370    -0.002414    -0.000150     1.519220
	   12 R(9,13)         =      1.087091    -0.000570    -0.000104     1.086987
	   13 R(9,14)         =      1.086057    -0.007850    -0.001427     1.084630
	   14 R(12,15)        =      1.516368    -0.000142    -0.000030     1.516338
	   15 R(12,16)        =      1.188812    -0.002714    -0.000124     1.188688
	   16 R(15,17)        =      1.532437    -0.000183    -0.000040     1.532397
	   17 R(15,18)        =      1.081591    -0.000083    -0.000015     1.081576
	   18 R(15,19)        =      1.086829     0.000181     0.000033     1.086862
	   19 R(17,20)        =      1.526326    -0.000305    -0.000066     1.526260
	   20 R(17,21)        =      1.086552    -0.000225    -0.000041     1.086511
	   21 R(17,22)        =      1.085357    -0.000106    -0.000019     1.085338
	   22 R(20,23)        =      1.524837    -0.000313    -0.000067     1.524769
	   23 R(20,24)        =      1.085851    -0.000012    -0.000002     1.085849
	   24 R(20,25)        =      1.086542    -0.000061    -0.000011     1.086531
	   25 R(23,26)        =      1.084749    -0.000084    -0.000015     1.084734
	   26 R(23,27)        =      1.084925    -0.000029    -0.000005     1.084920
	   27 R(23,28)        =      1.083656    -0.000054    -0.000010     1.083646
	   28 B(1,2,3)        =    111.192661     0.000004    -0.053568   111.139092
	   29 B(1,2,4)        =    107.756237    -0.000011    -0.123755   107.632482
	   30 B(1,2,5)        =    107.747638    -0.000093    -0.500608   107.247031
	   31 B(2,3,6)        =    112.666628     0.000351     1.493819   114.160447
	   32 B(2,3,7)        =    109.262097    -0.000101    -0.996799   108.265298
	   33 B(2,3,8)        =    109.269517    -0.000067     0.827765   110.097282
	   34 B(3,2,4)        =    110.983809    -0.000001     0.030279   111.014088
	   35 B(3,2,5)        =    111.247076     0.000156     0.764550   112.011626
	   36 B(3,6,9)        =    113.841416     0.000201     0.949964   114.791379
	   37 B(3,6,10)       =    109.546800    -0.000019     0.053610   109.600411
	   38 B(3,6,11)       =    109.020452    -0.000042    -0.045124   108.975329
	   39 B(4,2,5)        =    107.748591    -0.000063    -0.164441   107.584150
	   40 B(6,3,7)        =    109.479424    -0.000145    -1.163259   108.316165
	   41 B(6,3,8)        =    109.221145    -0.000053     0.701431   109.922576
	   42 B(6,9,12)       =    114.682421    -0.000125    -0.264159   114.418262
	   43 B(6,9,13)       =    109.821411     0.000009    -0.149962   109.671449
	   44 B(6,9,14)       =    110.980803     0.000118     0.730810   111.711613
	   45 B(7,3,8)        =    106.768058    -0.000002    -1.064478   105.703580
	   46 B(9,6,10)       =    108.999200    -0.000125    -0.454689   108.544510
	   47 B(9,6,11)       =    108.276823    -0.000050    -0.046159   108.230665
	   48 B(9,12,15)      =    117.458719     0.000006    -0.013538   117.445181
	   49 B(9,12,16)      =    121.668058    -0.000017     0.020595   121.688653
	   50 B(10,6,11)      =    106.921995     0.000025    -0.561759   106.360236
	   51 B(12,9,13)      =    106.123454     0.000048    -0.106154   106.017300
	   52 B(12,9,14)      =    109.050159    -0.000003     0.005514   109.055674
	   53 B(12,15,17)     =    113.749663    -0.000001    -0.003169   113.746495
	   54 B(12,15,18)     =    107.036086    -0.000000    -0.005869   107.030218
	   55 B(12,15,19)     =    108.399274     0.000002     0.015667   108.414941
	   56 B(13,9,14)      =    105.697040    -0.000044    -0.261960   105.435080
	   57 B(15,12,16)     =    120.863017     0.000010    -0.001125   120.861892
	   58 B(15,17,20)     =    112.417023    -0.000001    -0.003123   112.413900
	   59 B(15,17,21)     =    109.161895    -0.000001    -0.007741   109.154154
	   60 B(15,17,22)     =    110.113071     0.000000     0.000269   110.113341
	   61 B(17,15,18)     =    110.162517     0.000000    -0.003008   110.159509
	   62 B(17,15,19)     =    109.361583    -0.000001    -0.005314   109.356269
	   63 B(17,20,23)     =    112.958122    -0.000002    -0.008870   112.949252
	   64 B(17,20,24)     =    109.209868     0.000001     0.009942   109.219810
	   65 B(17,20,25)     =    109.243912     0.000000    -0.005764   109.238148
	   66 B(18,15,19)     =    107.950191     0.000000     0.002281   107.952472
	   67 B(20,17,21)     =    109.284523     0.000001     0.002297   109.286820
	   68 B(20,17,22)     =    109.065422     0.000000     0.004427   109.069849
	   69 B(20,23,26)     =    111.139034    -0.000001    -0.003756   111.135278
	   70 B(20,23,27)     =    111.199505     0.000000     0.001906   111.201411
	   71 B(20,23,28)     =    111.134320    -0.000001    -0.005910   111.128410
	   72 B(21,17,22)     =    106.628316     0.000000     0.004291   106.632607
	   73 B(23,20,24)     =    109.443238     0.000001     0.006847   109.450085
	   74 B(23,20,25)     =    109.437176     0.000000    -0.006687   109.430490
	   75 B(24,20,25)     =    106.331926    -0.000000     0.005408   106.337334
	   76 B(26,23,27)     =    107.713529     0.000000     0.002277   107.715806
	   77 B(26,23,28)     =    107.747707     0.000001     0.003628   107.751335
	   78 B(27,23,28)     =    107.739091     0.000000     0.002322   107.741413
	   79 D(1,2,3,6)      =   -179.555331    -0.000011    -1.068032  -180.623363
	   80 D(1,2,3,7)      =     58.523608    -0.000006     0.138473    58.662081
	   81 D(1,2,3,8)      =    -57.958037     0.000017     1.516068   -56.441969
	   82 D(2,3,6,9)      =     77.683845     0.000008    -0.119195    77.564650
	   83 *D(2,3,6,10)    =   -159.999964    -0.000000     0.000000  -159.999964
	   84 D(2,3,6,11)     =    -43.314085    -0.000001    -0.669767   -43.983852
	   85 D(3,6,9,12)     =     71.871129    -0.000001     0.688079    72.559209
	   86 D(3,6,9,13)     =   -168.753368    -0.000005     0.267208  -168.486160
	   87 D(3,6,9,14)     =    -52.251104    -0.000000     0.288808   -51.962295
	   88 D(4,2,3,6)      =     60.508790    -0.000008    -0.896471    59.612319
	   89 D(4,2,3,7)      =    -61.412271    -0.000003     0.310035   -61.102237
	   90 D(4,2,3,8)      =   -177.893917     0.000019     1.687630  -176.206287
	   91 D(5,2,3,6)      =    -59.453694    -0.000013    -1.223576   -60.677270
	   92 D(5,2,3,7)      =    178.625245    -0.000008    -0.017071   178.608174
	   93 D(5,2,3,8)      =     62.143600     0.000014     1.360524    63.504124
	   94 D(6,9,12,15)    =   -162.977866    -0.000008    -1.189815  -164.167680
	   95 D(6,9,12,16)    =     18.175054    -0.000009    -1.596558    16.578496
	   96 D(7,3,6,9)      =   -160.518041     0.000009    -1.231069  -161.749110
	   97 D(7,3,6,10)     =    -38.201851     0.000001    -1.111874   -39.313725
	   98 D(7,3,6,11)     =     78.484028     0.000000    -1.781641    76.702387
	   99 D(8,3,6,9)      =    -43.940887    -0.000017    -2.769375   -46.710262
	  100 D(8,3,6,10)     =     78.375304    -0.000025    -2.650180    75.725124
	  101 D(8,3,6,11)     =   -164.938818    -0.000026    -3.319946  -168.258764
	  102 D(9,12,15,17)   =    -63.538952    -0.000001    -0.253616   -63.792568
	  103 D(9,12,15,18)   =    174.544549    -0.000001    -0.243642   174.300908
	  104 D(9,12,15,19)   =     58.336794    -0.000001    -0.251163    58.085632
	  105 D(10,6,9,12)    =    -50.746008    -0.000006     0.301591   -50.444418
	  106 D(10,6,9,13)    =     68.629494    -0.000010    -0.119281    68.510213
	  107 D(10,6,9,14)    =   -174.868242    -0.000005    -0.097680  -174.965922
	  108 D(11,6,9,12)    =   -166.716632     0.000008     1.229377  -165.487254
	  109 D(11,6,9,13)    =    -47.341129     0.000005     0.808506   -46.532623
	  110 D(11,6,9,14)    =     69.161135     0.000010     0.830106    69.991242
	  111 D(12,15,17,20)  =   -176.067221     0.000000    -0.160334  -176.227554
	  112 D(12,15,17,21)  =    -54.630436     0.000000    -0.164869   -54.795305
	  113 D(12,15,17,22)  =     62.105242     0.000000    -0.164053    61.941189
	  114 D(13,9,12,15)   =     75.601365    -0.000001    -0.763719    74.837646
	  115 D(13,9,12,16)   =   -103.245715    -0.000002    -1.170462  -104.416178
	  116 D(14,9,12,15)   =    -37.837284     0.000006    -0.410796   -38.248080
	  117 D(14,9,12,16)   =    143.315635     0.000004    -0.817539   142.498096
	  118 D(15,17,20,23)  =    179.694144     0.000000     0.256769   179.950914
	  119 D(15,17,20,24)  =     57.660118     0.000000     0.246873    57.906991
	  120 D(15,17,20,25)  =    -58.255140    -0.000000     0.238070   -58.017070
	  121 D(16,12,15,17)  =    115.317924     0.000001     0.149844   115.467769
	  122 D(16,12,15,18)  =     -6.598575     0.000001     0.159818    -6.438756
	  123 D(16,12,15,19)  =   -122.806329     0.000000     0.152297  -122.654032
	  124 D(17,20,23,26)  =    -59.836377    -0.000000    -0.111116   -59.947492
	  125 D(17,20,23,27)  =     60.154051    -0.000000    -0.109479    60.044572
	  126 D(17,20,23,28)  =   -179.826352    -0.000000    -0.109231  -179.935583
	  127 D(18,15,17,20)  =    -55.899114    -0.000000    -0.172215   -56.071328
	  128 D(18,15,17,21)  =     65.537671    -0.000000    -0.176750    65.360921
	  129 D(18,15,17,22)  =   -177.726650    -0.000000    -0.175934  -177.902585
	  130 D(19,15,17,20)  =     62.591819    -0.000000    -0.174462    62.417357
	  131 D(19,15,17,21)  =   -175.971397    -0.000000    -0.178997  -176.150393
	  132 D(19,15,17,22)  =    -59.235718    -0.000000    -0.178181   -59.413899
	  133 D(21,17,20,23)  =     58.327406     0.000000     0.267049    58.594455
	  134 D(21,17,20,24)  =    -63.706620     0.000000     0.257152   -63.449468
	  135 D(21,17,20,25)  =   -179.621878     0.000000     0.248349  -179.373529
	  136 D(22,17,20,23)  =    -57.884529     0.000000     0.258151   -57.626379
	  137 D(22,17,20,24)  =   -179.918555     0.000000     0.248254  -179.670302
	  138 D(22,17,20,25)  =     64.166187    -0.000000     0.239451    64.405638
	  139 D(24,20,23,26)  =     62.066508    -0.000000    -0.099487    61.967021
	  140 D(24,20,23,27)  =   -177.943065    -0.000000    -0.097850  -178.040915
	  141 D(24,20,23,28)  =    -57.923468    -0.000000    -0.097602   -58.021070
	  142 D(25,20,23,26)  =    178.221479     0.000000    -0.092895   178.128585
	  143 D(25,20,23,27)  =    -61.788093     0.000000    -0.091258   -61.879351
	  144 D(25,20,23,28)  =     58.231504     0.000000    -0.091010    58.140494
	  145 R(3,16)         =      3.323986     0.003444     0.006399     3.330385
	 ---------------------------------------------------------------------------

  ==> Convergence Check <==

  Measures of convergence in internal coordinates in au.
  Criteria marked as inactive (o), active & met (*), and active & unmet ( ).
  --------------------------------------------------------------------------------------------- ~
   Step     Total Energy     Delta E     MAX Force     RMS Force      MAX Disp      RMS Disp    ~
  --------------------------------------------------------------------------------------------- ~
    Convergence Criteria    1.00e-06 *    3.00e-04 *             o    1.20e-03 *             o  ~
  --------------------------------------------------------------------------------------------- ~
      1    -426.31732412   -4.26e+02      4.61e-03      8.23e-04 o    5.79e-02      1.18e-02 o  ~
  ---------------------------------------------------------------------------------------------

	Writing optimization data to binary file.
	Structure for next step:
	Cartesian Geometry (in Angstrom)
	    H     3.1173909036   3.6414946562   1.0351768898
	    C     2.5520522585   3.1911684712   0.2274135911
	    C     1.0578988024   3.1559395417   0.5526014405
	    H     2.7414277906   3.7713957421  -0.6696130072
	    H     2.9564862762   2.1980514974   0.0666233511
	    C     0.1881469194   2.5437435799  -0.5544951950
	    H     0.7237256984   4.1726044010   0.7253515423
	    H     0.8920897075   2.6299474624   1.4860191652
	    C     0.2195843674   1.0182693234  -0.6237646662
	    H    -0.8379766251   2.8612491568  -0.4270966189
	    H     0.5122109431   2.9342014125  -1.5146925870
	    C    -0.5255321021   0.3229364676   0.5028863687
	    H    -0.2502873406   0.6840649005  -1.5452137362
	    H     1.2350604760   0.6392635948  -0.6635901547
	    C    -0.2437553568  -1.1507746195   0.7221103712
	    O    -1.3109014909   0.9012518121   1.1823900272
	    C    -0.6551978725  -2.0396799652  -0.4563640455
	    H    -0.7771644646  -1.4457876625   1.6155576390
	    H     0.8195787089  -1.2726046522   0.9111775002
	    C    -0.4436305245  -3.5234060460  -0.1678057022
	    H    -1.7025603818  -1.8645891938  -0.6863251654
	    H    -0.0925769096  -1.7672392522  -1.3436023666
	    C    -0.8504086329  -4.4194938032  -1.3324858888
	    H    -1.0102430896  -3.7999711838   0.7162362663
	    H     0.6017837901  -3.6957946485   0.0729038310
	    H    -1.9001161774  -4.2932642923  -1.5750317814
	    H    -0.2757387793  -4.1898057953  -2.2235804546
	    H    -0.6893287858  -5.4646754786  -1.0959746555
			--------------------------
			 OPTKING Finished Execution 
			--------------------------

    Structure for next step:
    Molecular point group: c1
    Full point group: C1

    Geometry (in Angstrom), charge = 0, multiplicity = 1:

    H            3.112231178067     3.646383535680     1.033786040880
    C            2.546892576103     3.196057385090     0.226022803835
    C            1.052739234156     3.160828458246     0.551210628379
    H            2.736268093731     3.776284611740    -0.671003725973
    H            2.951326562970     2.202940487096     0.065232576095
    C            0.182987417580     2.548632543195    -0.555885922594
    H            0.718566155667     4.177493239933     0.723960717048
    H            0.886930151939     2.634836419199     1.484628281843
    C            0.214424863186     1.023158403260    -0.625155388499
    H           -0.843136048604     2.866138095887    -0.428487356188
    H            0.507051416524     2.939090346008    -1.516083241226
    C           -0.530691549479     0.327825600526     0.501495560366
    H           -0.255446808930     0.688954005815    -1.546604388131
    H            1.229900894176     0.644152703528    -0.664980873867
    C           -0.248914825625    -1.145885374024     0.720719546183
    O           -1.316060878289     0.906140900826     1.180999166974
    C           -0.660357309909    -2.034790651819    -0.457754780521
    H           -0.782323892710    -1.440898394484     1.614166745785
    H            0.814419158871    -1.267715397382     0.909786660738
    C           -0.448789978093    -3.518516619359    -0.169196459229
    H           -1.707719739273    -1.859699893863    -0.687715882868
    H           -0.097736390017    -1.762349959701    -1.344993033890
    C           -0.855568055439    -4.414604308095    -1.333876556938
    H           -1.015402499937    -3.795081736002     0.714845441698
    H            0.596624256684    -3.690905208719     0.071513055590
    H           -1.905275519806    -4.288374806832    -1.576422430989
    H           -0.280898245750    -4.184916317713    -2.224971054682
    H           -0.694488220659    -5.459785903693    -1.097365341699

gradient() will perform analytic gradient computation.

*** tstart() called on cx1-27-4-2
*** at Fri Sep  9 21:32:45 2016


         ---------------------------------------------------------
                                   SCF
            by Justin Turney, Rob Parrish, and Andy Simmonett
                              RHF Reference
                        4 Threads,   2000 MiB Core
         ---------------------------------------------------------

  ==> Geometry <==

    Molecular point group: c1
    Full point group: C1

    Geometry (in Angstrom), charge = 0, multiplicity = 1:

       Center              X                  Y                   Z               Mass       
    ------------   -----------------  -----------------  -----------------  -----------------
           H          3.112231178067     3.646383535680     1.033786040880     1.007825032070
           C          2.546892576103     3.196057385090     0.226022803835    12.000000000000
           C          1.052739234156     3.160828458246     0.551210628379    12.000000000000
           H          2.736268093731     3.776284611740    -0.671003725973     1.007825032070
           H          2.951326562970     2.202940487096     0.065232576095     1.007825032070
           C          0.182987417580     2.548632543195    -0.555885922594    12.000000000000
           H          0.718566155667     4.177493239933     0.723960717048     1.007825032070
           H          0.886930151939     2.634836419199     1.484628281843     1.007825032070
           C          0.214424863186     1.023158403260    -0.625155388499    12.000000000000
           H         -0.843136048604     2.866138095887    -0.428487356188     1.007825032070
           H          0.507051416524     2.939090346008    -1.516083241226     1.007825032070
           C         -0.530691549479     0.327825600526     0.501495560366    12.000000000000
           H         -0.255446808930     0.688954005815    -1.546604388131     1.007825032070
           H          1.229900894176     0.644152703528    -0.664980873867     1.007825032070
           C         -0.248914825625    -1.145885374024     0.720719546183    12.000000000000
           O         -1.316060878289     0.906140900826     1.180999166974    15.994914619560
           C         -0.660357309909    -2.034790651819    -0.457754780521    12.000000000000
           H         -0.782323892710    -1.440898394484     1.614166745785     1.007825032070
           H          0.814419158871    -1.267715397382     0.909786660738     1.007825032070
           C         -0.448789978093    -3.518516619359    -0.169196459229    12.000000000000
           H         -1.707719739273    -1.859699893863    -0.687715882868     1.007825032070
           H         -0.097736390017    -1.762349959701    -1.344993033890     1.007825032070
           C         -0.855568055439    -4.414604308095    -1.333876556938    12.000000000000
           H         -1.015402499937    -3.795081736002     0.714845441698     1.007825032070
           H          0.596624256684    -3.690905208719     0.071513055590     1.007825032070
           H         -1.905275519806    -4.288374806832    -1.576422430989     1.007825032070
           H         -0.280898245750    -4.184916317713    -2.224971054682     1.007825032070
           H         -0.694488220659    -5.459785903693    -1.097365341699     1.007825032070

  Running in c1 symmetry.

  Rotational constants: A =      0.09328  B =      0.01497  C =      0.01417 [cm^-1]
  Rotational constants: A =   2796.49484  B =    448.64298  C =    424.80741 [MHz]
  Nuclear repulsion =  535.639719518369020

  Charge       = 0
  Multiplicity = 1
  Electrons    = 80
  Nalpha       = 40
  Nbeta        = 40

  ==> Algorithm <==

  SCF Algorithm Type is DF.
  DIIS enabled.
  MOM disabled.
  Fractional occupation disabled.
  Guess Type is READ.
  Energy threshold   = 1.00e-08
  Density threshold  = 1.00e-08
  Integral threshold = 0.00e+00

  ==> Primary Basis <==

  Basis Set: CC-PVTZ
    Number of shells: 208
    Number of basis function: 552
    Number of Cartesian functions: 620
    Spherical Harmonics?: true
    Max angular momentum: 3

  ==> Pre-Iterations <==

   -------------------------------------------------------
    Irrep   Nso     Nmo     Nalpha   Nbeta   Ndocc  Nsocc
   -------------------------------------------------------
     A        552     552       0       0       0       0
   -------------------------------------------------------
    Total     552     552      40      40      40       0
   -------------------------------------------------------

 OEINTS: Overlap, kinetic, potential, dipole, and quadrupole integrals
         stored in file 35.

  ==> Integral Setup <==

  ==> DFJK: Density-Fitted J/K Matrices <==

    J tasked:                  Yes
    K tasked:                  Yes
    wK tasked:                  No
    OpenMP threads:              4
    Integrals threads:           4
    Memory (MB):              1430
    Algorithm:                Core
    Integral Cache:           NONE
    Schwarz Cutoff:          1E-12
    Fitting Condition:       1E-12

   => Auxiliary Basis Set <=

  Basis Set: 
    Number of shells: 430
    Number of basis function: 1330
    Number of Cartesian functions: 1590
    Spherical Harmonics?: true
    Max angular momentum: 4

  Minimum eigenvalue in the overlap matrix is 2.4734013637E-04.
  Using Symmetric Orthogonalization.
  SCF Guess: Reading in previously saved MOs, projecting if necessary.

  Using orbitals from previous SCF, no projection.
  Recomputing DOCC and SOCC from number of alpha and beta electrons from previous calculation.
              A 
    DOCC [    40 ]

  ==> Iterations <==

                           Total Energy        Delta E     RMS |[F,P]|

   @DF-RHF iter   0:  -426.31296842176380   -4.26313e+02   1.24783e-04 
   @DF-RHF iter   1:  -426.31743672943003   -4.46831e-03   2.32349e-05 
   @DF-RHF iter   2:  -426.31759077342826   -1.54044e-04   7.90119e-06 DIIS
   @DF-RHF iter   3:  -426.31761415329527   -2.33799e-05   2.12907e-06 DIIS
   @DF-RHF iter   4:  -426.31761532469272   -1.17140e-06   6.71951e-07 DIIS
   @DF-RHF iter   5:  -426.31761554055754   -2.15865e-07   2.56263e-07 DIIS
   @DF-RHF iter   6:  -426.31761557502796   -3.44704e-08   1.27118e-07 DIIS
   @DF-RHF iter   7:  -426.31761558349694   -8.46899e-09   6.12439e-08 DIIS
   @DF-RHF iter   8:  -426.31761558565881   -2.16187e-09   2.34642e-08 DIIS
   @DF-RHF iter   9:  -426.31761558610435   -4.45539e-10   1.00353e-08 DIIS
   @DF-RHF iter  10:  -426.31761558618939   -8.50378e-11   3.93462e-09 DIIS

  ==> Post-Iterations <==

    Orbital Energies (a.u.)
    -----------------------

    Doubly Occupied:                                                      

       1A    -20.536456     2A    -11.316223     3A    -11.229784  
       4A    -11.227950     5A    -11.226854     6A    -11.223784  
       7A    -11.215124     8A    -11.214217     9A    -11.211803  
      10A    -11.207859    11A     -1.396410    12A     -1.096071  
      13A     -1.077992    14A     -1.022865    15A     -0.990535  
      16A     -0.910640    17A     -0.879302    18A     -0.809263  
      19A     -0.797894    20A     -0.721512    21A     -0.667332  
      22A     -0.652809    23A     -0.640905    24A     -0.621833  
      25A     -0.605192    26A     -0.598323    27A     -0.577421  
      28A     -0.565095    29A     -0.542055    30A     -0.538932  
      31A     -0.526511    32A     -0.510277    33A     -0.502739  
      34A     -0.485631    35A     -0.480326    36A     -0.476592  
      37A     -0.470254    38A     -0.461226    39A     -0.458929  
      40A     -0.394122  

    Virtual:                                                              

      41A      0.129442    42A      0.140831    43A      0.147443  
      44A      0.163433    45A      0.171260    46A      0.172723  
      47A      0.182402    48A      0.185707    49A      0.200616  
      50A      0.210480    51A      0.219534    52A      0.227951  
      53A      0.229421    54A      0.235246    55A      0.240776  
      56A      0.253290    57A      0.261537    58A      0.264141  
      59A      0.284513    60A      0.299830    61A      0.314156  
      62A      0.334296    63A      0.347829    64A      0.349810  
      65A      0.360924    66A      0.369879    67A      0.377904  
      68A      0.393656    69A      0.398201    70A      0.409126  
      71A      0.417488    72A      0.424495    73A      0.440921  
      74A      0.446182    75A      0.454539    76A      0.468586  
      77A      0.485574    78A      0.500657    79A      0.510469  
      80A      0.528602    81A      0.542483    82A      0.555181  
      83A      0.561796    84A      0.566265    85A      0.573866  
      86A      0.585176    87A      0.596718    88A      0.606540  
      89A      0.608438    90A      0.615276    91A      0.625063  
      92A      0.630666    93A      0.635133    94A      0.640216  
      95A      0.646670    96A      0.649238    97A      0.655225  
      98A      0.663111    99A      0.667880   100A      0.668769  
     101A      0.679435   102A      0.682382   103A      0.691924  
     104A      0.695690   105A      0.700845   106A      0.703598  
     107A      0.709331   108A      0.716785   109A      0.727196  
     110A      0.731280   111A      0.738411   112A      0.755442  
     113A      0.785456   114A      0.789128   115A      0.795014  
     116A      0.832763   117A      0.836227   118A      0.850444  
     119A      0.854467   120A      0.881229   121A      0.892642  
     122A      0.913118   123A      0.918800   124A      0.927875  
     125A      0.935366   126A      0.944685   127A      0.957827  
     128A      0.974522   129A      0.986596   130A      0.994290  
     131A      1.021504   132A      1.023839   133A      1.046194  
     134A      1.051189   135A      1.056395   136A      1.070777  
     137A      1.085818   138A      1.097669   139A      1.111766  
     140A      1.131832   141A      1.143473   142A      1.156810  
     143A      1.173875   144A      1.179406   145A      1.197403  
     146A      1.202755   147A      1.212436   148A      1.230330  
     149A      1.235023   150A      1.236927   151A      1.253220  
     152A      1.261331   153A      1.269149   154A      1.275791  
     155A      1.285406   156A      1.294789   157A      1.303236  
     158A      1.315510   159A      1.328968   160A      1.331619  
     161A      1.334335   162A      1.341869   163A      1.349676  
     164A      1.354574   165A      1.359006   166A      1.380015  
     167A      1.387347   168A      1.393838   169A      1.399204  
     170A      1.406517   171A      1.415084   172A      1.419697  
     173A      1.425363   174A      1.434988   175A      1.440028  
     176A      1.444057   177A      1.459430   178A      1.475476  
     179A      1.476794   180A      1.484359   181A      1.487824  
     182A      1.502522   183A      1.509333   184A      1.525670  
     185A      1.536500   186A      1.537634   187A      1.549415  
     188A      1.567115   189A      1.572919   190A      1.578645  
     191A      1.593728   192A      1.604814   193A      1.610425  
     194A      1.620772   195A      1.629968   196A      1.635237  
     197A      1.643820   198A      1.657689   199A      1.673154  
     200A      1.686197   201A      1.692589   202A      1.698777  
     203A      1.721203   204A      1.728658   205A      1.734789  
     206A      1.741374   207A      1.756349   208A      1.762612  
     209A      1.798973   210A      1.807167   211A      1.813007  
     212A      1.816357   213A      1.831764   214A      1.837521  
     215A      1.847202   216A      1.857868   217A      1.863397  
     218A      1.894701   219A      1.921539   220A      1.924261  
     221A      1.969209   222A      1.979481   223A      2.020921  
     224A      2.060393   225A      2.096153   226A      2.146651  
     227A      2.269192   228A      2.366008   229A      2.466109  
     230A      2.497638   231A      2.518257   232A      2.537059  
     233A      2.562246   234A      2.575564   235A      2.592038  
     236A      2.606217   237A      2.612234   238A      2.628428  
     239A      2.673526   240A      2.683575   241A      2.690333  
     242A      2.702655   243A      2.708118   244A      2.724416  
     245A      2.740354   246A      2.771148   247A      2.775341  
     248A      2.780996   249A      2.792578   250A      2.798987  
     251A      2.817507   252A      2.831609   253A      2.843007  
     254A      2.847638   255A      2.858202   256A      2.881830  
     257A      2.889631   258A      2.894705   259A      2.920411  
     260A      2.923061   261A      2.930521   262A      2.941014  
     263A      2.946976   264A      2.965416   265A      2.977288  
     266A      2.988374   267A      2.994964   268A      3.023457  
     269A      3.027892   270A      3.037590   271A      3.057386  
     272A      3.062996   273A      3.083940   274A      3.094802  
     275A      3.103189   276A      3.114910   277A      3.122537  
     278A      3.127659   279A      3.134510   280A      3.147513  
     281A      3.154598   282A      3.174439   283A      3.176352  
     284A      3.190376   285A      3.198915   286A      3.208362  
     287A      3.235926   288A      3.253043   289A      3.260802  
     290A      3.262097   291A      3.277862   292A      3.285389  
     293A      3.290769   294A      3.318306   295A      3.327479  
     296A      3.334464   297A      3.336710   298A      3.339970  
     299A      3.343382   300A      3.357889   301A      3.363382  
     302A      3.379681   303A      3.400823   304A      3.405212  
     305A      3.409191   306A      3.412524   307A      3.416312  
     308A      3.420784   309A      3.429775   310A      3.439785  
     311A      3.445129   312A      3.448386   313A      3.457225  
     314A      3.461952   315A      3.470905   316A      3.479097  
     317A      3.490250   318A      3.503070   319A      3.512973  
     320A      3.521438   321A      3.526437   322A      3.536012  
     323A      3.545721   324A      3.549421   325A      3.555647  
     326A      3.566176   327A      3.579806   328A      3.594004  
     329A      3.604867   330A      3.611499   331A      3.614399  
     332A      3.634752   333A      3.658171   334A      3.669272  
     335A      3.677459   336A      3.684617   337A      3.697757  
     338A      3.713934   339A      3.727659   340A      3.743767  
     341A      3.752373   342A      3.760075   343A      3.773250  
     344A      3.777915   345A      3.790894   346A      3.795296  
     347A      3.799650   348A      3.817619   349A      3.830461  
     350A      3.854744   351A      3.859055   352A      3.864518  
     353A      3.872389   354A      3.884897   355A      3.887812  
     356A      3.895162   357A      3.907812   358A      3.927689  
     359A      3.935021   360A      3.941754   361A      3.960475  
     362A      3.962268   363A      3.976106   364A      3.987972  
     365A      4.002327   366A      4.008016   367A      4.029800  
     368A      4.041772   369A      4.063626   370A      4.081744  
     371A      4.086217   372A      4.092275   373A      4.104872  
     374A      4.117919   375A      4.122548   376A      4.140338  
     377A      4.147189   378A      4.151181   379A      4.163193  
     380A      4.169135   381A      4.171845   382A      4.183211  
     383A      4.190658   384A      4.195417   385A      4.215644  
     386A      4.218876   387A      4.232927   388A      4.240888  
     389A      4.247301   390A      4.258065   391A      4.266244  
     392A      4.280414   393A      4.292216   394A      4.304860  
     395A      4.309173   396A      4.319122   397A      4.322587  
     398A      4.326981   399A      4.339314   400A      4.351049  
     401A      4.356206   402A      4.363239   403A      4.387856  
     404A      4.403482   405A      4.412003   406A      4.412376  
     407A      4.423257   408A      4.426379   409A      4.442984  
     410A      4.447075   411A      4.465371   412A      4.472130  
     413A      4.477415   414A      4.479377   415A      4.489746  
     416A      4.494052   417A      4.509926   418A      4.525203  
     419A      4.533543   420A      4.552922   421A      4.563366  
     422A      4.572842   423A      4.581467   424A      4.592028  
     425A      4.601660   426A      4.612877   427A      4.632266  
     428A      4.642628   429A      4.646000   430A      4.655030  
     431A      4.658574   432A      4.673674   433A      4.686669  
     434A      4.694227   435A      4.704226   436A      4.722572  
     437A      4.736095   438A      4.746736   439A      4.766204  
     440A      4.771035   441A      4.786142   442A      4.787699  
     443A      4.807321   444A      4.810685   445A      4.839153  
     446A      4.871484   447A      4.897898   448A      4.936155  
     449A      4.950160   450A      4.965805   451A      5.011634  
     452A      5.020690   453A      5.021381   454A      5.031328  
     455A      5.045605   456A      5.054197   457A      5.087021  
     458A      5.107731   459A      5.126221   460A      5.144263  
     461A      5.150408   462A      5.177033   463A      5.193113  
     464A      5.208019   465A      5.218163   466A      5.227052  
     467A      5.235006   468A      5.253426   469A      5.260651  
     470A      5.275885   471A      5.295124   472A      5.305410  
     473A      5.312684   474A      5.344504   475A      5.351782  
     476A      5.365496   477A      5.369682   478A      5.386325  
     479A      5.404000   480A      5.412318   481A      5.440433  
     482A      5.450404   483A      5.468991   484A      5.477979  
     485A      5.487071   486A      5.518310   487A      5.532011  
     488A      5.545716   489A      5.560105   490A      5.591436  
     491A      5.602308   492A      5.625134   493A      5.632990  
     494A      5.636974   495A      5.655137   496A      5.698276  
     497A      5.718748   498A      5.734943   499A      5.746902  
     500A      5.748055   501A      5.756927   502A      5.762205  
     503A      5.770570   504A      5.787890   505A      5.814551  
     506A      5.817197   507A      5.829963   508A      5.853970  
     509A      5.862590   510A      5.883545   511A      5.895854  
     512A      5.904110   513A      5.917819   514A      5.926333  
     515A      5.931519   516A      5.941270   517A      5.969518  
     518A      6.005945   519A      6.016895   520A      6.057032  
     521A      6.100063   522A      6.124101   523A      6.154442  
     524A      6.254350   525A      6.292743   526A      6.322186  
     527A      6.325083   528A      6.335327   529A      6.340561  
     530A      6.402008   531A      6.413153   532A      6.457369  
     533A      6.475725   534A      6.515785   535A      6.816959  
     536A      6.865940   537A      6.971241   538A      7.056539  
     539A      7.234434   540A      7.408401   541A      7.607471  
     542A      7.639715   543A      9.860913   544A     13.127298  
     545A     13.239399   546A     13.493445   547A     13.583768  
     548A     13.855220   549A     13.953151   550A     14.235866  
     551A     14.264345   552A     14.518839  

    Final Occupation by Irrep:
              A 
    DOCC [    40 ]

  Energy converged.

[...]
	    3 R(2,4)          =      1.084949     0.000010     0.000015     1.084964
	    4 R(2,5)          =      1.084921    -0.000013     0.000009     1.084930
	    5 R(3,6)          =      1.532152     0.000046    -0.000011     1.532140
	    6 R(3,7)          =      1.085033    -0.000076    -0.000033     1.085000
	    7 R(3,8)          =      1.084113    -0.000100    -0.000020     1.084092
	    8 R(6,9)          =      1.526222     0.000036     0.000001     1.526223
	    9 R(6,10)         =      1.081619     0.000020     0.000034     1.081652
	   10 R(6,11)         =      1.086451    -0.000064     0.000014     1.086465
	   11 R(9,12)         =      1.519506    -0.000078    -0.000041     1.519465
	   12 R(9,13)         =      1.086998    -0.000012    -0.000032     1.086966
	   13 R(9,14)         =      1.085042     0.000015     0.000037     1.085078
	   14 R(12,15)        =      1.516588     0.000079     0.000034     1.516622
	   15 R(12,16)        =      1.188693     0.000065     0.000001     1.188694
	   16 R(15,17)        =      1.532441     0.000065     0.000040     1.532481
	   17 R(15,18)        =      1.081587     0.000001     0.000004     1.081592
	   18 R(15,19)        =      1.086812    -0.000070    -0.000045     1.086767
	   19 R(17,20)        =      1.526270     0.000011    -0.000003     1.526267
	   20 R(17,21)        =      1.086516    -0.000036    -0.000010     1.086506
	   21 R(17,22)        =      1.085333    -0.000001     0.000003     1.085336
	   22 R(20,23)        =      1.524791     0.000002     0.000001     1.524792
	   23 R(20,24)        =      1.085843     0.000007    -0.000002     1.085842
	   24 R(20,25)        =      1.086533    -0.000007     0.000000     1.086534
	   25 R(23,26)        =      1.084738     0.000001    -0.000000     1.084737
	   26 R(23,27)        =      1.084917    -0.000004    -0.000001     1.084916
	   27 R(23,28)        =      1.083650     0.000002     0.000000     1.083650
	   28 B(1,2,3)        =    110.914531    -0.000000    -0.000673   110.913859
	   29 B(1,2,4)        =    107.731650    -0.000000    -0.004138   107.727512
	   30 B(1,2,5)        =    107.301532     0.000000    -0.003842   107.297690
	   31 B(2,3,6)        =    114.007362    -0.000001    -0.001462   114.005901
	   32 B(2,3,7)        =    108.354236     0.000000     0.002795   108.357030
	   33 B(2,3,8)        =    110.130057     0.000000     0.003858   110.133915
	   34 B(3,2,4)        =    110.955790     0.000000     0.010519   110.966308
	   35 B(3,2,5)        =    112.139055    -0.000000    -0.000017   112.139038
	   36 B(3,6,9)        =    114.812738     0.000000     0.001537   114.814275
	   37 B(3,6,10)       =    109.419301     0.000000    -0.007015   109.412287
	   38 B(3,6,11)       =    108.769330     0.000000     0.005311   108.774642
	   39 B(4,2,5)        =    107.595855     0.000000    -0.002522   107.593333
	   40 B(6,3,7)        =    108.291366     0.000000    -0.002984   108.288382
	   41 B(6,3,8)        =    109.810003     0.000000    -0.001139   109.808864
	   42 B(6,9,12)       =    114.529884    -0.000000     0.008789   114.538673
	   43 B(6,9,13)       =    109.646229    -0.000000     0.005326   109.651555
	   44 B(6,9,14)       =    111.576478     0.000001     0.004124   111.580602
	   45 B(7,3,8)        =    105.902222    -0.000000    -0.001125   105.901097
	   46 B(9,6,10)       =    108.912001    -0.000000     0.003407   108.915407
	   47 B(9,6,11)       =    108.235477    -0.000000    -0.000448   108.235028
	   48 B(9,12,15)      =    117.423462    -0.000000    -0.002940   117.420523
	   49 B(9,12,16)      =    121.745334     0.000000     0.007087   121.752421
	   50 B(10,6,11)      =    106.353093     0.000000    -0.003087   106.350005
	   51 B(12,9,13)      =    106.179937     0.000001     0.012748   106.192685
	   52 B(12,9,14)      =    108.918170    -0.000000    -0.020701   108.897469
	   53 B(12,15,17)     =    113.736776    -0.000002    -0.027589   113.709188
	   54 B(12,15,18)     =    107.016854     0.000000    -0.004414   107.012440
	   55 B(12,15,19)     =    108.461548     0.000002     0.035987   108.497535
	   56 B(13,9,14)      =    105.468472    -0.000000    -0.011497   105.456976
	   57 B(15,12,16)     =    120.822033    -0.000000    -0.004326   120.817706
	   58 B(15,17,20)     =    112.413780     0.000000     0.000872   112.414652
	   59 B(15,17,21)     =    109.153624    -0.000000    -0.003188   109.150436
	   60 B(15,17,22)     =    110.118995     0.000000    -0.001779   110.117217
	   61 B(17,15,18)     =    110.135320     0.000000    -0.012437   110.122882
	   62 B(17,15,19)     =    109.358880    -0.000000     0.002199   109.361079
	   63 B(17,20,23)     =    112.951219     0.000000    -0.000412   112.950807
	   64 B(17,20,24)     =    109.212750     0.000000    -0.001422   109.211328
	   65 B(17,20,25)     =    109.243621    -0.000000     0.001035   109.244656
	   66 B(18,15,19)     =    107.951555    -0.000000     0.008443   107.959998
	   67 B(20,17,21)     =    109.286773     0.000000     0.001749   109.288522
	   68 B(20,17,22)     =    109.062560    -0.000000    -0.001035   109.061524
	   69 B(20,23,26)     =    111.136766     0.000000     0.000179   111.136945
	   70 B(20,23,27)     =    111.199494    -0.000000    -0.000437   111.199057
	   71 B(20,23,28)     =    111.130634     0.000000     0.000035   111.130669
	   72 B(21,17,22)     =    106.635061     0.000000     0.003563   106.638623
	   73 B(23,20,24)     =    109.445929    -0.000000    -0.000532   109.445397
	   74 B(23,20,25)     =    109.434776     0.000000     0.000793   109.435569
	   75 B(24,20,25)     =    106.336661     0.000000     0.000599   106.337260
	   76 B(26,23,27)     =    107.715251     0.000000     0.000092   107.715343
	   77 B(26,23,28)     =    107.750410    -0.000000     0.000155   107.750565
	   78 B(27,23,28)     =    107.740991     0.000000    -0.000012   107.740979
	   79 D(1,2,3,6)      =    179.373299    -0.000000     0.008529   179.381828
	   80 D(1,2,3,7)      =     58.726142     0.000000     0.011281    58.737424
	   81 D(1,2,3,8)      =    -56.682525    -0.000000     0.008962   -56.673562
	   82 D(2,3,6,9)      =     77.206877     0.000000    -0.000129    77.206747
	   83 *D(2,3,6,10)    =   -159.999964     0.000000    -0.000000  -159.999964
	   84 D(2,3,6,11)     =    -44.207725     0.000000    -0.004576   -44.212301
	   85 D(3,6,9,12)     =     72.163743    -0.000000    -0.003658    72.160085
	   86 D(3,6,9,13)     =   -168.617256     0.000000     0.022408  -168.594848
	   87 D(3,6,9,14)     =    -52.148652     0.000000     0.014031   -52.134621
	   88 D(4,2,3,6)      =     59.671205    -0.000000     0.007248    59.678453
	   89 D(4,2,3,7)      =    -60.975952     0.000000     0.010000   -60.965952
	   90 D(4,2,3,8)      =   -176.384619     0.000000     0.007681  -176.376938
	   91 D(5,2,3,6)      =    -60.679703    -0.000000     0.003161   -60.676541
	   92 D(5,2,3,7)      =    178.673141     0.000000     0.005913   178.679054
	   93 D(5,2,3,8)      =     63.264474    -0.000000     0.003594    63.268068
	   94 D(6,9,12,15)    =   -164.402751    -0.000000    -0.242137  -164.644888
	   95 D(6,9,12,16)    =     16.690664    -0.000000    -0.231475    16.459189
	   96 D(7,3,6,9)      =   -162.110853    -0.000000     0.000348  -162.110505
	   97 D(7,3,6,10)     =    -39.317693    -0.000000     0.000477   -39.317216
	   98 D(7,3,6,11)     =     76.474545     0.000000    -0.004098    76.470447
	   99 D(8,3,6,9)      =    -46.909526     0.000000    -0.003252   -46.912779
	  100 D(8,3,6,10)     =     75.883633    -0.000000    -0.003123    75.880510
	  101 D(8,3,6,11)     =   -168.324128     0.000000    -0.007699  -168.331827
	  102 D(9,12,15,17)   =    -64.088883    -0.000000    -0.313479   -64.402361
	  103 D(9,12,15,18)   =    174.050779     0.000000    -0.277186   173.773593
	  104 D(9,12,15,19)   =     57.819996    -0.000000    -0.302956    57.517040
	  105 D(10,6,9,12)    =    -50.901662    -0.000000     0.001805   -50.899857
	  106 D(10,6,9,13)    =     68.317339     0.000000     0.027872    68.345211
	  107 D(10,6,9,14)    =   -175.214056     0.000000     0.019494  -175.194562
	  108 D(11,6,9,12)    =   -166.130809    -0.000000     0.003899  -166.126910
	  109 D(11,6,9,13)    =    -46.911808     0.000000     0.029965   -46.881843
	  110 D(11,6,9,14)    =     69.556797     0.000000     0.021588    69.578385
	  111 D(12,15,17,20)  =   -176.010336     0.000000     0.069435  -175.940901
	  112 D(12,15,17,21)  =    -54.578593     0.000000     0.070007   -54.508586
	  113 D(12,15,17,22)  =     62.163801     0.000000     0.071430    62.235231
	  114 D(13,9,12,15)   =     74.451349    -0.000000    -0.263289    74.188060
	  115 D(13,9,12,16)   =   -104.455236    -0.000000    -0.252627  -104.707863
	  116 D(14,9,12,15)   =    -38.690432     0.000000    -0.246792   -38.937224
	  117 D(14,9,12,16)   =    142.402983     0.000000    -0.236130   142.166853
	  118 D(15,17,20,23)  =    179.897225    -0.000000    -0.016721   179.880504
	  119 D(15,17,20,24)  =     57.862354    -0.000000    -0.014741    57.847614
	  120 D(15,17,20,25)  =    -58.060014    -0.000000    -0.015242   -58.075256
	  121 D(16,12,15,17)  =    114.828359    -0.000000    -0.323904   114.504454
	  122 D(16,12,15,18)  =     -7.031980     0.000000    -0.287612    -7.319592
	  123 D(16,12,15,19)  =   -123.262763    -0.000000    -0.313382  -123.576144
	  124 D(17,20,23,26)  =    -59.903552     0.000000     0.012214   -59.891339
	  125 D(17,20,23,27)  =     60.087524     0.000000     0.012158    60.099682
	  126 D(17,20,23,28)  =   -179.892958     0.000000     0.011874  -179.881084
	  127 D(18,15,17,20)  =    -55.895361    -0.000000     0.036084   -55.859277
	  128 D(18,15,17,21)  =     65.536381    -0.000000     0.036656    65.573037
	  129 D(18,15,17,22)  =   -177.721225    -0.000000     0.038080  -177.683145
	  130 D(19,15,17,20)  =     62.579308    -0.000000     0.040290    62.619597
	  131 D(19,15,17,21)  =   -175.988950    -0.000000     0.040862  -175.948088
	  132 D(19,15,17,22)  =    -59.246556    -0.000000     0.042286   -59.204270
	  133 D(21,17,20,23)  =     58.541549     0.000000    -0.014473    58.527076
	  134 D(21,17,20,24)  =    -63.493321     0.000000    -0.012493   -63.505814
	  135 D(21,17,20,25)  =   -179.415689     0.000000    -0.012994  -179.428684
	  136 D(22,17,20,23)  =    -57.678110    -0.000000    -0.019133   -57.697244
	  137 D(22,17,20,24)  =   -179.712981    -0.000000    -0.017153  -179.730134
	  138 D(22,17,20,25)  =     64.364651    -0.000000    -0.017654    64.346996
	  139 D(24,20,23,26)  =     62.000267     0.000000     0.009730    62.009996
	  140 D(24,20,23,27)  =   -178.008657     0.000000     0.009674  -177.998983
	  141 D(24,20,23,28)  =    -57.989139     0.000000     0.009390   -57.979749
	  142 D(25,20,23,26)  =    178.161096     0.000000     0.010598   178.171694
	  143 D(25,20,23,27)  =    -61.847828    -0.000000     0.010542   -61.837286
	  144 D(25,20,23,28)  =     58.171690    -0.000000     0.010258    58.181948
	  145 R(3,16)         =      3.326801    -0.000115    -0.002041     3.324760
	 ---------------------------------------------------------------------------

  ==> Convergence Check <==

  Measures of convergence in internal coordinates in au.
  Criteria marked as inactive (o), active & met (*), and active & unmet ( ).
  ---------------------------------------------------------------------------------------------
   Step     Total Energy     Delta E     MAX Force     RMS Force      MAX Disp      RMS Disp   
  ---------------------------------------------------------------------------------------------
    Convergence Criteria    1.00e-06 *    3.00e-04 *             o    1.20e-03 *             o
  ---------------------------------------------------------------------------------------------
      7    -426.31764667   -1.59e-07 *    1.99e-05 *    4.48e-06 o    5.65e-03      1.45e-03 o  ~
  ---------------------------------------------------------------------------------------------


  **** Optimization is complete! (in 7 steps) ****

  ==> Optimization Summary <==

  Measures of convergence in internal coordinates in au.
  --------------------------------------------------------------------------------------------------------------- ~
   Step         Total Energy             Delta E       MAX Force       RMS Force        MAX Disp        RMS Disp  ~
  --------------------------------------------------------------------------------------------------------------- ~
      1    -426.317324119448   -426.317324119448      0.00460727      0.00082265      0.05794399      0.01176189  ~
      2    -426.317615586189     -0.000291466741      0.00229074      0.00030760      0.03722571      0.01037956  ~
      3    -426.317454196806      0.000161389383      0.00124193      0.00034978      0.03619000      0.00869462  ~
      4    -426.317644621066     -0.000190424260      0.00027559      0.00004333      0.03554338      0.00890074  ~
      5    -426.317635289346      0.000009331720      0.00044878      0.00007608      0.02691860      0.00668820  ~
      6    -426.317646506982     -0.000011217636      0.00004625      0.00000915      0.00206660      0.00062066  ~
      7    -426.317646666019     -0.000000159036      0.00001994      0.00000448      0.00565320      0.00144831  ~
  --------------------------------------------------------------------------------------------------------------- ~

	Writing optimization data to binary file.
	Final energy is   -426.3176466660185
	Final (previous) structure:
	Cartesian Geometry (in Angstrom)
	    H     3.0956164531   3.6485218020   1.0431643902
	    C     2.5372149243   3.1942953863   0.2327038406
	    C     1.0435750214   3.1653322505   0.5489737352
	    H     2.7324280560   3.7696259746  -0.6661844409
	    H     2.9421179014   2.1994529285   0.0797509053
	    C     0.1835142163   2.5495624837  -0.5594536738
	    H     0.7092303186   4.1844588930   0.7129569241
	    H     0.8699203845   2.6419236745   1.4823479782
	    C     0.2191441378   1.0251900398  -0.6255848553
	    H    -0.8421284117   2.8713804802  -0.4394963938
	    H     0.5163486963   2.9392894528  -1.5174256545
	    C    -0.5220061640   0.3273122901   0.5024939823
	    H    -0.2468438321   0.6884137736  -1.5480825145
	    H     1.2369897544   0.6510669620  -0.6621619413
	    C    -0.2378874250  -1.1467402820   0.7180978837
	    O    -1.3104193924   0.9013789313   1.1820850517
	    C    -0.6588177489  -2.0345453338  -0.4579101910
	    H    -0.7645817063  -1.4427037829   1.6152210450
	    H     0.8267611633  -1.2691761051   0.8989084307
	    C    -0.4494202741  -3.5188421815  -0.1706569846
	    H    -1.7070952572  -1.8566831671  -0.6815074269
	    H    -0.1008503364  -1.7637027458  -1.3485643934
	    C    -0.8668175148  -4.4139502949  -1.3323580120
	    H    -1.0108033599  -3.7936329119   0.7172589143
	    H     0.5971025170  -3.6942202021   0.0629817332
	    H    -1.9176508549  -4.2842648353  -1.5681258387
	    H    -0.2971879982  -4.1864730586  -2.2272442863
	    H    -0.7077325461  -5.4596050774  -1.0965732195
	Saving final (previous) structure.
			--------------------------
			 OPTKING Finished Execution 
			--------------------------

    Final optimized geometry and variables:
    Molecular point group: c1
    Full point group: C1

    Geometry (in Angstrom), charge = 0, multiplicity = 1:

    H            3.095616216729     3.648521523431     1.043164310558
    C            2.537214730540     3.194295142336     0.232703822780
    C            1.043574941713     3.165332008813     0.548973693239
    H            2.732427847305     3.769625686750    -0.666184389978
    H            2.942117676757     2.199452760501     0.079750899195
    C            0.183514202248     2.549562288974    -0.559453631096
    H            0.709230264407     4.184458573417     0.712956869676
    H            0.869920318105     2.641923472736     1.482347864978
    C            0.219144121064     1.025189961551    -0.625584807563
    H           -0.842128347426     2.871380260927    -0.439496360234
    H            0.516348656855     2.939289228393    -1.517425538671
    C           -0.522006124187     0.327312265087     0.502493943903
    H           -0.246843813236     0.688413721069    -1.548082396324
    H            1.236989659964     0.651066912268    -0.662161890741
    C           -0.237887406817    -1.146740194456     0.718097828840
    O           -1.310419292327     0.901378862506     1.182084961478
    C           -0.658817698629    -2.034545178391    -0.457910156054
    H           -0.764581647899    -1.442703672726     1.615220921690
    H            0.826761100178    -1.269176008131     0.898908362072
    C           -0.449420239768    -3.518841912837    -0.170656971575
    H           -1.707095126804    -1.856683025341    -0.681507374844
    H           -0.100850328732    -1.763702611095    -1.348564290369
    C           -0.866817448608    -4.413949957839    -1.332357910264
    H           -1.010803282725    -3.793632622215     0.717258859482
    H            0.597102471357    -3.694219919999     0.062981728403
    H           -1.917650708484    -4.284264508143    -1.568125718956
    H           -0.297187975466    -4.186472738911    -2.227244116189
    H           -0.707732492013    -5.459604660487    -1.096573135760

	Cleaning optimization helper files.


Properties will be evaluated at   0.000000,   0.000000,   0.000000 Bohr

Properties computed using the  density matrix

  Nuclear Dipole Moment: (a.u.)
     X:     5.5544      Y:    -3.8921      Z:    -4.8155

  Electronic Dipole Moment: (a.u.)
     X:    -4.8638      Y:     3.2695      Z:     4.1338

  Dipole Moment: (a.u.)
     X:     0.6906      Y:    -0.6226      Z:    -0.6817     Total:     1.1529

  Dipole Moment: (Debye)
     X:     1.7554      Y:    -1.5825      Z:    -1.7327     Total:     2.9305

  Quadrupole Moment: (Debye Ang)
    XX:   -68.4403     YY:   -63.9973     ZZ:   -67.5374
    XY:     2.4930     XZ:     3.2478     YZ:    -2.5789

  Traceless Quadrupole Moment: (Debye Ang)
    XX:    -1.7820     YY:     2.6610     ZZ:    -0.8791
    XY:     2.4930     XZ:     3.2478     YZ:    -2.5789

  Mulliken Charges: (a.u.)
   Center  Symbol    Alpha    Beta     Spin     Total
       1     H     0.44640  0.44640  0.00000  0.10720
       2     C     3.14945  3.14945  0.00000 -0.29891
       3     C     3.09252  3.09252  0.00000 -0.18505
       4     H     0.45531  0.45531  0.00000  0.08938
       5     H     0.45894  0.45894  0.00000  0.08211
       6     C     3.09438  3.09438  0.00000 -0.18876
       7     H     0.44759  0.44759  0.00000  0.10482
       8     H     0.44656  0.44656  0.00000  0.10688
       9     C     3.13162  3.13162  0.00000 -0.26324
      10     H     0.43852  0.43852  0.00000  0.12296
      11     H     0.44865  0.44865  0.00000  0.10270
      12     C     2.86454  2.86454  0.00000  0.27092
      13     H     0.43302  0.43302  0.00000  0.13396
      14     H     0.44133  0.44133  0.00000  0.11734
      15     C     3.09373  3.09373  0.00000 -0.18745
      16     O     4.17785  4.17785  0.00000 -0.35571
      17     C     3.10083  3.10083  0.00000 -0.20166
      18     H     0.43775  0.43775  0.00000  0.12450
      19     H     0.44950  0.44950  0.00000  0.10100
      20     C     3.08729  3.08729  0.00000 -0.17459
      21     H     0.44560  0.44560  0.00000  0.10881
      22     H     0.45058  0.45058  0.00000  0.09885
      23     C     3.14920  3.14920  0.00000 -0.29840
      24     H     0.44979  0.44979  0.00000  0.10042
      25     H     0.45363  0.45363  0.00000  0.09273
      26     H     0.45342  0.45342  0.00000  0.09317
      27     H     0.45520  0.45520  0.00000  0.08960
      28     H     0.44680  0.44680  0.00000  0.10640

   Total alpha = 40.00000, Total beta = 40.00000, Total charge = -0.00000


*** PSI4 exiting successfully. Buy a developer a beer!
