    -----------------------------------------------------------------------
          Psi4: An Open-Source Ab Initio Electronic Structure Package
                              Psi4 (no tag) Driver

                          Git: Rev {detached?}  

    J. M. Turney, A. C. Simmonett, R. M. Parrish, E. G. Hohenstein,
    F. A. Evangelista, J. T. Fermann, B. J. Mintz, L. A. Burns, J. J. Wilke,
    M. L. Abrams, N. J. Russ, M. L. Leininger, C. L. Janssen, E. T. Seidl,
    W. D. Allen, H. F. Schaefer, R. A. King, E. F. Valeev, C. D. Sherrill,
    and T. D. Crawford, WIREs Comput. Mol. Sci. 2, 556-565 (2012)
    (doi: 10.1002/wcms.93)

                         Additional Contributions by
    A. E. DePrince, M. Saitow, U. Bozkaya, A. Yu. Sokolov
    -----------------------------------------------------------------------


    Psi4 started on: Fri Sep  9 21:23:30 2016

    Process ID:  31855
    PSI4DATADIR: /export131/home/mjharvey/miniconda3/share
    Memory level set to 256.000 MB

  ==> Input File <==

--------------------------------------------------------------------------
set {
	reference rhf
	basis cc-pvtz
}


set_num_threads( 4 )
memory 2 gb

molecule MOL {
0 1

H	 2.300172	 0.700321	 -0.566647
O	 2.063695	 -0.083403	 -0.105237
C	 0.742924	 0.005675	 0.350750
H	 0.731380	 0.039219	 1.440080
C	 -0.064076	 -1.193495	 -0.124425
C	 -0.047832	 1.190568	 -0.194462
H	 0.194729	 -1.376165	 -1.161308
H	 0.163013	 -2.094508	 0.429933
C	 -1.533112	 -0.752002	 0.006102
H	 0.148003	 1.266545	 -1.259275
H	 0.226235	 2.136493	 0.259722
C	 -1.506634	 0.799189	 0.067162
H	 -2.124360	 -1.110499	 -0.826089
H	 -1.983103	 -1.158030	 0.903403
H	 -2.183808	 1.252169	 -0.644677
H	 -1.813926	 1.138698	 1.049457

	symmetry c1
}
set optking {
	frozen_dihedral = ("
		1 2 3 6
	")
}

ee = optimize('scf')
oeprop('DIPOLE', 'QUADRUPOLE', 'MULLIKEN_CHARGES')
f=open( 'psi4out.xyz', 'w' )
f.write( "16  " )
f.write( str(ee) + "\n" )
f.write( MOL.save_string_xyz() )
f.close()
--------------------------------------------------------------------------

  Memory set to   2.000 GiB by Python script.
gradient() will perform analytic gradient computation.

*** tstart() called on cx1-27-1-4
*** at Fri Sep  9 21:23:30 2016


         ---------------------------------------------------------
                                   SCF
            by Justin Turney, Rob Parrish, and Andy Simmonett
                              RHF Reference
                        4 Threads,   2000 MiB Core
         ---------------------------------------------------------

  ==> Geometry <==

    Molecular point group: c1
    Full point group: C1

    Geometry (in Angstrom), charge = 0, multiplicity = 1:

       Center              X                  Y                   Z               Mass       
    ------------   -----------------  -----------------  -----------------  -----------------
           H          2.303329468907     0.699558229014    -0.557351752692     1.007825032070
           O          2.066852468907    -0.084165770986    -0.095941752692    15.994914619560
           C          0.746081468907     0.004912229014     0.360045247308    12.000000000000
           H          0.734537468907     0.038456229014     1.449375247308     1.007825032070
           C         -0.060918531093    -1.194257770986    -0.115129752692    12.000000000000
           C         -0.044674531093     1.189805229014    -0.185166752692    12.000000000000
           H          0.197886468907    -1.376927770986    -1.152012752692     1.007825032070
           H          0.166170468907    -2.095270770986     0.439228247308     1.007825032070
           C         -1.529954531093    -0.752764770986     0.015397247308    12.000000000000
           H          0.151160468907     1.265782229014    -1.249979752692     1.007825032070
           H          0.229392468907     2.135730229014     0.269017247308     1.007825032070
           C         -1.503476531093     0.798426229014     0.076457247308    12.000000000000
           H         -2.121202531093    -1.111261770986    -0.816793752692     1.007825032070
           H         -1.979945531093    -1.158792770986     0.912698247308     1.007825032070
           H         -2.180650531093     1.251406229014    -0.635381752692     1.007825032070
           H         -1.810768531093     1.137935229014     1.058752247308     1.007825032070

  Running in c1 symmetry.

  Rotational constants: A =      0.21579  B =      0.10283  C =      0.07657 [cm^-1]
  Rotational constants: A =   6469.13219  B =   3082.90182  C =   2295.60722 [MHz]
  Nuclear repulsion =  255.928020420857251

  Charge       = 0
  Multiplicity = 1
  Electrons    = 48
  Nalpha       = 24
  Nbeta        = 24

  ==> Algorithm <==

  SCF Algorithm Type is DF.
  DIIS enabled.
  MOM disabled.
  Fractional occupation disabled.
  Guess Type is CORE.
  Energy threshold   = 1.00e-08
  Density threshold  = 1.00e-08
  Integral threshold = 0.00e+00

  ==> Primary Basis <==

  Basis Set: CC-PVTZ
    Number of shells: 120
    Number of basis function: 320
    Number of Cartesian functions: 360
    Spherical Harmonics?: true
    Max angular momentum: 3

  ==> Pre-Iterations <==

   -------------------------------------------------------
    Irrep   Nso     Nmo     Nalpha   Nbeta   Ndocc  Nsocc
   -------------------------------------------------------
     A        320     320       0       0       0       0
   -------------------------------------------------------
    Total     320     320      24      24      24       0
   -------------------------------------------------------

 OEINTS: Overlap, kinetic, potential, dipole, and quadrupole integrals
         stored in file 35.

  ==> Integral Setup <==

  ==> DFJK: Density-Fitted J/K Matrices <==

    J tasked:                  Yes
    K tasked:                  Yes
    wK tasked:                  No
    OpenMP threads:              4
    Integrals threads:           4
    Memory (MB):              1430
    Algorithm:                Core
    Integral Cache:           NONE
    Schwarz Cutoff:          1E-12
    Fitting Condition:       1E-12

   => Auxiliary Basis Set <=

  Basis Set: 
    Number of shells: 250
    Number of basis function: 774
    Number of Cartesian functions: 926
    Spherical Harmonics?: true
    Max angular momentum: 4

  Minimum eigenvalue in the overlap matrix is 1.9089867066E-04.
  Using Symmetric Orthogonalization.
  SCF Guess: Core (One-Electron) Hamiltonian.

  ==> Iterations <==

                           Total Energy        Delta E     RMS |[F,P]|

   @DF-RHF iter   1:  -200.90456285790827   -2.00905e+02   4.00238e-02 
   @DF-RHF iter   2:  -180.14442198933796    2.07601e+01   2.34657e-02 DIIS
   @DF-RHF iter   3:  -205.24300017232110   -2.50986e+01   3.00205e-02 DIIS
   @DF-RHF iter   4:  -250.32097922310430   -4.50780e+01   1.57492e-02 DIIS
   @DF-RHF iter   5:  -268.50872199644061   -1.81877e+01   5.82379e-03 DIIS
   @DF-RHF iter   6:  -269.99142509981050   -1.48270e+00   1.52679e-03 DIIS
   @DF-RHF iter   7:  -270.10549803697438   -1.14073e-01   3.39081e-04 DIIS
   @DF-RHF iter   8:  -270.11306976547542   -7.57173e-03   1.54010e-04 DIIS
   @DF-RHF iter   9:  -270.11421522524256   -1.14546e-03   3.20377e-05 DIIS
   @DF-RHF iter  10:  -270.11431542224034   -1.00197e-04   8.27226e-06 DIIS
   @DF-RHF iter  11:  -270.11432231003062   -6.88779e-06   2.64421e-06 DIIS
   @DF-RHF iter  12:  -270.11432286086631   -5.50836e-07   7.30385e-07 DIIS
   @DF-RHF iter  13:  -270.11432291220910   -5.13428e-08   1.83940e-07 DIIS
   @DF-RHF iter  14:  -270.11432291610856   -3.89946e-09   4.68621e-08 DIIS
   @DF-RHF iter  15:  -270.11432291631820   -2.09639e-10   1.49685e-08 DIIS
   @DF-RHF iter  16:  -270.11432291633730   -1.90994e-11   3.60624e-09 DIIS

  ==> Post-Iterations <==

    Orbital Energies (a.u.)
    -----------------------

    Doubly Occupied:                                                      

       1A    -20.543475     2A    -11.266965     3A    -11.218492  
       4A    -11.217754     5A    -11.213975     6A    -11.205303  
       7A     -1.365013     8A     -1.116415     9A     -0.969692  
      10A     -0.949790    11A     -0.800997    12A     -0.779416  
      13A     -0.687011    14A     -0.667101    15A     -0.609906  
      16A     -0.603059    17A     -0.576071    18A     -0.533699  
      19A     -0.501975    20A     -0.484270    21A     -0.472931  
      22A     -0.459063    23A     -0.447671    24A     -0.422877  

    Virtual:                                                              

      25A      0.137704    26A      0.154313    27A      0.160296  
      28A      0.175844    29A      0.207083    30A      0.217025  
      31A      0.218403    32A      0.224346    33A      0.229987  
      34A      0.272778    35A      0.304342    36A      0.311740  
      37A      0.328185    38A      0.367644    39A      0.378299  
      40A      0.404046    41A      0.413185    42A      0.416398  
      43A      0.442376    44A      0.465005    45A      0.497766  
      46A      0.509518    47A      0.538700    48A      0.565160  
      49A      0.576605    50A      0.585582    51A      0.586363  
      52A      0.606211    53A      0.609143    54A      0.614411  
      55A      0.624903    56A      0.642822    57A      0.648495  
      58A      0.655761    59A      0.669074    60A      0.676569  
      61A      0.683820    62A      0.686209    63A      0.704539  
      64A      0.706957    65A      0.740318    66A      0.791726  
      67A      0.812157    68A      0.829994    69A      0.870917  
      70A      0.881600    71A      0.901646    72A      0.938753  
      73A      0.967818    74A      0.992891    75A      1.023717  
      76A      1.031875    77A      1.050354    78A      1.067912  
      79A      1.100035    80A      1.119167    81A      1.150005  
      82A      1.170511    83A      1.175707    84A      1.195661  
      85A      1.219198    86A      1.231846    87A      1.233728  
      88A      1.246631    89A      1.283533    90A      1.307557  
      91A      1.320946    92A      1.325446    93A      1.335265  
      94A      1.351793    95A      1.360700    96A      1.363558  
      97A      1.372529    98A      1.391757    99A      1.408769  
     100A      1.429089   101A      1.436990   102A      1.445049  
     103A      1.478773   104A      1.487619   105A      1.505752  
     106A      1.520937   107A      1.528438   108A      1.534862  
     109A      1.558850   110A      1.565590   111A      1.572961  
     112A      1.610195   113A      1.629276   114A      1.656269  
     115A      1.669286   116A      1.692865   117A      1.713390  
     118A      1.734185   119A      1.763967   120A      1.772861  
     121A      1.827249   122A      1.832801   123A      1.853314  
     124A      1.883563   125A      1.921257   126A      1.938373  
     127A      1.972676   128A      1.981923   129A      2.051109  
     130A      2.199029   131A      2.284709   132A      2.306535  
     133A      2.377087   134A      2.469145   135A      2.589045  
     136A      2.605877   137A      2.680408   138A      2.696918  
     139A      2.712248   140A      2.733754   141A      2.762585  
     142A      2.783433   143A      2.798206   144A      2.808258  
     145A      2.845977   146A      2.864389   147A      2.866831  
     148A      2.875155   149A      2.905196   150A      2.917260  
     151A      2.937598   152A      2.982095   153A      2.989006  
     154A      2.993664   155A      3.032798   156A      3.039260  
     157A      3.050382   158A      3.088531   159A      3.094741  
     160A      3.126667   161A      3.150800   162A      3.179387  
     163A      3.208261   164A      3.213558   165A      3.246501  
     166A      3.249711   167A      3.295289   168A      3.309110  
     169A      3.311874   170A      3.342285   171A      3.364982  
     172A      3.369133   173A      3.404594   174A      3.412027  
     175A      3.427725   176A      3.444252   177A      3.449595  
     178A      3.456556   179A      3.474494   180A      3.491959  
     181A      3.494792   182A      3.502781   183A      3.533535  
     184A      3.533913   185A      3.551411   186A      3.569702  
     187A      3.598226   188A      3.602596   189A      3.634457  
     190A      3.658053   191A      3.664748   192A      3.708864  
     193A      3.723864   194A      3.746587   195A      3.760367  
     196A      3.790066   197A      3.806721   198A      3.830099  
     199A      3.857375   200A      3.874209   201A      3.901548  
     202A      3.912441   203A      3.917475   204A      3.938873  
     205A      3.958807   206A      3.964783   207A      3.987599  
     208A      4.000696   209A      4.006610   210A      4.023292  
     211A      4.080621   212A      4.101195   213A      4.110159  
     214A      4.113283   215A      4.127875   216A      4.131977  
     217A      4.145574   218A      4.164788   219A      4.175889  
     220A      4.194399   221A      4.217085   222A      4.233048  
     223A      4.256340   224A      4.277470   225A      4.290347  
     226A      4.299904   227A      4.314450   228A      4.353097  
     229A      4.362250   230A      4.373420   231A      4.381165  
     232A      4.390650   233A      4.400397   234A      4.420624  
     235A      4.460205   236A      4.469888   237A      4.501689  
     238A      4.522600   239A      4.525100   240A      4.551780  
     241A      4.562471   242A      4.599322   243A      4.620971  
     244A      4.631960   245A      4.646049   246A      4.658309  
     247A      4.666320   248A      4.685923   249A      4.698044  
     250A      4.716549   251A      4.736199   252A      4.748242  
     253A      4.793545   254A      4.818037   255A      4.865666  
     256A      4.878306   257A      4.901118   258A      4.944839  
     259A      5.006757   260A      5.011339   261A      5.036765  
     262A      5.043638   263A      5.049742   264A      5.082874  
     265A      5.093180   266A      5.101979   267A      5.184031  
     268A      5.246658   269A      5.286304   270A      5.311202  
     271A      5.343344   272A      5.349091   273A      5.372909  
     274A      5.394223   275A      5.403939   276A      5.420724  
     277A      5.450232   278A      5.468968   279A      5.499723  
     280A      5.507721   281A      5.533989   282A      5.557239  
     283A      5.582431   284A      5.637722   285A      5.653965  
     286A      5.691053   287A      5.727795   288A      5.747388  
     289A      5.803017   290A      5.819329   291A      5.854306  
     292A      5.892521   293A      5.924919   294A      5.944412  
     295A      6.025497   296A      6.046469   297A      6.103022  
     298A      6.179041   299A      6.216188   300A      6.234975  
     301A      6.308752   302A      6.375357   303A      6.400187  
     304A      6.492973   305A      6.567369   306A      6.758576  
     307A      7.097656   308A      7.189707   309A      7.260822  
     310A      7.323407   311A      7.455018   312A      7.592047  
     313A      7.787888   314A      8.058223   315A     11.724634  
     316A     12.422838   317A     13.005127   318A     13.199112  
     319A     13.861695   320A     13.993835  

    Final Occupation by Irrep:
              A 
    DOCC [    24 ]

  Energy converged.

  @DF-RHF Final Energy:  -270.11432291633730

   => Energetics <=

    Nuclear Repulsion Energy =            255.9280204208572513
    One-Electron Energy =                -873.8588363691940231
    Two-Electron Energy =                 347.8164930319995847
    DFT Exchange-Correlation Energy =       0.0000000000000000
    Empirical Dispersion Energy =           0.0000000000000000
    PCM Polarization Energy =               0.0000000000000000
    EFP Energy =                            0.0000000000000000
    Total Energy =                       -270.1143229163371871

    Alert: EFP and PCM quantities not currently incorporated into SCF psivars.

Properties will be evaluated at   0.000000,   0.000000,   0.000000 Bohr
  ==> Properties <==


Properties computed using the SCF density matrix

  Nuclear Dipole Moment: (a.u.)
     X:    -4.0306      Y:     0.7370      Z:    -0.2652

  Electronic Dipole Moment: (a.u.)
     X:     3.5845      Y:    -0.2206      Z:     0.1443

  Dipole Moment: (a.u.)
     X:    -0.4461      Y:     0.5164      Z:    -0.1210     Total:     0.6931

  Dipole Moment: (Debye)
     X:    -1.1340      Y:     1.3125      Z:    -0.3075     Total:     1.7616


  Saving occupied orbitals to File 180.

*** tstop() called on cx1-27-1-4 at Fri Sep  9 21:23:43 2016
Module time:
	user time   =      42.67 seconds =       0.71 minutes
	system time =       0.67 seconds =       0.01 minutes
	total time  =         13 seconds =       0.22 minutes
Total time:
	user time   =      42.67 seconds =       0.71 minutes
	system time =       0.67 seconds =       0.01 minutes
	total time  =         13 seconds =       0.22 minutes

*** tstart() called on cx1-27-1-4
*** at Fri Sep  9 21:23:43 2016


         ------------------------------------------------------------
                                   SCF GRAD                          
                          Rob Parrish, Justin Turney,                
                       Andy Simmonett, and Alex Sokolov              
         ------------------------------------------------------------

  ==> Geometry <==

    Molecular point group: c1
    Full point group: C1

    Geometry (in Angstrom), charge = 0, multiplicity = 1:

       Center              X                  Y                   Z               Mass       
    ------------   -----------------  -----------------  -----------------  -----------------
           H          2.303329468907     0.699558229014    -0.557351752692     1.007825032070
           O          2.066852468907    -0.084165770986    -0.095941752692    15.994914619560
           C          0.746081468907     0.004912229014     0.360045247308    12.000000000000
           H          0.734537468907     0.038456229014     1.449375247308     1.007825032070
           C         -0.060918531093    -1.194257770986    -0.115129752692    12.000000000000
           C         -0.044674531093     1.189805229014    -0.185166752692    12.000000000000
           H          0.197886468907    -1.376927770986    -1.152012752692     1.007825032070
           H          0.166170468907    -2.095270770986     0.439228247308     1.007825032070
           C         -1.529954531093    -0.752764770986     0.015397247308    12.000000000000
           H          0.151160468907     1.265782229014    -1.249979752692     1.007825032070
           H          0.229392468907     2.135730229014     0.269017247308     1.007825032070
           C         -1.503476531093     0.798426229014     0.076457247308    12.000000000000
           H         -2.121202531093    -1.111261770986    -0.816793752692     1.007825032070
           H         -1.979945531093    -1.158792770986     0.912698247308     1.007825032070
           H         -2.180650531093     1.251406229014    -0.635381752692     1.007825032070
           H         -1.810768531093     1.137935229014     1.058752247308     1.007825032070

  Nuclear repulsion =  255.928020420857251

  ==> Basis Set <==

  Basis Set: CC-PVTZ
    Number of shells: 120
    Number of basis function: 320
    Number of Cartesian functions: 360
    Spherical Harmonics?: true
    Max angular momentum: 3

  ==> DFJKGrad: Density-Fitted SCF Gradients <==

    Gradient:                    1
    J tasked:                  Yes
    K tasked:                  Yes
    wK tasked:                  No
    OpenMP threads:              4
    Integrals threads:           4
    Memory (MB):              1430
    Schwarz Cutoff:          0E+00
    Fitting Condition:       1E-12

   => Auxiliary Basis Set <=

  Basis Set: 
    Number of shells: 250
    Number of basis function: 774
    Number of Cartesian functions: 926
    Spherical Harmonics?: true
    Max angular momentum: 4


  -Total Gradient:
     Atom            X                  Y                   Z
    ------   -----------------  -----------------  -----------------
       1       -0.001076960078     0.001079504163    -0.001809222088
       2       -0.003687212582    -0.004462713156    -0.002005214146
       3        0.001734254901     0.002435289666     0.003975954521
       4       -0.002849069545    -0.000716880385     0.001577660013
       5        0.004223367241    -0.000041508667    -0.000826397036
       6       -0.000181964388     0.000282507192    -0.003079293306
       7        0.000097163310    -0.000053209734    -0.000217929237
       8        0.000074795498     0.000208492109     0.000057307798
       9        0.000602236966     0.001011252232    -0.000429837976
      10        0.001044980332    -0.000176055516     0.001708069003
      11       -0.000153821671     0.000449254655    -0.000032099986
      12        0.000243451520     0.000585119123     0.000809436992
      13        0.000216228577    -0.000055625666    -0.000019792122
      14        0.000294493576    -0.000239664555     0.000044909183
      15       -0.000045888585    -0.000077247812     0.000039475543
      16       -0.000536055070    -0.000228513645     0.000206972844


*** tstop() called on cx1-27-1-4 at Fri Sep  9 21:24:03 2016
Module time:
	user time   =      76.68 seconds =       1.28 minutes
	system time =       0.59 seconds =       0.01 minutes
	total time  =         20 seconds =       0.33 minutes
Total time:
	user time   =     119.38 seconds =       1.99 minutes
	system time =       1.26 seconds =       0.02 minutes
	total time  =         33 seconds =       0.55 minutes
CURRENT ENERGY: -270.1143229163

			-----------------------------------------
			 OPTKING 2.0: for geometry optimizations 
			  - R.A. King,  Bethel University        
			-----------------------------------------

	Internal coordinates to be generated automatically.
	Detected frag with atoms:  1 2 3 4 5 6 7 8 9 10 11 12 13 14 15 16
	---Fragment 1 Bond Connectivity---
	 1 : 2
	 2 : 1 3
	 3 : 2 4 5 6
	 4 : 3
	 5 : 3 7 8 9
	 6 : 3 10 11 12
	 7 : 5
	 8 : 5
	 9 : 5 12 13 14
	 10 : 6
	 11 : 6
	 12 : 6 9 15 16
	 13 : 9
	 14 : 9
	 15 : 12
	 16 : 12

	Assuming in current code that numbering for constraints corresponds to unified fragment.
	Frozen dihedral atom list: 
	     1     2     3     6
	---Fragment 1 Geometry and Gradient---
	 H           4.3526618900        1.3219734668       -1.0532421723
	 O           3.9057851233       -0.1590502569       -0.1813036373
	 C           1.4098896491        0.0092827675        0.6803869129
	 H           1.3880746506        0.0726717409        2.7389222812
	 C          -0.1151193402       -2.2568201192       -0.2175637023
	 C          -0.0844226289        2.2484060343       -0.3499144515
	 H           0.3739512316       -2.6020163919       -2.1769886042
	 H           0.3140166776       -3.9594879314        0.8300210972
	 C          -2.8911950595       -1.4225192596        0.0290965806
	 H           0.2856518884        2.3919817567       -2.3621194042
	 H           0.4334889432        4.0359452266        0.5083689224
	 C          -2.8411588910        1.5088069101        0.1444832583
	 H          -4.0084918561       -2.0999804091       -1.5435164996
	 H          -3.7415548118       -2.1898009819        1.7247497294
	 H          -4.1208322953        2.3648150538       -1.2006975024
	 H          -3.4218566138        2.1503859398        2.0007517900
	            -0.0010769601        0.0010795042       -0.0018092221
	            -0.0036872126       -0.0044627132       -0.0020052141
	             0.0017342549        0.0024352897        0.0039759545
	            -0.0028490695       -0.0007168804        0.0015776600
	             0.0042233672       -0.0000415087       -0.0008263970
	            -0.0001819644        0.0002825072       -0.0030792933
	             0.0000971633       -0.0000532097       -0.0002179292
	             0.0000747955        0.0002084921        0.0000573078
	             0.0006022370        0.0010112522       -0.0004298380
	             0.0010449803       -0.0001760555        0.0017080690
	            -0.0001538217        0.0004492547       -0.0000321000
	             0.0002434515        0.0005851191        0.0008094370
	             0.0002162286       -0.0000556257       -0.0000197921
	             0.0002944936       -0.0002396646        0.0000449092
	            -0.0000458886       -0.0000772478        0.0000394755
	            -0.0005360551       -0.0002285136        0.0002069728

	Previous optimization step data not found.  Starting new optimization.

	---Fragment 1 Intrafragment Coordinates---
	 - Coordinate -           - BOHR/RAD -       - ANG/DEG -
	 R(1,2)           =         1.775783	       0.939704
	 R(2,3)           =         2.645816	       1.400105
	 R(3,4)           =         2.059627	       1.089908
	 R(3,5)           =         2.875272	       1.521529
	 R(3,6)           =         2.882388	       1.525294
	 R(5,7)           =         2.048828	       1.084193
	 R(5,8)           =         2.044669	       1.081992
	 R(5,9)           =         2.909209	       1.539487
	 R(6,10)          =         2.050985	       1.085334
	 R(6,11)          =         2.049434	       1.084514
	 R(6,12)          =         2.896728	       1.532882
	 R(9,12)          =         2.934023	       1.552618
	 R(9,13)          =         2.044607	       1.081959
	 R(9,14)          =         2.046234	       1.082820
	 R(12,15)         =         2.044462	       1.081883
	 R(12,16)         =         2.048064	       1.083789
	 B(1,2,3)         =         1.922230	     110.135642
	 B(2,3,4)         =         1.915011	     109.722052
	 B(2,3,5)         =         1.926746	     110.394427
	 B(2,3,6)         =         2.006516	     114.964893
	 B(3,5,7)         =         1.880582	     107.749421
	 B(3,5,8)         =         1.965985	     112.642664
	 B(3,5,9)         =         1.827213	     104.691602
	 B(3,6,10)        =         1.887594	     108.151172
	 B(3,6,11)        =         1.978881	     113.381515
	 B(3,6,12)        =         1.807012	     103.534173
	 B(4,3,5)         =         1.907920	     109.315777
	 B(4,3,6)         =         1.904832	     109.138831
	 B(5,3,6)         =         1.798404	     103.040932
	 B(5,9,12)        =         1.847906	     105.877216
	 B(5,9,13)        =         1.940370	     111.175018
	 B(5,9,14)        =         1.938293	     111.056027
	 B(6,12,9)        =         1.838591	     105.343488
	 B(6,12,15)       =         1.956782	     112.115359
	 B(6,12,16)       =         1.922546	     110.153793
	 B(7,5,8)         =         1.875058	     107.432931
	 B(7,5,9)         =         1.936052	     110.927591
	 B(8,5,9)         =         1.977569	     113.306332
	 B(9,12,15)       =         1.962497	     112.442809
	 B(9,12,16)       =         1.921738	     110.107473
	 B(10,6,11)       =         1.879912	     107.711009
	 B(10,6,12)       =         1.935892	     110.918419
	 B(11,6,12)       =         1.973291	     113.061246
	 B(12,9,13)       =         1.950455	     111.752855
	 B(12,9,14)       =         1.927434	     110.433860
	 B(13,9,14)       =         1.860883	     106.620745
	 B(15,12,16)      =         1.862636	     106.721195
	 D(1,2,3,4)       =        -1.979923	    -113.441239
	 D(1,2,3,5)       =         2.199412	     126.017028
	*D(1,2,3,6)       =         0.174533	      10.000017
	 D(2,3,5,7)       =        -0.749296	     -42.931485
	 D(2,3,5,8)       =         1.315730	      75.385796
	 D(2,3,5,9)       =        -2.811243	    -161.072344
	 D(2,3,6,10)      =         0.772800	      44.278182
	 D(2,3,6,11)      =        -1.310696	     -75.097375
	 D(2,3,6,12)      =         2.827662	     162.013114
	 D(3,5,9,12)      =         0.336827	      19.298792
	 D(3,5,9,13)      =         2.458438	     140.858130
	 D(3,5,9,14)      =        -1.755772	    -100.598312
	 D(3,6,12,9)      =        -0.516785	     -29.609617
	 D(3,6,12,15)     =        -2.656607	    -152.212362
	 D(3,6,12,16)     =         1.555170	      89.104684
	 D(4,3,5,7)       =        -2.857386	    -163.716132
	 D(4,3,5,8)       =        -0.792359	     -45.398851
	 D(4,3,5,9)       =         1.363853	      78.143009
	 D(4,3,6,10)      =         2.932662	     168.029138
	 D(4,3,6,11)      =         0.849165	      48.653582
	 D(4,3,6,12)      =        -1.295661	     -74.235929
	 D(5,3,6,10)      =        -1.324376	     -75.881162
	 D(5,3,6,11)      =         2.875313	     164.743281
	 D(5,3,6,12)      =         0.730486	      41.853770
	 D(5,9,12,6)      =         0.111944	       6.413906
	 D(5,9,12,15)     =         2.248090	     128.806045
	 D(5,9,12,16)     =        -1.960552	    -112.331370
	 D(6,3,5,7)       =         1.401858	      80.320551
	 D(6,3,5,8)       =        -2.816301	    -161.362167
	 D(6,3,5,9)       =        -0.660089	     -37.820307
	 D(6,12,9,13)     =        -2.003164	    -114.772830
	 D(6,12,9,14)     =         2.211638	     126.717532
	 D(7,5,9,12)      =        -1.686988	     -96.657290
	 D(7,5,9,13)      =         0.434623	      24.902048
	 D(7,5,9,14)      =         2.503598	     143.445606
	 D(8,5,9,12)      =         2.485572	     142.412771
	 D(8,5,9,13)      =        -1.676003	     -96.027891
	 D(8,5,9,14)      =         0.392973	      22.515668
	 D(9,12,6,10)     =         1.504093	      86.178179
	 D(9,12,6,11)     =        -2.665306	    -152.710758
	 D(10,6,12,15)    =        -0.635729	     -36.424566
	 D(10,6,12,16)    =        -2.707137	    -155.107520
	 D(11,6,12,15)    =         1.478058	      84.686497
	 D(11,6,12,16)    =        -0.593350	     -33.996457
	 D(13,9,12,15)    =         0.132982	       7.619309
	 D(13,9,12,16)    =         2.207526	     126.481895
	 D(14,9,12,15)    =        -1.935401	    -110.890329
	 D(14,9,12,16)    =         0.139142	       7.972257

	Current energy   :      -270.1143229163

	Generating empirical Hessian (Schlegel '84) for each fragment.
	Taking RFO optimization step.
	Going to follow RFO solution 1.
	Using RFO vector 1.
	Norm of target step-size    0.16903
	Projected energy change by RFO approximation:        -0.0040732429

	Back-transformation to cartesian coordinates...
	Successfully converged to displaced geometry.

	Back-transformation to cartesian coordinates to adjust frozen coordinates...
	Successfully converged to displaced geometry.

	--- Internal Coordinate Step in ANG or DEG, aJ/ANG or AJ/DEG ---
	 ---------------------------------------------------------------------------
	   Coordinate                Previous        Force       Change         New 
	   ----------                --------       ------       ------       ------
	    1 R(1,2)          =      0.939704    -0.012504    -0.001334     0.938370
	    2 R(2,3)          =      1.400105     0.025018     0.003514     1.403620
	    3 R(3,4)          =      1.089908    -0.013058    -0.002400     1.087507
	    4 R(3,5)          =      1.521529     0.028664     0.004708     1.526237
	    5 R(3,6)          =      1.525294     0.000334    -0.000897     1.524397
	    6 R(5,7)          =      1.084193    -0.001982    -0.000357     1.083836
	    7 R(5,8)          =      1.081992     0.001059     0.000190     1.082182
	    8 R(5,9)          =      1.539487     0.000517     0.000826     1.540313
	    9 R(6,10)         =      1.085334     0.012354     0.002237     1.087571
	   10 R(6,11)         =      1.084514    -0.002797    -0.000505     1.084009
	   11 R(6,12)         =      1.532882     0.000818     0.000257     1.533139
	   12 R(9,12)         =      1.552618    -0.005308     0.000461     1.553079
	   13 R(9,13)         =      1.081959     0.000696     0.000125     1.082084
	   14 R(9,14)         =      1.082820    -0.000039    -0.000007     1.082813
	   15 R(12,15)        =      1.081883     0.000244     0.000044     1.081926
	   16 R(12,16)        =      1.083789    -0.002208    -0.000398     1.083391
	   17 B(1,2,3)        =    110.135642     0.000146     0.684195   110.819837
	   18 B(2,3,4)        =    109.722052    -0.000238    -2.539672   107.182380
	   19 B(2,3,5)        =    110.394427     0.000337     2.820869   113.215296
	   20 B(2,3,6)        =    114.964893     0.000023     0.615903   115.580796
	   21 B(3,5,7)        =    107.749421    -0.000030     0.022509   107.771930
	   22 B(3,5,8)        =    112.642664    -0.000040     0.046194   112.688857
	   23 B(3,5,9)        =    104.691602     0.000127     0.046805   104.738407
	   24 B(3,6,10)       =    108.151172     0.000023     0.444779   108.595951
	   25 B(3,6,11)       =    113.381515    -0.000054    -0.135556   113.245960
	   26 B(3,6,12)       =    103.534173     0.000101     0.083360   103.617533
	   27 B(4,3,5)        =    109.315777     0.000015    -0.017747   109.298030
	   28 B(4,3,6)        =    109.138831     0.000046    -0.722559   108.416271
	   29 B(5,3,6)        =    103.040932    -0.000172    -0.072286   102.968646
	   30 B(5,9,12)       =    105.877216    -0.000081    -0.179941   105.697274
	   31 B(5,9,13)       =    111.175018     0.000026     0.087441   111.262459
	   32 B(5,9,14)       =    111.056027     0.000047     0.242851   111.298877
	   33 B(6,12,9)       =    105.343488     0.000064     0.256215   105.599703
	   34 B(6,12,15)      =    112.115359    -0.000012    -0.017351   112.098008
	   35 B(6,12,16)      =    110.153793    -0.000053    -0.377667   109.776126
	   36 B(7,5,8)        =    107.432931     0.000020    -0.027253   107.405678
	   37 B(7,5,9)        =    110.927591    -0.000040     0.026062   110.953652
	   38 B(8,5,9)        =    113.306332    -0.000038    -0.106262   113.200069
	   39 B(9,12,15)      =    112.442809    -0.000013     0.051844   112.494653
	   40 B(9,12,16)      =    110.107473    -0.000004     0.072965   110.180438
	   41 B(10,6,11)      =    107.711009     0.000029     0.132878   107.843886
	   42 B(10,6,12)      =    110.918419    -0.000064    -0.612008   110.306410
	   43 B(11,6,12)      =    113.061246    -0.000036     0.077514   113.138759
	   44 B(12,9,13)      =    111.752855     0.000013    -0.055246   111.697609
	   45 B(12,9,14)      =    110.433860     0.000017    -0.057625   110.376235
	   46 B(13,9,14)      =    106.620745    -0.000019    -0.031613   106.589132
	   47 B(15,12,16)     =    106.721195     0.000016     0.000558   106.721753
	   48 D(1,2,3,4)      =   -113.441239     0.000025     2.468078  -110.973161
	   49 D(1,2,3,5)      =    126.017028     0.000007     2.410916   128.427944
	   50 *D(1,2,3,6)     =     10.000017    -0.000000    -0.000000    10.000017
	   51 D(2,3,5,7)      =    -42.931485    -0.000011    -2.302368   -45.233854
	   52 D(2,3,5,8)      =     75.385796    -0.000015    -2.294213    73.091583
	   53 D(2,3,5,9)      =   -161.072344    -0.000012    -2.366503  -163.438847
	   54 D(2,3,6,10)     =     44.278182     0.000052     3.971114    48.249296
	   55 D(2,3,6,11)     =    -75.097375     0.000048     3.584902   -71.512473
	   56 D(2,3,6,12)     =    162.013114     0.000050     3.510742   165.523856
	   57 D(3,5,9,12)     =     19.298792     0.000003     0.373616    19.672408
	   58 D(3,5,9,13)     =    140.858130    -0.000002     0.243213   141.101343
	   59 D(3,5,9,14)     =   -100.598312     0.000004     0.419423  -100.178889
	   60 D(3,6,12,9)     =    -29.609617    -0.000003     0.409717   -29.199900
	   61 D(3,6,12,15)    =   -152.212362    -0.000008     0.186936  -152.025426
	   62 D(3,6,12,16)    =     89.104684    -0.000002     0.446555    89.551239
	   63 D(4,3,5,7)      =   -163.716132     0.000006    -0.908628  -164.624760
	   64 D(4,3,5,8)      =    -45.398851     0.000002    -0.900473   -46.299324
	   65 D(4,3,5,9)      =     78.143009     0.000005    -0.972763    77.170246
	   66 D(4,3,6,10)     =    168.029138    -0.000008     0.524509   168.553647
	   67 D(4,3,6,11)     =     48.653582    -0.000012     0.138296    48.791878
	   68 D(4,3,6,12)     =    -74.235929    -0.000010     0.064136   -74.171793
	   69 D(5,3,6,10)     =    -75.881162    -0.000019     0.164020   -75.717141
	   70 D(5,3,6,11)     =    164.743281    -0.000023    -0.222192   164.521089
	   71 D(5,3,6,12)     =     41.853770    -0.000022    -0.296352    41.557418
	   72 D(5,9,12,6)     =      6.413906    -0.000007    -0.539774     5.874132
	   73 D(5,9,12,15)    =    128.806045    -0.000002    -0.359746   128.446299
	   74 D(5,9,12,16)    =   -112.331370    -0.000000    -0.276233  -112.607603
	   75 D(6,3,5,7)      =     80.320551     0.000012    -0.040633    80.279919
	   76 D(6,3,5,8)      =   -161.362167     0.000008    -0.032478  -161.394645
	   77 D(6,3,5,9)      =    -37.820307     0.000011    -0.104767   -37.925075
	   78 D(6,12,9,13)    =   -114.772830    -0.000004    -0.500207  -115.273037
	   79 D(6,12,9,14)    =    126.717532    -0.000003    -0.387596   126.329936
	   80 D(7,5,9,12)     =    -96.657290    -0.000001     0.308821   -96.348468
	   81 D(7,5,9,13)     =     24.902048    -0.000005     0.178418    25.080466
	   82 D(7,5,9,14)     =    143.445606    -0.000000     0.354628   143.800234
	   83 D(8,5,9,12)     =    142.412771     0.000006     0.399811   142.812583
	   84 D(8,5,9,13)     =    -96.027891     0.000001     0.269407   -95.758483
	   85 D(8,5,9,14)     =     22.515668     0.000007     0.445618    22.961285
	   86 D(9,12,6,10)    =     86.178179     0.000009     0.693989    86.872168
	   87 D(9,12,6,11)    =   -152.710758     0.000001     0.476460  -152.234299
	   88 D(10,6,12,15)   =    -36.424566     0.000005     0.471208   -35.953358
	   89 D(10,6,12,16)   =   -155.107520     0.000010     0.730827  -154.376692
	   90 D(11,6,12,15)   =     84.686497    -0.000003     0.253679    84.940175
	   91 D(11,6,12,16)   =    -33.996457     0.000002     0.513297   -33.483159
	   92 D(13,9,12,15)   =      7.619309     0.000001    -0.320179     7.299130
	   93 D(13,9,12,16)   =    126.481895     0.000003    -0.236666   126.245229
	   94 D(14,9,12,15)   =   -110.890329     0.000002    -0.207569  -111.097897
	   95 D(14,9,12,16)   =      7.972257     0.000004    -0.124055     7.848201
	 ---------------------------------------------------------------------------

  ==> Convergence Check <==

  Measures of convergence in internal coordinates in au.
  Criteria marked as inactive (o), active & met (*), and active & unmet ( ).
  --------------------------------------------------------------------------------------------- ~
   Step     Total Energy     Delta E     MAX Force     RMS Force      MAX Disp      RMS Disp    ~
  --------------------------------------------------------------------------------------------- ~
    Convergence Criteria    1.00e-06 *    3.00e-04 *             o    1.20e-03 *             o  ~
  --------------------------------------------------------------------------------------------- ~
      1    -270.11432292   -2.70e+02      4.43e-03      1.10e-03 o    6.93e-02      1.73e-02 o  ~
  ---------------------------------------------------------------------------------------------

	Writing optimization data to binary file.
	Structure for next step:
	Cartesian Geometry (in Angstrom)
	    H     2.3490537529   0.7328179468  -0.4915900701
	    O     2.0927419430  -0.0622460805  -0.0641372001
	    C     0.7488634377  -0.0023924950   0.3365583714
	    H     0.7391977756   0.0399193717   1.4231993963
	    C    -0.0716993347  -1.2021842620  -0.1288186994
	    C    -0.0453666874   1.1835801949  -0.1986551545
	    H     0.1714690086  -1.3858820425  -1.1689264663
	    H     0.1591842658  -2.1047000840   0.4218855328
	    C    -1.5383016103  -0.7567611609   0.0236275889
	    H     0.1292168782   1.2631733887  -1.2691672884
	    H     0.2364774427   2.1269354420   0.2549081666
	    C    -1.5029392361   0.7950554836   0.0752908584
	    H    -2.1448656093  -1.1159887115  -0.7973119547
	    H    -1.9779029553  -1.1542380581   0.9298547243
	    H    -2.1848080545   1.2484155748  -0.6318756080
	    H    -1.7965018683   1.1430662134   1.0583707423
			--------------------------
			 OPTKING Finished Execution 
			--------------------------

    Structure for next step:
    Molecular point group: c1
    Full point group: C1

    Geometry (in Angstrom), charge = 0, multiplicity = 1:

    H            2.346652963700     0.732682183754    -0.491559777424
    O            2.090341173404    -0.062381782792    -0.064106940107
    C            0.746462770680    -0.002528201879     0.336588600854
    H            0.736797109290     0.039783661636     1.423229542685
    C           -0.074099939051    -1.202319877283    -0.128788434439
    C           -0.047767293777     1.183444397469    -0.198624884228
    H            0.169068385704    -1.386017643734    -1.168896121879
    H            0.156783643816    -2.104835630303     0.421915755703
    C           -1.540702102684    -0.756896810188     0.023657842217
    H            0.126816258534     1.263037585204    -1.269136936349
    H            0.234076814814     2.126799572509     0.254938402259
    C           -1.505339731160     0.794919715805     0.075321107793
    H           -2.147266055340    -1.116124333343    -0.797281638727
    H           -1.980303414048    -1.154373677062     0.929884908394
    H           -2.187208497512     1.248279772386    -0.631845304670
    H           -1.798902340943     1.142930419090     1.058400916588

gradient() will perform analytic gradient computation.

*** tstart() called on cx1-27-1-4
*** at Fri Sep  9 21:24:04 2016


         ---------------------------------------------------------
                                   SCF
            by Justin Turney, Rob Parrish, and Andy Simmonett
                              RHF Reference
                        4 Threads,   2000 MiB Core
         ---------------------------------------------------------

  ==> Geometry <==

    Molecular point group: c1
    Full point group: C1

    Geometry (in Angstrom), charge = 0, multiplicity = 1:

       Center              X                  Y                   Z               Mass       
    ------------   -----------------  -----------------  -----------------  -----------------
           H          2.346652963700     0.732682183754    -0.491559777424     1.007825032070
           O          2.090341173404    -0.062381782792    -0.064106940107    15.994914619560
           C          0.746462770680    -0.002528201879     0.336588600854    12.000000000000
           H          0.736797109290     0.039783661636     1.423229542685     1.007825032070
           C         -0.074099939051    -1.202319877283    -0.128788434439    12.000000000000
           C         -0.047767293777     1.183444397469    -0.198624884228    12.000000000000
           H          0.169068385704    -1.386017643734    -1.168896121879     1.007825032070
           H          0.156783643816    -2.104835630303     0.421915755703     1.007825032070
           C         -1.540702102684    -0.756896810188     0.023657842217    12.000000000000
           H          0.126816258534     1.263037585204    -1.269136936349     1.007825032070
           H          0.234076814814     2.126799572509     0.254938402259     1.007825032070
           C         -1.505339731160     0.794919715805     0.075321107793    12.000000000000
           H         -2.147266055340    -1.116124333343    -0.797281638727     1.007825032070
           H         -1.980303414048    -1.154373677062     0.929884908394     1.007825032070
           H         -2.187208497512     1.248279772386    -0.631845304670     1.007825032070
           H         -1.798902340943     1.142930419090     1.058400916588     1.007825032070

  Running in c1 symmetry.

  Rotational constants: A =      0.21614  B =      0.10156  C =      0.07575 [cm^-1]
  Rotational constants: A =   6479.73995  B =   3044.68601  C =   2270.84019 [MHz]
  Nuclear repulsion =  255.308016639362478

  Charge       = 0
  Multiplicity = 1
  Electrons    = 48
  Nalpha       = 24
  Nbeta        = 24

  ==> Algorithm <==

  SCF Algorithm Type is DF.
  DIIS enabled.
  MOM disabled.
  Fractional occupation disabled.
  Guess Type is READ.
  Energy threshold   = 1.00e-08
  Density threshold  = 1.00e-08
  Integral threshold = 0.00e+00

  ==> Primary Basis <==

  Basis Set: CC-PVTZ
    Number of shells: 120
    Number of basis function: 320
    Number of Cartesian functions: 360
    Spherical Harmonics?: true
    Max angular momentum: 3

  ==> Pre-Iterations <==

   -------------------------------------------------------
    Irrep   Nso     Nmo     Nalpha   Nbeta   Ndocc  Nsocc
   -------------------------------------------------------
     A        320     320       0       0       0       0
   -------------------------------------------------------
    Total     320     320      24      24      24       0
   -------------------------------------------------------

 OEINTS: Overlap, kinetic, potential, dipole, and quadrupole integrals
         stored in file 35.

  ==> Integral Setup <==

  ==> DFJK: Density-Fitted J/K Matrices <==

    J tasked:                  Yes
    K tasked:                  Yes
    wK tasked:                  No
    OpenMP threads:              4
    Integrals threads:           4
    Memory (MB):              1430
    Algorithm:                Core
    Integral Cache:           NONE
    Schwarz Cutoff:          1E-12
    Fitting Condition:       1E-12

   => Auxiliary Basis Set <=

  Basis Set: 
    Number of shells: 250
    Number of basis function: 774
    Number of Cartesian functions: 926
    Spherical Harmonics?: true
    Max angular momentum: 4

  Minimum eigenvalue in the overlap matrix is 1.9328692898E-04.
  Using Symmetric Orthogonalization.
  SCF Guess: Reading in previously saved MOs, projecting if necessary.

  Using orbitals from previous SCF, no projection.
  Recomputing DOCC and SOCC from number of alpha and beta electrons from previous calculation.
              A 
    DOCC [    24 ]

  ==> Iterations <==

                           Total Energy        Delta E     RMS |[F,P]|

   @DF-RHF iter   0:  -270.11207611710461   -2.70112e+02   2.61422e-04 
   @DF-RHF iter   1:  -270.11447799857046   -2.40188e-03   4.01685e-05 
   @DF-RHF iter   2:  -270.11463030826462   -1.52310e-04   1.56021e-05 DIIS
   @DF-RHF iter   3:  -270.11465978010619   -2.94718e-05   5.90071e-06 DIIS
   @DF-RHF iter   4:  -270.11466258360383   -2.80350e-06   1.58298e-06 DIIS
   @DF-RHF iter   5:  -270.11466289424345   -3.10640e-07   5.71246e-07 DIIS
   @DF-RHF iter   6:  -270.11466292546675   -3.12233e-08   1.88308e-07 DIIS
   @DF-RHF iter   7:  -270.11466292893624   -3.46949e-09   3.59314e-08 DIIS
   @DF-RHF iter   8:  -270.11466292909563   -1.59389e-10   1.03675e-08 DIIS
   @DF-RHF iter   9:  -270.11466292910814   -1.25056e-11   3.02967e-09 DIIS

  ==> Post-Iterations <==

    Orbital Energies (a.u.)
    -----------------------

    Doubly Occupied:                                                      

       1A    -20.543411     2A    -11.267408     3A    -11.218477  
       4A    -11.217579     5A    -11.215380     6A    -11.207692  
       7A     -1.363092     8A     -1.116686     9A     -0.969586  
      10A     -0.950196    11A     -0.800527    12A     -0.780359  
      13A     -0.686795    14A     -0.666537    15A     -0.609993  
      16A     -0.602256    17A     -0.575824    18A     -0.532838  
      19A     -0.502836    20A     -0.484810    21A     -0.473265  
      22A     -0.459189    23A     -0.447541    24A     -0.422931  

    Virtual:                                                              

      25A      0.137692    26A      0.154817    27A      0.159434  
      28A      0.175674    29A      0.206423    30A      0.217207  
      31A      0.218978    32A      0.224025    33A      0.229469  
      34A      0.272640    35A      0.305302    36A      0.313326  
      37A      0.327763    38A      0.367075    39A      0.379394  
      40A      0.403219    41A      0.414353    42A      0.416877  
      43A      0.441509    44A      0.467083    45A      0.498926  
      46A      0.502555    47A      0.540495    48A      0.563525  
      49A      0.575514    50A      0.582410    51A      0.586282  
      52A      0.606166    53A      0.608019    54A      0.614960  
      55A      0.626143    56A      0.644405    57A      0.647887  
      58A      0.656948    59A      0.668621    60A      0.675812  
      61A      0.680903    62A      0.686620    63A      0.704040  
      64A      0.705938    65A      0.738274    66A      0.792455  
      67A      0.814444    68A      0.830373    69A      0.870441  
      70A      0.884513    71A      0.902920    72A      0.937416  
      73A      0.968352    74A      0.989279    75A      1.022590  
      76A      1.032179    77A      1.049763    78A      1.061852  
      79A      1.100181    80A      1.109408    81A      1.150234  
      82A      1.171895    83A      1.177331    84A      1.192377  
      85A      1.216887    86A      1.228817    87A      1.234824  
      88A      1.245164    89A      1.283295    90A      1.306084  
      91A      1.320630    92A      1.322942    93A      1.333601  
      94A      1.349848    95A      1.357064    96A      1.364573  
      97A      1.377118    98A      1.393334    99A      1.405059  
     100A      1.430317   101A      1.434817   102A      1.446858  
     103A      1.482028   104A      1.497172   105A      1.508098  
     106A      1.517787   107A      1.528728   108A      1.538130  
     109A      1.556646   110A      1.563990   111A      1.577544  
     112A      1.608803   113A      1.629649   114A      1.658518  
     115A      1.669086   116A      1.695252   117A      1.712694  
     118A      1.734643   119A      1.764288   120A      1.770862  
     121A      1.826716   122A      1.831667   123A      1.852496  
     124A      1.880189   125A      1.917185   126A      1.940232  
     127A      1.971571   128A      1.979371   129A      2.030638  
     130A      2.193367   131A      2.287985   132A      2.307482  
     133A      2.370745   134A      2.469752   135A      2.584162  
     136A      2.612661   137A      2.680045   138A      2.698660  
     139A      2.708289   140A      2.731108   141A      2.759527  
     142A      2.778673   143A      2.793966   144A      2.812960  
     145A      2.846068   146A      2.865291   147A      2.867776  
     148A      2.877144   149A      2.906506   150A      2.916468  
     151A      2.937100   152A      2.973216   153A      2.986244  
     154A      2.995898   155A      3.028013   156A      3.040583  
     157A      3.052974   158A      3.085460   159A      3.092682  
     160A      3.128003   161A      3.148366   162A      3.180834  
     163A      3.203721   164A      3.221233   165A      3.240471  
     166A      3.251538   167A      3.294603   168A      3.303344  
     169A      3.312964   170A      3.339242   171A      3.359261  
     172A      3.366626   173A      3.404596   174A      3.412916  
     175A      3.426405   176A      3.446918   177A      3.447872  
     178A      3.458226   179A      3.475428   180A      3.489934  
     181A      3.492189   182A      3.502149   183A      3.525602  
     184A      3.532266   185A      3.551204   186A      3.570437  
     187A      3.598774   188A      3.600012   189A      3.631523  
     190A      3.650518   191A      3.666035   192A      3.704189  
     193A      3.719985   194A      3.743604   195A      3.754343  
     196A      3.790708   197A      3.805371   198A      3.825469  
     199A      3.857270   200A      3.870395   201A      3.902020  
     202A      3.912403   203A      3.916771   204A      3.939870  
     205A      3.954152   206A      3.967996   207A      3.984543  
     208A      4.002932   209A      4.005555   210A      4.022831  
     211A      4.080711   212A      4.098647   213A      4.109866  
     214A      4.113113   215A      4.130797   216A      4.132180  
     217A      4.143389   218A      4.166904   219A      4.174629  
     220A      4.192944   221A      4.212473   222A      4.232185  
     223A      4.257954   224A      4.277298   225A      4.287045  
     226A      4.301199   227A      4.314367   228A      4.347636  
     229A      4.364436   230A      4.368127   231A      4.378663  
     232A      4.393066   233A      4.394686   234A      4.420051  
     235A      4.456834   236A      4.469708   237A      4.501832  
     238A      4.517475   239A      4.519291   240A      4.549884  
     241A      4.559814   242A      4.592892   243A      4.618263  
     244A      4.631323   245A      4.645010   246A      4.661702  
     247A      4.669654   248A      4.683404   249A      4.697107  
     250A      4.724602   251A      4.738311   252A      4.742263  
     253A      4.797614   254A      4.819210   255A      4.863370  
     256A      4.872605   257A      4.898656   258A      4.945493  
     259A      5.003315   260A      5.018375   261A      5.035828  
     262A      5.040684   263A      5.044720   264A      5.082541  
     265A      5.091278   266A      5.099296   267A      5.190468  
     268A      5.250569   269A      5.285495   270A      5.312136  
     271A      5.344381   272A      5.348708   273A      5.368558  
     274A      5.392396   275A      5.405128   276A      5.416832  
     277A      5.441619   278A      5.470138   279A      5.498600  
     280A      5.507706   281A      5.530599   282A      5.559283  
     283A      5.578992   284A      5.636249   285A      5.649538  
     286A      5.688421   287A      5.727566   288A      5.752537  
     289A      5.805371   290A      5.813264   291A      5.855534  
     292A      5.899971   293A      5.925439   294A      5.944063  
     295A      6.024676   296A      6.041477   297A      6.093016  
     298A      6.167858   299A      6.214063   300A      6.232109  
     301A      6.305656   302A      6.370643   303A      6.397588  
     304A      6.489433   305A      6.565665   306A      6.763849  
     307A      7.093774   308A      7.189960   309A      7.267082  
     310A      7.319194   311A      7.453548   312A      7.584371  
     313A      7.784220   314A      8.053440   315A     11.731054  
     316A     12.404157   317A     12.972440   318A     13.144455  
     319A     13.823428   320A     13.975244  

    Final Occupation by Irrep:
              A 
    DOCC [    24 ]

  Energy converged.

  @DF-RHF Final Energy:  -270.11466292910814

   => Energetics <=

    Nuclear Repulsion Energy =            255.3080166393624779
    One-Electron Energy =                -872.6149465476977412
    Two-Electron Energy =                 347.1922669792271563
    DFT Exchange-Correlation Energy =       0.0000000000000000
    Empirical Dispersion Energy =           0.0000000000000000
    PCM Polarization Energy =               0.0000000000000000
    EFP Energy =                            0.0000000000000000
    Total Energy =                       -270.1146629291081354

    Alert: EFP and PCM quantities not currently incorporated into SCF psivars.

Properties will be evaluated at   0.000000,   0.000000,   0.000000 Bohr
  ==> Properties <==


Properties computed using the SCF density matrix

  Nuclear Dipole Moment: (a.u.)
     X:    -4.0618      Y:     0.7423      Z:    -0.2538

  Electronic Dipole Moment: (a.u.)
     X:     3.6069      Y:    -0.2304      Z:     0.1316

  Dipole Moment: (a.u.)
     X:    -0.4549      Y:     0.5119      Z:    -0.1222     Total:     0.6957

  Dipole Moment: (Debye)
     X:    -1.1563      Y:     1.3012      Z:    -0.3105     Total:     1.7682


  Saving occupied orbitals to File 180.

*** tstop() called on cx1-27-1-4 at Fri Sep  9 21:24:15 2016
Module time:
	user time   =      34.32 seconds =       0.57 minutes
	system time =       0.49 seconds =       0.01 minutes
	total time  =         11 seconds =       0.18 minutes
Total time:
	user time   =     155.10 seconds =       2.58 minutes
	system time =       1.81 seconds =       0.03 minutes
	total time  =         45 seconds =       0.75 minutes

*** tstart() called on cx1-27-1-4
*** at Fri Sep  9 21:24:15 2016


         ------------------------------------------------------------
                                   SCF GRAD                          
                          Rob Parrish, Justin Turney,                
                       Andy Simmonett, and Alex Sokolov              
         ------------------------------------------------------------

  ==> Geometry <==

    Molecular point group: c1
    Full point group: C1

    Geometry (in Angstrom), charge = 0, multiplicity = 1:

       Center              X                  Y                   Z               Mass       
    ------------   -----------------  -----------------  -----------------  -----------------
           H          2.346652963700     0.732682183754    -0.491559777424     1.007825032070
           O          2.090341173404    -0.062381782792    -0.064106940107    15.994914619560
           C          0.746462770680    -0.002528201879     0.336588600854    12.000000000000
           H          0.736797109290     0.039783661636     1.423229542685     1.007825032070
           C         -0.074099939051    -1.202319877283    -0.128788434439    12.000000000000
           C         -0.047767293777     1.183444397469    -0.198624884228    12.000000000000
           H          0.169068385704    -1.386017643734    -1.168896121879     1.007825032070
           H          0.156783643816    -2.104835630303     0.421915755703     1.007825032070
           C         -1.540702102684    -0.756896810188     0.023657842217    12.000000000000
           H          0.126816258534     1.263037585204    -1.269136936349     1.007825032070
           H          0.234076814814     2.126799572509     0.254938402259     1.007825032070
           C         -1.505339731160     0.794919715805     0.075321107793    12.000000000000
           H         -2.147266055340    -1.116124333343    -0.797281638727     1.007825032070
           H         -1.980303414048    -1.154373677062     0.929884908394     1.007825032070
           H         -2.187208497512     1.248279772386    -0.631845304670     1.007825032070
           H         -1.798902340943     1.142930419090     1.058400916588     1.007825032070

  Nuclear repulsion =  255.308016639362478

  ==> Basis Set <==

  Basis Set: CC-PVTZ
    Number of shells: 120
    Number of basis function: 320
    Number of Cartesian functions: 360
    Spherical Harmonics?: true
    Max angular momentum: 3

  ==> DFJKGrad: Density-Fitted SCF Gradients <==

    Gradient:                    1
    J tasked:                  Yes
    K tasked:                  Yes
    wK tasked:                  No
    OpenMP threads:              4
    Integrals threads:           4
    Memory (MB):              1430
    Schwarz Cutoff:          0E+00
    Fitting Condition:       1E-12

   => Auxiliary Basis Set <=

  Basis Set: 
    Number of shells: 250
    Number of basis function: 774
    Number of Cartesian functions: 926
    Spherical Harmonics?: true
    Max angular momentum: 4


  -Total Gradient:
     Atom            X                  Y                   Z
    ------   -----------------  -----------------  -----------------
       1        0.000396945755    -0.000471933100    -0.000513636842
       2        0.001818437500     0.002210739915     0.002680090743
       3       -0.000044422014    -0.002286645705    -0.003614577866
       4        0.001458466686     0.000616027842    -0.000621913453
       5       -0.002067108986    -0.000229404262     0.000181308448
       6       -0.000117442558     0.000973085263     0.001678111769
       7        0.000252040880     0.000387317551     0.000572364175
       8       -0.000108178821    -0.000073433700     0.000075239997
       9       -0.000961889252    -0.001014256922    -0.000010809486
      10       -0.000159984028    -0.000248229523     0.000153967087
      11       -0.000027818016     0.000181600762    -0.000025431488
      12        0.000146934088    -0.000287389081    -0.000592626406
      13       -0.000253406540     0.000071074262     0.000002556699
      14       -0.000384914391     0.000006621825     0.000027491520
      15       -0.000173620683     0.000043120902     0.000072652446
      16        0.000225960383     0.000121703972    -0.000064787343


*** tstop() called on cx1-27-1-4 at Fri Sep  9 21:24:35 2016
Module time:
	user time   =      76.40 seconds =       1.27 minutes
	system time =       0.51 seconds =       0.01 minutes
	total time  =         20 seconds =       0.33 minutes
Total time:
	user time   =     231.51 seconds =       3.86 minutes
	system time =       2.32 seconds =       0.04 minutes
	total time  =         65 seconds =       1.08 minutes
CURRENT ENERGY: -270.1146629291

			-----------------------------------------
			 OPTKING 2.0: for geometry optimizations 
			  - R.A. King,  Bethel University        
			-----------------------------------------

	Previous internal coordinate definitions found.
	---Fragment 1 Geometry and Gradient---
	 H           4.4345314303        1.3845686697       -0.9289133573
	 O           3.9501723420       -0.1178844852       -0.1211445600
	 C           1.4106102050       -0.0047776092        0.6360602751
	 H           1.3923447521        0.0751802251        2.6895140599
	 C          -0.1400285913       -2.2720552922       -0.2433748702
	 C          -0.0902671033        2.2363858047       -0.3753466344
	 H           0.3194929467       -2.6191937620       -2.2088935481
	 H           0.2962781489       -3.9775628960        0.7973052294
	 C          -2.9115050264       -1.4303276821        0.0447068427
	 H           0.2396479978        2.3867951316       -2.3983212348
	 H           0.4423410741        4.0190687316        0.4817637610
	 C          -2.8446798288        1.5021805605        0.1423362658
	 H          -4.0577447790       -2.1091693203       -1.5066439480
	 H          -3.7422311126       -2.1814501047        1.7572278120
	 H          -4.1332250558        2.3589069070       -1.1940145842
	 H          -3.3994327642        2.1598254810        2.0000878711
	             0.0003969458       -0.0004719331       -0.0005136368
	             0.0018184375        0.0022107399        0.0026800907
	            -0.0000444220       -0.0022866457       -0.0036145779
	             0.0014584667        0.0006160278       -0.0006219135
	            -0.0020671090       -0.0002294043        0.0001813084
	            -0.0001174426        0.0009730853        0.0016781118
	             0.0002520409        0.0003873176        0.0005723642
	            -0.0001081788       -0.0000734337        0.0000752400
	            -0.0009618893       -0.0010142569       -0.0000108095
	            -0.0001599840       -0.0002482295        0.0001539671
	            -0.0000278180        0.0001816008       -0.0000254315
	             0.0001469341       -0.0002873891       -0.0005926264
	            -0.0002534065        0.0000710743        0.0000025567
	            -0.0003849144        0.0000066218        0.0000274915
	            -0.0001736207        0.0000431209        0.0000726524
	             0.0002259604        0.0001217040       -0.0000647873

	---Fragment 1 Intrafragment Coordinates---
	 - Coordinate -           - BOHR/RAD -       - ANG/DEG -
	 R(1,2)           =         1.773262	       0.938370
	 R(2,3)           =         2.652457	       1.403620
	 R(3,4)           =         2.055091	       1.087507
	 R(3,5)           =         2.884170	       1.526237
	 R(3,6)           =         2.880693	       1.524397
	 R(5,7)           =         2.048153	       1.083836
	 R(5,8)           =         2.045027	       1.082182
	 R(5,9)           =         2.910769	       1.540313
	 R(6,10)          =         2.055211	       1.087571
	 R(6,11)          =         2.048479	       1.084009
	 R(6,12)          =         2.897213	       1.533139
	 R(9,12)          =         2.934894	       1.553079
	 R(9,13)          =         2.044842	       1.082084
	 R(9,14)          =         2.046221	       1.082813
	 R(12,15)         =         2.044545	       1.081926
	 R(12,16)         =         2.047313	       1.083391
	 B(1,2,3)         =         1.934171	     110.819837
	 B(2,3,4)         =         1.870685	     107.182380
	 B(2,3,5)         =         1.975980	     113.215296
	 B(2,3,6)         =         2.017265	     115.580796
	 B(3,5,7)         =         1.880975	     107.771930
	 B(3,5,8)         =         1.966792	     112.688857
	 B(3,5,9)         =         1.828030	     104.738407
	 B(3,6,10)        =         1.895357	     108.595951
	 B(3,6,11)        =         1.976515	     113.245960
	 B(3,6,12)        =         1.808467	     103.617533
	 B(4,3,5)         =         1.907610	     109.298030
	 B(4,3,6)         =         1.892221	     108.416271
	 B(5,3,6)         =         1.797142	     102.968646
	 B(5,9,12)        =         1.844765	     105.697274
	 B(5,9,13)        =         1.941896	     111.262459
	 B(5,9,14)        =         1.942532	     111.298877
	 B(6,12,9)        =         1.843063	     105.599703
	 B(6,12,15)       =         1.956479	     112.098008
	 B(6,12,16)       =         1.915955	     109.776126
	 B(7,5,8)         =         1.874583	     107.405678
	 B(7,5,9)         =         1.936507	     110.953652
	 B(8,5,9)         =         1.975714	     113.200069
	 B(9,12,15)       =         1.963402	     112.494653
	 B(9,12,16)       =         1.923011	     110.180438
	 B(10,6,11)       =         1.882231	     107.843886
	 B(10,6,12)       =         1.925210	     110.306410
	 B(11,6,12)       =         1.974644	     113.138759
	 B(12,9,13)       =         1.949491	     111.697609
	 B(12,9,14)       =         1.926429	     110.376235
	 B(13,9,14)       =         1.860331	     106.589132
	 B(15,12,16)      =         1.862646	     106.721753
	 D(1,2,3,4)       =        -1.936847	    -110.973161
	 D(1,2,3,5)       =         2.241490	     128.427944
	*D(1,2,3,6)       =         0.174533	      10.000017
	 D(2,3,5,7)       =        -0.789480	     -45.233854
	 D(2,3,5,8)       =         1.275689	      73.091583
	 D(2,3,5,9)       =        -2.852546	    -163.438847
	 D(2,3,6,10)      =         0.842109	      48.249296
	 D(2,3,6,11)      =        -1.248128	     -71.512473
	 D(2,3,6,12)      =         2.888936	     165.523856
	 D(3,5,9,12)      =         0.343348	      19.672408
	 D(3,5,9,13)      =         2.462683	     141.101343
	 D(3,5,9,14)      =        -1.748451	    -100.178889
	 D(3,6,12,9)      =        -0.509634	     -29.199900
	 D(3,6,12,15)     =        -2.653344	    -152.025426
	 D(3,6,12,16)     =         1.562964	      89.551239
	 D(4,3,5,7)       =        -2.873244	    -164.624760
	 D(4,3,5,8)       =        -0.808076	     -46.299324
	 D(4,3,5,9)       =         1.346875	      77.170246
	 D(4,3,6,10)      =         2.941816	     168.553647
	 D(4,3,6,11)      =         0.851579	      48.791878
	 D(4,3,6,12)      =        -1.294542	     -74.171793
	 D(5,3,6,10)      =        -1.321513	     -75.717141
	 D(5,3,6,11)      =         2.871435	     164.521089
	 D(5,3,6,12)      =         0.725314	      41.557418
	 D(5,9,12,6)      =         0.102523	       5.874132
	 D(5,9,12,15)     =         2.241811	     128.446299
	 D(5,9,12,16)     =        -1.965373	    -112.607603
	 D(6,3,5,7)       =         1.401149	      80.279919
	 D(6,3,5,8)       =        -2.816868	    -161.394645
	 D(6,3,5,9)       =        -0.661917	     -37.925075
	 D(6,12,9,13)     =        -2.011894	    -115.273037
	 D(6,12,9,14)     =         2.204873	     126.329936
	 D(7,5,9,12)      =        -1.681598	     -96.348468
	 D(7,5,9,13)      =         0.437737	      25.080466
	 D(7,5,9,14)      =         2.509788	     143.800234
	 D(8,5,9,12)      =         2.492550	     142.812583
	 D(8,5,9,13)      =        -1.671301	     -95.758483
	 D(8,5,9,14)      =         0.400750	      22.961285
	 D(9,12,6,10)     =         1.516205	      86.872168
	 D(9,12,6,11)     =        -2.656990	    -152.234299
	 D(10,6,12,15)    =        -0.627504	     -35.953358
	 D(10,6,12,16)    =        -2.694382	    -154.376692
	 D(11,6,12,15)    =         1.482486	      84.940175
	 D(11,6,12,16)    =        -0.584391	     -33.483159
	 D(13,9,12,15)    =         0.127394	       7.299130
	 D(13,9,12,16)    =         2.203395	     126.245229
	 D(14,9,12,15)    =        -1.939024	    -111.097897
	 D(14,9,12,16)    =         0.136977	       7.848201

	Current energy   :      -270.1146629291

	Energy change for the previous step:
		Projected    :        -0.0040732429
		Actual       :        -0.0003400128
	Energy ratio indicates iffy step: Trust radius decreased to 1.250e-01.


	Performing BFGS update.
	Previous computed or guess Hessian on step 1.
	Steps to be used in Hessian update: 1
	Taking RFO optimization step.
	Going to follow RFO solution 1.
	Using RFO vector 1.
	Norm of target step-size    0.06099
	Projected energy change by RFO approximation:        -0.0001880586

	Back-transformation to cartesian coordinates...
	Successfully converged to displaced geometry.

	Back-transformation to cartesian coordinates to adjust frozen coordinates...
	Successfully converged to displaced geometry.

	--- Internal Coordinate Step in ANG or DEG, aJ/ANG or AJ/DEG ---
	 ---------------------------------------------------------------------------
	   Coordinate                Previous        Force       Change         New 
	   ----------                --------       ------       ------       ------
	    1 R(1,2)          =      0.938370     0.000473     0.000007     0.938377
	    2 R(2,3)          =      1.403620    -0.011769    -0.001092     1.402528
	    3 R(3,4)          =      1.087507     0.005029     0.000601     1.088108
	    4 R(3,5)          =      1.526237    -0.015510    -0.002221     1.524016
	    5 R(3,6)          =      1.524397    -0.003747    -0.000515     1.523882
	    6 R(5,7)          =      1.083836     0.004600     0.000579     1.084415
	    7 R(5,8)          =      1.082182    -0.000630    -0.000076     1.082106
	    8 R(5,9)          =      1.540313    -0.005160    -0.000938     1.539375
	    9 R(6,10)         =      1.087571     0.001610     0.000256     1.087827
	   10 R(6,11)         =      1.084009    -0.001155    -0.000159     1.083850
	   11 R(6,12)         =      1.533139    -0.003621    -0.000443     1.532696
	   12 R(9,12)         =      1.553079    -0.001079    -0.000225     1.552854
	   13 R(9,13)         =      1.082084    -0.000960    -0.000119     1.081965
	   14 R(9,14)         =      1.082813    -0.001457    -0.000185     1.082628
	   15 R(12,15)        =      1.081926    -0.000659    -0.000082     1.081844
	   16 R(12,16)        =      1.083391     0.000667     0.000076     1.083467
	   17 B(1,2,3)        =    110.819837    -0.000082    -0.255506   110.564331
	   18 B(2,3,4)        =    107.182380     0.000110     0.774396   107.956776
	   19 B(2,3,5)        =    113.215296    -0.000155    -0.735807   112.479489
	   20 B(2,3,6)        =    115.580796    -0.000025    -0.158965   115.421831
	   21 B(3,5,7)        =    107.771930     0.000050     0.262869   108.034800
	   22 B(3,5,8)        =    112.688857     0.000024    -0.011082   112.677776
	   23 B(3,5,9)        =    104.738407    -0.000094    -0.300070   104.438337
	   24 B(3,6,10)       =    108.595951     0.000016     0.122961   108.718912
	   25 B(3,6,11)       =    113.245960     0.000013    -0.070892   113.175068
	   26 B(3,6,12)       =    103.617533    -0.000053    -0.156100   103.461433
	   27 B(4,3,5)        =    109.298030    -0.000015    -0.108460   109.189570
	   28 B(4,3,6)        =    108.416271    -0.000011     0.285792   108.702064
	   29 B(5,3,6)        =    102.968646     0.000095    -0.076621   102.892025
	   30 B(5,9,12)       =    105.697274     0.000072     0.094258   105.791533
	   31 B(5,9,13)       =    111.262459    -0.000031    -0.090703   111.171756
	   32 B(5,9,14)       =    111.298877    -0.000034    -0.107644   111.191233
	   33 B(6,12,9)       =    105.599703    -0.000050    -0.188579   105.411123
	   34 B(6,12,15)      =    112.098008     0.000006    -0.028441   112.069568
	   35 B(6,12,16)      =    109.776126     0.000030     0.140798   109.916924
	   36 B(7,5,8)        =    107.405678    -0.000021     0.013366   107.419045
	   37 B(7,5,9)        =    110.953652     0.000011    -0.019339   110.934313
	   38 B(8,5,9)        =    113.200069     0.000032     0.063594   113.263663
	   39 B(9,12,15)      =    112.494653     0.000023     0.009420   112.504073
	   40 B(9,12,16)      =    110.180438    -0.000001     0.015726   110.196164
	   41 B(10,6,11)      =    107.843886    -0.000013    -0.000361   107.843525
	   42 B(10,6,12)      =    110.306410     0.000026     0.124793   110.431203
	   43 B(11,6,12)      =    113.138759     0.000013    -0.011492   113.127267
	   44 B(12,9,13)      =    111.697609    -0.000009     0.021506   111.719115
	   45 B(12,9,14)      =    110.376235    -0.000021     0.025687   110.401921
	   46 B(13,9,14)      =    106.589132     0.000020     0.053153   106.642285
	   47 B(15,12,16)     =    106.721753    -0.000007     0.056437   106.778190
	   48 D(1,2,3,4)      =   -110.973161    -0.000012    -0.846047  -111.819208
	   49 D(1,2,3,5)      =    128.427944    -0.000003    -0.780749   127.647195
	   50 *D(1,2,3,6)     =     10.000017     0.000000    -0.000000    10.000017
	   51 D(2,3,5,7)      =    -45.233854     0.000003    -0.157589   -45.391442
	   52 D(2,3,5,8)      =     73.091583     0.000008     0.023221    73.114804
	   53 D(2,3,5,9)      =   -163.438847     0.000005    -0.106635  -163.545482
	   54 D(2,3,6,10)     =     48.249296    -0.000020    -0.499640    47.749656
	   55 D(2,3,6,11)     =    -71.512473    -0.000020    -0.538721   -72.051194
	   56 D(2,3,6,12)     =    165.523856    -0.000018    -0.380638   165.143218
	   57 D(3,5,9,12)     =     19.672408     0.000000     0.617808    20.290217
	   58 D(3,5,9,13)     =    141.101343     0.000004     0.651547   141.752890
	   59 D(3,5,9,14)     =   -100.178889     0.000000     0.588367   -99.590522
	   60 D(3,6,12,9)     =    -29.199900     0.000001    -0.201721   -29.401621
	   61 D(3,6,12,15)    =   -152.025426     0.000001    -0.071855  -152.097281
	   62 D(3,6,12,16)    =     89.551239    -0.000002    -0.217051    89.334189
	   63 D(4,3,5,7)      =   -164.624760    -0.000004    -0.587881  -165.212642
	   64 D(4,3,5,8)      =    -46.299324     0.000001    -0.407072   -46.706396
	   65 D(4,3,5,9)      =     77.170246    -0.000001    -0.536928    76.633319
	   66 D(4,3,6,10)     =    168.553647     0.000007     0.614184   169.167831
	   67 D(4,3,6,11)     =     48.791878     0.000006     0.575104    49.366982
	   68 D(4,3,6,12)     =    -74.171793     0.000009     0.733186   -73.438607
	   69 D(5,3,6,10)     =    -75.717141     0.000012     0.573181   -75.143961
	   70 D(5,3,6,11)     =    164.521089     0.000012     0.534100   165.055190
	   71 D(5,3,6,12)     =     41.557418     0.000015     0.692183    42.249601
	   72 D(5,9,12,6)     =      5.874132     0.000002    -0.241911     5.632221
	   73 D(5,9,12,15)    =    128.446299    -0.000001    -0.397355   128.048944
	   74 D(5,9,12,16)    =   -112.607603     0.000001    -0.309331  -112.916933
	   75 D(6,3,5,7)      =     80.279919    -0.000010    -0.830121    79.449797
	   76 D(6,3,5,8)      =   -161.394645    -0.000006    -0.649312  -162.043957
	   77 D(6,3,5,9)      =    -37.925075    -0.000008    -0.779167   -38.704242
	   78 D(6,12,9,13)    =   -115.273037     0.000001    -0.203588  -115.476625
	   79 D(6,12,9,14)    =    126.329936     0.000000    -0.300636   126.029300
	   80 D(7,5,9,12)     =    -96.348468    -0.000003     0.485000   -95.863469
	   81 D(7,5,9,13)     =     25.080466     0.000001     0.518738    25.599204
	   82 D(7,5,9,14)     =    143.800234    -0.000003     0.455558   144.255793
	   83 D(8,5,9,12)     =    142.812583    -0.000004     0.437112   143.249695
	   84 D(8,5,9,13)     =    -95.758483     0.000000     0.470851   -95.287632
	   85 D(8,5,9,14)     =     22.961285    -0.000004     0.407671    23.368956
	   86 D(9,12,6,10)    =     86.872168     0.000001    -0.086141    86.786027
	   87 D(9,12,6,11)    =   -152.234299     0.000004    -0.004600  -152.238899
	   88 D(10,6,12,15)   =    -35.953358     0.000001     0.043725   -35.909633
	   89 D(10,6,12,16)   =   -154.376692    -0.000002    -0.101471  -154.478163
	   90 D(11,6,12,15)   =     84.940175     0.000004     0.125266    85.065441
	   91 D(11,6,12,16)   =    -33.483159     0.000000    -0.019930   -33.503089
	   92 D(13,9,12,15)   =      7.299130    -0.000001    -0.359032     6.940098
	   93 D(13,9,12,16)   =    126.245229    -0.000000    -0.271008   125.974220
	   94 D(14,9,12,15)   =   -111.097897    -0.000003    -0.456081  -111.553978
	   95 D(14,9,12,16)   =      7.848201    -0.000001    -0.368057     7.480145
	 ---------------------------------------------------------------------------

  ==> Convergence Check <==

  Measures of convergence in internal coordinates in au.
  Criteria marked as inactive (o), active & met (*), and active & unmet ( ).
  ---------------------------------------------------------------------------------------------
   Step     Total Energy     Delta E     MAX Force     RMS Force      MAX Disp      RMS Disp   
  ---------------------------------------------------------------------------------------------
    Convergence Criteria    1.00e-06 *    3.00e-04 *             o    1.20e-03 *             o
  ---------------------------------------------------------------------------------------------
      2    -270.11466293   -3.40e-04      2.03e-03      5.55e-04 o    1.48e-02      6.26e-03 o  ~
  ---------------------------------------------------------------------------------------------

	Writing optimization data to binary file.
	Structure for next step:
	Cartesian Geometry (in Angstrom)
	    H     2.3360787329   0.7245371041  -0.4966314494
	    O     2.0834929978  -0.0677562257  -0.0618643338
	    C     0.7426496004  -0.0010289936   0.3440572263
	    H     0.7227512399   0.0357787093   1.4313604660
	    C    -0.0704792263  -1.1990354133  -0.1315750172
	    C    -0.0472221329   1.1834041109  -0.1994836865
	    H     0.1707789901  -1.3760572086  -1.1738865426
	    H     0.1628305065  -2.1044203768   0.4132169445
	    C    -1.5360226532  -0.7551745209   0.0260523192
	    H     0.1301507558   1.2595685914  -1.2700469277
	    H     0.2349661762   2.1275166123   0.2519053254
	    C    -1.5046448832   0.7965847869   0.0751931575
	    H    -2.1442483265  -1.1176385094  -0.7920737823
	    H    -1.9697938539  -1.1528548416   0.9347748397
	    H    -2.1854908528   1.2471961243  -0.6345846584
	    H    -1.8003876823   1.1457794588   1.0572831408
			--------------------------
			 OPTKING Finished Execution 
			--------------------------

    Structure for next step:
    Molecular point group: c1
    Full point group: C1

    Geometry (in Angstrom), charge = 0, multiplicity = 1:

    H            2.336539585333     0.724434491971    -0.497799602498
    O            2.083953869494    -0.067858777234    -0.063032520118
    C            0.743110574528    -0.001131550240     0.342889008962
    H            0.723212215542     0.035676149790     1.430192165652
    C           -0.070018190046    -1.199137878454    -0.132743198197
    C           -0.046761098468     1.183301463808    -0.200651862342
    H            0.171240007907    -1.376159660316    -1.175054644007
    H            0.163291524872    -2.104522772851     0.412048721906
    C           -1.535561505076    -0.755277020017     0.024884126136
    H            0.130611776672     1.259465938501    -1.271215021787
    H            0.235427189086     2.127413893056     0.250737115073
    C           -1.504183737427     0.796482169317     0.074024960664
    H           -2.143787131879    -1.117740980762    -0.793241912914
[...]
	 B(5,3,6)         =         1.795895	     102.897191
	 B(5,9,12)        =         1.843247	     105.610265
	 B(5,9,13)        =         1.952135	     111.849096
	 B(5,9,14)        =         1.928396	     110.488974
	 B(6,12,9)        =         1.844536	     105.684123
	 B(6,12,15)       =         1.945295	     111.457189
	 B(6,12,16)       =         1.928987	     110.522800
	 B(7,5,8)         =         1.877054	     107.547297
	 B(7,5,9)         =         1.936924	     110.977563
	 B(8,5,9)         =         1.978422	     113.355220
	 B(9,12,15)       =         1.957435	     112.152773
	 B(9,12,16)       =         1.926857	     110.400780
	 B(10,6,11)       =         1.879345	     107.678521
	 B(10,6,12)       =         1.925704	     110.334711
	 B(11,6,12)       =         1.973485	     113.072385
	 B(12,9,13)       =         1.957515	     112.157339
	 B(12,9,14)       =         1.921527	     110.095403
	 B(13,9,14)       =         1.862173	     106.694682
	 B(15,12,16)      =         1.862031	     106.686523
	 D(1,2,3,4)       =        -1.953644	    -111.935551
	 D(1,2,3,5)       =         2.228179	     127.665241
	*D(1,2,3,6)       =         0.174533	      10.000017
	 D(2,3,5,7)       =        -0.839180	     -48.081479
	 D(2,3,5,8)       =         1.236016	      70.818491
	 D(2,3,5,9)       =        -2.897878	    -166.036166
	 D(2,3,6,10)      =         0.794175	      45.502871
	 D(2,3,6,11)      =        -1.288913	     -73.849270
	 D(2,3,6,12)      =         2.845137	     163.014337
	 D(3,5,9,12)      =         0.464801	      26.631126
	 D(3,5,9,13)      =         2.598840	     148.902571
	 D(3,5,9,14)      =        -1.612629	     -92.396823
	 D(3,6,12,9)      =        -0.405635	     -23.241147
	 D(3,6,12,15)     =        -2.536436	    -145.327078
	 D(3,6,12,16)     =         1.679217	      96.212030
	 D(4,3,5,7)       =        -2.931101	    -167.939739
	 D(4,3,5,8)       =        -0.855905	     -49.039769
	 D(4,3,5,9)       =         1.293386	      74.105574
	 D(4,3,6,10)      =         2.914689	     166.999381
	 D(4,3,6,11)      =         0.831601	      47.647240
	 D(4,3,6,12)      =        -1.317534	     -75.489154
	 D(5,3,6,10)      =        -1.352841	     -77.512069
	 D(5,3,6,11)      =         2.847257	     163.135790
	 D(5,3,6,12)      =         0.698121	      39.999397
	 D(5,9,12,6)      =        -0.036098	      -2.068262
	 D(5,9,12,15)     =         2.086889	     119.569923
	 D(5,9,12,16)     =        -2.122354	    -121.601933
	 D(6,3,5,7)       =         1.337991	      76.661255
	 D(6,3,5,8)       =        -2.869998	    -164.438775
	 D(6,3,5,9)       =        -0.720706	     -41.293432
	 D(6,12,9,13)     =        -2.166681	    -124.141700
	 D(6,12,9,14)     =         2.045884	     117.220519
	 D(7,5,9,12)      =        -1.559990	     -89.380863
	 D(7,5,9,13)      =         0.574049	      32.890581
	 D(7,5,9,14)      =         2.645765	     151.591187
	 D(8,5,9,12)      =         2.608735	     149.469529
	 D(8,5,9,13)      =        -1.540411	     -88.259027
	 D(8,5,9,14)      =         0.531306	      30.441579
	 D(9,12,6,10)     =         1.622568	      92.966277
	 D(9,12,6,11)     =        -2.554776	    -146.377872
	 D(10,6,12,15)    =        -0.508234	     -29.119654
	 D(10,6,12,16)    =        -2.575766	    -147.580546
	 D(11,6,12,15)    =         1.597608	      91.536197
	 D(11,6,12,16)    =        -0.469925	     -26.924694
	 D(13,9,12,15)    =        -0.043695	      -2.503515
	 D(13,9,12,16)    =         2.030248	     116.324629
	 D(14,9,12,15)    =        -2.114314	    -121.141295
	 D(14,9,12,16)    =        -0.040372	      -2.313151

	Current energy   :      -270.1148055009

	Energy change for the previous step:
		Projected    :         0.0000018945
		Actual       :        -0.0000002691

	Performing BFGS update.
	Previous computed or guess Hessian on step 1.
	Denominators (dg)(dq) or (dq)(dq) are very small.
	 Skipping Hessian update for step 10.
	Steps to be used in Hessian update: 9 8
	Taking RFO optimization step.
	Going to follow RFO solution 1.
	Using RFO vector 1.

	Determining step-restricting scale parameter for RS-RFO.
	Maximum step size allowed    0.00781

	 Iter      |step|        alpha        rfo_root  
	------------------------------------------------
	    0     0.27248       1.00000           1
	    1     0.16850      15.04815           1
	    2     0.10186      62.95478           1
	    3     0.06136     209.91398           1
	    4     0.03735     624.28375           1
	    5     0.02335    1682.63773           1
	    6     0.01533    4016.54339           1
	    7     0.01090    8060.93831           1
	    8     0.00871   12716.81758           1
	    9     0.00793   15386.08977           1
	   10     0.00782   15857.27633           1
	------------------------------------------------
	Norm of target step-size    0.00782
	Projected energy change by RFO approximation:        -0.0000022544

	Back-transformation to cartesian coordinates...
	Successfully converged to displaced geometry.

	Back-transformation to cartesian coordinates to adjust frozen coordinates...
	Successfully converged to displaced geometry.

	--- Internal Coordinate Step in ANG or DEG, aJ/ANG or AJ/DEG ---
	 ---------------------------------------------------------------------------
	   Coordinate                Previous        Force       Change         New 
	   ----------                --------       ------       ------       ------
	    1 R(1,2)          =      0.938408     0.000002    -0.000000     0.938408
	    2 R(2,3)          =      1.402111     0.000019     0.000003     1.402114
	    3 R(3,4)          =      1.088317    -0.000003    -0.000001     1.088316
	    4 R(3,5)          =      1.522230    -0.000004    -0.000011     1.522218
	    5 R(3,6)          =      1.524701    -0.000002     0.000016     1.524717
	    6 R(5,7)          =      1.085097    -0.000006     0.000005     1.085102
	    7 R(5,8)          =      1.082238     0.000004     0.000002     1.082239
	    8 R(5,9)          =      1.534936     0.000001    -0.000048     1.534888
	    9 R(6,10)         =      1.087299    -0.000001    -0.000004     1.087294
	   10 R(6,11)         =      1.083709    -0.000008    -0.000005     1.083705
	   11 R(6,12)         =      1.537311     0.000025     0.000053     1.537364
	   12 R(9,12)         =      1.553625    -0.000048    -0.000017     1.553608
	   13 R(9,13)         =      1.081830     0.000008     0.000001     1.081831
	   14 R(9,14)         =      1.083224    -0.000004     0.000006     1.083230
	   15 R(12,15)        =      1.081838     0.000001     0.000001     1.081839
	   16 R(12,16)        =      1.082811     0.000005    -0.000005     1.082806
	   17 B(1,2,3)        =    110.586809     0.000000     0.000250   110.587059
	   18 B(2,3,4)        =    108.023184    -0.000000    -0.000683   108.022501
	   19 B(2,3,5)        =    112.648856     0.000000     0.002126   112.650981
	   20 B(2,3,6)        =    115.259834    -0.000000    -0.002300   115.257534
	   21 B(3,5,7)        =    108.198142     0.000000     0.002998   108.201141
	   22 B(3,5,8)        =    112.888539    -0.000000     0.000913   112.889452
	   23 B(3,5,9)        =    103.796382     0.000000    -0.006810   103.789573
	   24 B(3,6,10)       =    108.459118     0.000000    -0.000848   108.458270
	   25 B(3,6,11)       =    113.072892    -0.000000    -0.002855   113.070037
	   26 B(3,6,12)       =    104.144283     0.000000     0.007677   104.151961
	   27 B(4,3,5)        =    108.961843    -0.000000    -0.002100   108.959743
	   28 B(4,3,6)        =    108.837407     0.000000     0.001961   108.839368
	   29 B(5,3,6)        =    102.897191    -0.000000     0.001025   102.898217
	   30 B(5,9,12)       =    105.610265     0.000000    -0.002670   105.607595
	   31 B(5,9,13)       =    111.849096     0.000000     0.007412   111.856508
	   32 B(5,9,14)       =    110.488974    -0.000000    -0.007313   110.481661
	   33 B(6,12,9)       =    105.684123     0.000000     0.002123   105.686245
	   34 B(6,12,15)      =    111.457189    -0.000000    -0.007446   111.449744
	   35 B(6,12,16)      =    110.522800     0.000000     0.007975   110.530775
	   36 B(7,5,8)        =    107.547297     0.000000     0.001868   107.549165
	   37 B(7,5,9)        =    110.977563    -0.000000     0.000214   110.977777
	   38 B(8,5,9)        =    113.355220    -0.000000     0.000779   113.355999
	   39 B(9,12,15)      =    112.152773    -0.000000    -0.005669   112.147104
	   40 B(9,12,16)      =    110.400780     0.000000     0.003764   110.404544
	   41 B(10,6,11)      =    107.678521     0.000000    -0.001309   107.677212
	   42 B(10,6,12)      =    110.334711    -0.000000    -0.001328   110.333383
	   43 B(11,6,12)      =    113.072385    -0.000000    -0.001224   113.071161
	   44 B(12,9,13)      =    112.157339    -0.000000     0.003341   112.160680
	   45 B(12,9,14)      =    110.095403    -0.000000    -0.002430   110.092972
	   46 B(13,9,14)      =    106.694682     0.000000     0.001331   106.696013
	   47 B(15,12,16)     =    106.686523     0.000000    -0.000455   106.686068
	   48 D(1,2,3,4)      =   -111.935551     0.000000    -0.000466  -111.936017
	   49 D(1,2,3,5)      =    127.665241    -0.000000     0.001297   127.666538
	   50 *D(1,2,3,6)     =     10.000017    -0.000000     0.000000    10.000017
	   51 D(2,3,5,7)      =    -48.081479    -0.000000    -0.021781   -48.103260
	   52 D(2,3,5,8)      =     70.818491    -0.000000    -0.016910    70.801581
	   53 D(2,3,5,9)      =   -166.036166    -0.000000    -0.019961  -166.056127
	   54 D(2,3,6,10)     =     45.502871    -0.000000    -0.031949    45.470923
	   55 D(2,3,6,11)     =    -73.849270    -0.000000    -0.027958   -73.877228
	   56 D(2,3,6,12)     =    163.014337    -0.000000    -0.029966   162.984371
	   57 D(3,5,9,12)     =     26.631126     0.000000     0.065085    26.696211
	   58 D(3,5,9,13)     =    148.902571     0.000000     0.071768   148.974339
	   59 D(3,5,9,14)     =    -92.396823     0.000000     0.073385   -92.323438
	   60 D(3,6,12,9)     =    -23.241147     0.000000     0.071530   -23.169617
	   61 D(3,6,12,15)    =   -145.327078     0.000000     0.081390  -145.245688
	   62 D(3,6,12,16)    =     96.212030     0.000000     0.081532    96.293562
	   63 D(4,3,5,7)      =   -167.939739    -0.000000    -0.020849  -167.960589
	   64 D(4,3,5,8)      =    -49.039769    -0.000000    -0.015978   -49.055748
	   65 D(4,3,5,9)      =     74.105574    -0.000000    -0.019029    74.086544
	   66 D(4,3,6,10)     =    166.999381    -0.000000    -0.032929   166.966452
	   67 D(4,3,6,11)     =     47.647240    -0.000000    -0.028939    47.618301
	   68 D(4,3,6,12)     =    -75.489154    -0.000000    -0.030946   -75.520100
	   69 D(5,3,6,10)     =    -77.512069    -0.000000    -0.033998   -77.546067
	   70 D(5,3,6,11)     =    163.135790    -0.000000    -0.030008   163.105782
	   71 D(5,3,6,12)     =     39.999397    -0.000000    -0.032016    39.967381
	   72 D(5,9,12,6)     =     -2.068262    -0.000000    -0.084161    -2.152424
	   73 D(5,9,12,15)    =    119.569923    -0.000000    -0.095198   119.474725
	   74 D(5,9,12,16)    =   -121.601933    -0.000000    -0.096928  -121.698862
	   75 D(6,3,5,7)      =     76.661255    -0.000000    -0.022705    76.638551
	   76 D(6,3,5,8)      =   -164.438775    -0.000000    -0.017834  -164.456608
	   77 D(6,3,5,9)      =    -41.293432    -0.000000    -0.020885   -41.314317
	   78 D(6,12,9,13)    =   -124.141700    -0.000000    -0.093466  -124.235167
	   79 D(6,12,9,14)    =    117.220519    -0.000000    -0.095659   117.124860
	   80 D(7,5,9,12)     =    -89.380863     0.000000     0.065212   -89.315651
	   81 D(7,5,9,13)     =     32.890581     0.000000     0.071895    32.962476
	   82 D(7,5,9,14)     =    151.591187     0.000000     0.073512   151.664700
	   83 D(8,5,9,12)     =    149.469529     0.000000     0.062074   149.531603
	   84 D(8,5,9,13)     =    -88.259027     0.000000     0.068756   -88.190270
	   85 D(8,5,9,14)     =     30.441579     0.000000     0.070374    30.511953
	   86 D(9,12,6,10)    =     92.966277     0.000000     0.074053    93.040330
	   87 D(9,12,6,11)    =   -146.377872     0.000000     0.070587  -146.307285
	   88 D(10,6,12,15)   =    -29.119654     0.000000     0.083912   -29.035742
	   89 D(10,6,12,16)   =   -147.580546     0.000000     0.084055  -147.496491
	   90 D(11,6,12,15)   =     91.536197     0.000000     0.080446    91.616644
	   91 D(11,6,12,16)   =    -26.924694     0.000000     0.080589   -26.844105
	   92 D(13,9,12,15)   =     -2.503515    -0.000000    -0.104503    -2.608018
	   93 D(13,9,12,16)   =    116.324629    -0.000000    -0.106234   116.218395
	   94 D(14,9,12,15)   =   -121.141295    -0.000000    -0.106696  -121.247991
	   95 D(14,9,12,16)   =     -2.313151    -0.000000    -0.108427    -2.421578
	 ---------------------------------------------------------------------------

  ==> Convergence Check <==

  Measures of convergence in internal coordinates in au.
  Criteria marked as inactive (o), active & met (*), and active & unmet ( ).
  ---------------------------------------------------------------------------------------------
   Step     Total Energy     Delta E     MAX Force     RMS Force      MAX Disp      RMS Disp   
  ---------------------------------------------------------------------------------------------
    Convergence Criteria    1.00e-06 *    3.00e-04 *             o    1.20e-03 *             o
  ---------------------------------------------------------------------------------------------
     11    -270.11480550   -2.69e-07 *    8.72e-06 *    3.56e-06 o    1.89e-03      8.02e-04 o  ~
  ---------------------------------------------------------------------------------------------


  **** Optimization is complete! (in 11 steps) ****

  ==> Optimization Summary <==

  Measures of convergence in internal coordinates in au.
  --------------------------------------------------------------------------------------------------------------- ~
   Step         Total Energy             Delta E       MAX Force       RMS Force        MAX Disp        RMS Disp  ~
  --------------------------------------------------------------------------------------------------------------- ~
      1    -270.114322916337   -270.114322916337      0.00442787      0.00110102      0.06930902      0.01733953  ~
      2    -270.114662929108     -0.000340012771      0.00203324      0.00055527      0.01476631      0.00625708  ~
      3    -270.114753620838     -0.000090691730      0.00022078      0.00006066      0.01248508      0.00563481  ~
      4    -270.114759979947     -0.000006359110      0.00009592      0.00003238      0.02899354      0.01231064  ~
      5    -270.114770423512     -0.000010443564      0.00020525      0.00006322      0.03016050      0.01282469  ~
      6    -270.114781851368     -0.000011427857      0.00023136      0.00005356      0.03012801      0.01282468  ~
      7    -270.114791168231     -0.000009316863      0.00008582      0.00001896      0.03002731      0.01282508  ~
      8    -270.114798322209     -0.000007153977      0.00007748      0.00001686      0.03012708      0.01282470  ~
      9    -270.114803992314     -0.000005670105      0.00005126      0.00001148      0.00740085      0.00320621  ~
     10    -270.114805231723     -0.000001239408      0.00001338      0.00000464      0.00184991      0.00080187  ~
     11    -270.114805500866     -0.000000269144      0.00000872      0.00000356      0.00189240      0.00080182  ~
  --------------------------------------------------------------------------------------------------------------- ~

	Writing optimization data to binary file.
	Final energy is   -270.1148055008662
	Final (previous) structure:
	Cartesian Geometry (in Angstrom)
	    H     2.3401362616   0.7287516635  -0.4765471446
	    O     2.0835581315  -0.0741591454  -0.0641020952
	    C     0.7428956822  -0.0133921043   0.3419123852
	    H     0.7204681192  -0.0086718843   1.4299884468
	    C    -0.0769645597  -1.1917137559  -0.1646155644
	    C    -0.0385545794   1.1908162667  -0.1718292041
	    H     0.1249469449  -1.3147427483  -1.2236395418
	    H     0.1761123799  -2.1225193152   0.3260894918
	    C    -1.5295419138  -0.7550815593   0.0707539052
	    H     0.1765230323   1.3146618327  -1.2304235221
	    H     0.2275663590   2.1146336573   0.3283371856
	    C    -1.5108016399   0.7979421287   0.0317944972
	    H    -2.2004385740  -1.1736778981  -0.6675089149
	    H    -1.8769305578  -1.0989626547   1.0374187162
	    H    -2.1385514698   1.1938662813  -0.7553189448
	    H    -1.8866272285   1.2034308043   0.9628227614
	Saving final (previous) structure.
			--------------------------
			 OPTKING Finished Execution 
			--------------------------

    Final optimized geometry and variables:
    Molecular point group: c1
    Full point group: C1

    Geometry (in Angstrom), charge = 0, multiplicity = 1:

    H            2.340136082948     0.728751607870    -0.476547108218
    O            2.083557972395    -0.074159139786    -0.064102090278
    C            0.742895625431    -0.013392103280     0.341912359059
    H            0.720468064193    -0.008671883673     1.429988337589
    C           -0.076964553841    -1.191713664865    -0.164615551835
    C           -0.038554576411     1.190816175787    -0.171829190973
    H            0.124946935392    -1.314742647940    -1.223639448359
    H            0.176112366457    -2.122519153071     0.326089466919
    C           -1.529541797015    -0.755081501643     0.070753899847
    H            0.176523018833     1.314661732338    -1.230423428126
    H            0.227566341618     2.114633495780     0.328337160525
    C           -1.510801524520     0.797942067748     0.031794494757
    H           -2.200438405954    -1.173677808463    -0.667508863921
    H           -1.876930414434    -1.098962570742     1.037418636973
    H           -2.138551306470     1.193866190178    -0.755318887155
    H           -1.886627084395     1.203430712354     0.962822687864

	Cleaning optimization helper files.


Properties will be evaluated at   0.000000,   0.000000,   0.000000 Bohr

Properties computed using the  density matrix

  Nuclear Dipole Moment: (a.u.)
     X:    -4.0556      Y:     0.7841      Z:    -0.2523

  Electronic Dipole Moment: (a.u.)
     X:     3.6052      Y:    -0.2689      Z:     0.1421

  Dipole Moment: (a.u.)
     X:    -0.4504      Y:     0.5152      Z:    -0.1102     Total:     0.6931

  Dipole Moment: (Debye)
     X:    -1.1448      Y:     1.3094      Z:    -0.2801     Total:     1.7617

  Quadrupole Moment: (Debye Ang)
    XX:   -41.5954     YY:   -37.5561     ZZ:   -37.2307
    XY:     3.4902     XZ:    -1.1088     YZ:    -0.8071

  Traceless Quadrupole Moment: (Debye Ang)
    XX:    -2.8014     YY:     1.2380     ZZ:     1.5634
    XY:     3.4902     XZ:    -1.1088     YZ:    -0.8071

  Mulliken Charges: (a.u.)
   Center  Symbol    Alpha    Beta     Spin     Total
       1     H     0.39094  0.39094  0.00000  0.21812
       2     O     4.20805  4.20805  0.00000 -0.41609
       3     C     2.92381  2.92381  0.00000  0.15238
       4     H     0.45909  0.45909  0.00000  0.08181
       5     C     3.09165  3.09165  0.00000 -0.18331
       6     C     3.11793  3.11793  0.00000 -0.23586
       7     H     0.45719  0.45719  0.00000  0.08561
       8     H     0.44352  0.44352  0.00000  0.11296
       9     C     3.11444  3.11444  0.00000 -0.22887
      10     H     0.45654  0.45654  0.00000  0.08693
      11     H     0.44195  0.44195  0.00000  0.11611
      12     C     3.11037  3.11037  0.00000 -0.22074
      13     H     0.44383  0.44383  0.00000  0.11233
      14     H     0.44890  0.44890  0.00000  0.10220
      15     H     0.44432  0.44432  0.00000  0.11135
      16     H     0.44746  0.44746  0.00000  0.10507

   Total alpha = 24.00000, Total beta = 24.00000, Total charge = -0.00000


*** PSI4 exiting successfully. Buy a developer a beer!
