    -----------------------------------------------------------------------
          Psi4: An Open-Source Ab Initio Electronic Structure Package
                              Psi4 (no tag) Driver

                          Git: Rev {detached?}  

    J. M. Turney, A. C. Simmonett, R. M. Parrish, E. G. Hohenstein,
    F. A. Evangelista, J. T. Fermann, B. J. Mintz, L. A. Burns, J. J. Wilke,
    M. L. Abrams, N. J. Russ, M. L. Leininger, C. L. Janssen, E. T. Seidl,
    W. D. Allen, H. F. Schaefer, R. A. King, E. F. Valeev, C. D. Sherrill,
    and T. D. Crawford, WIREs Comput. Mol. Sci. 2, 556-565 (2012)
    (doi: 10.1002/wcms.93)

                         Additional Contributions by
    A. E. DePrince, M. Saitow, U. Bozkaya, A. Yu. Sokolov
    -----------------------------------------------------------------------


    Psi4 started on: Fri Sep  2 12:25:38 2016

    Process ID:  28400
    PSI4DATADIR: /export131/home/mjharvey/miniconda3/share
    Memory level set to 256.000 MB

  ==> Input File <==

--------------------------------------------------------------------------
set {
	reference rhf
	basis 6-31G*
}


set_num_threads( 4 )
memory 2 gb

molecule MOL {
0 1

H	 -0.369069	 2.500587	 -0.160170
C	 0.351978	 2.015645	 0.508952
C	 0.692068	 0.589600	 0.160137
O	 0.805856	 2.612734	 1.430694
C	 -0.558097	 -0.297372	 0.091132
H	 1.399191	 0.219772	 0.893408
H	 1.185189	 0.593968	 -0.811276
C	 -1.850991	 0.512573	 -0.019058
H	 -0.476753	 -0.965681	 -0.762987
H	 -0.604799	 -0.930658	 0.975228
C	 -3.096943	 -0.368295	 -0.099594
H	 -1.800724	 1.150330	 -0.898172
H	 -1.931651	 1.177355	 0.838044
H	 -3.060452	 -1.020287	 -0.967456
H	 -3.996858	 0.233488	 -0.175704
H	 -3.191959	 -0.995686	 0.782074

	symmetry c1
}
set optking {
	frozen_dihedral = ("
		6 3 5 9
	")
}

ee = optimize('scf')
oeprop('DIPOLE', 'QUADRUPOLE', 'MULLIKEN_CHARGES')
f=open( 'psi4out.xyz', 'w' )
f.write( "16  " )
f.write( str(ee) + "\n" )
f.write( MOL.save_string_xyz() )
f.close()
--------------------------------------------------------------------------

  Memory set to   2.000 GiB by Python script.
gradient() will perform analytic gradient computation.

*** tstart() called on cx1-5-5-2.cx1.hpc.ic.ac.uk
*** at Fri Sep  2 12:25:38 2016


         ---------------------------------------------------------
                                   SCF
            by Justin Turney, Rob Parrish, and Andy Simmonett
                              RHF Reference
                        4 Threads,   2000 MiB Core
         ---------------------------------------------------------

  ==> Geometry <==

    Molecular point group: c1
    Full point group: C1

    Geometry (in Angstrom), charge = 0, multiplicity = 1:

       Center              X                  Y                   Z               Mass       
    ------------   -----------------  -----------------  -----------------  -----------------
           H          0.253687723698     1.650207914794    -0.512119408709     1.007825032070
           C          0.974734723698     1.165265914794     0.157002591291    12.000000000000
           C          1.314824723698    -0.260779085206    -0.191812408709    12.000000000000
           O          1.428612723698     1.762354914794     1.078744591291    15.994914619560
           C          0.064659723698    -1.147751085206    -0.260817408709    12.000000000000
           H          2.021947723698    -0.630607085206     0.541458591291     1.007825032070
           H          1.807945723698    -0.256411085206    -1.163225408709     1.007825032070
           C         -1.228234276302    -0.337806085206    -0.371007408709    12.000000000000
           H          0.146003723698    -1.816060085206    -1.114936408709     1.007825032070
           H          0.017957723698    -1.781037085206     0.623278591291     1.007825032070
           C         -2.474186276302    -1.218674085206    -0.451543408709    12.000000000000
           H         -1.177967276302     0.299950914794    -1.250121408709     1.007825032070
           H         -1.308894276302     0.326975914794     0.486094591291     1.007825032070
           H         -2.437695276302    -1.870666085206    -1.319405408709     1.007825032070
           H         -3.374101276302    -0.616891085206    -0.527653408709     1.007825032070
           H         -2.569202276302    -1.846065085206     0.430124591291     1.007825032070

  Running in c1 symmetry.

  Rotational constants: A =      0.26055  B =      0.05836  C =      0.05099 [cm^-1]
  Rotational constants: A =   7811.09118  B =   1749.49534  C =   1528.76492 [MHz]
  Nuclear repulsion =  236.056426568992180

  Charge       = 0
  Multiplicity = 1
  Electrons    = 48
  Nalpha       = 24
  Nbeta        = 24

  ==> Algorithm <==

  SCF Algorithm Type is DF.
  DIIS enabled.
  MOM disabled.
  Fractional occupation disabled.
  Guess Type is CORE.
  Energy threshold   = 1.00e-08
  Density threshold  = 1.00e-08
  Integral threshold = 0.00e+00

  ==> Primary Basis <==

  Basis Set: 6-31G*
    Number of shells: 56
    Number of basis function: 110
    Number of Cartesian functions: 110
    Spherical Harmonics?: false
    Max angular momentum: 2

  ==> Pre-Iterations <==

   -------------------------------------------------------
    Irrep   Nso     Nmo     Nalpha   Nbeta   Ndocc  Nsocc
   -------------------------------------------------------
     A        110     110       0       0       0       0
   -------------------------------------------------------
    Total     110     110      24      24      24       0
   -------------------------------------------------------

 OEINTS: Overlap, kinetic, potential, dipole, and quadrupole integrals
         stored in file 35.

  ==> Integral Setup <==

  ==> DFJK: Density-Fitted J/K Matrices <==

    J tasked:                  Yes
    K tasked:                  Yes
    wK tasked:                  No
    OpenMP threads:              4
    Integrals threads:           4
    Memory (MB):              1430
    Algorithm:                Core
    Integral Cache:           NONE
    Schwarz Cutoff:          1E-12
    Fitting Condition:       1E-12

   => Auxiliary Basis Set <=

  Basis Set: 
    Number of shells: 234
    Number of basis function: 736
    Number of Cartesian functions: 736
    Spherical Harmonics?: false
    Max angular momentum: 3

  Minimum eigenvalue in the overlap matrix is 3.2388241043E-03.
  Using Symmetric Orthogonalization.
  SCF Guess: Core (One-Electron) Hamiltonian.

  ==> Iterations <==

                           Total Energy        Delta E     RMS |[F,P]|

   @DF-RHF iter   1:  -211.36604681189792   -2.11366e+02   7.15503e-02 
   @DF-RHF iter   2:  -109.03142234758670    1.02335e+02   9.81175e-02 DIIS
   @DF-RHF iter   3:  -239.93074695705647   -1.30899e+02   4.05556e-02 DIIS
   @DF-RHF iter   4:  -187.69848348681737    5.22323e+01   7.34548e-02 DIIS
   @DF-RHF iter   5:  -244.85991696526887   -5.71614e+01   4.34680e-02 DIIS
   @DF-RHF iter   6:  -269.49367524852983   -2.46338e+01   8.10807e-03 DIIS
   @DF-RHF iter   7:  -269.95747260354926   -4.63797e-01   2.27942e-03 DIIS
   @DF-RHF iter   8:  -269.99992418567354   -4.24516e-02   9.40823e-04 DIIS
   @DF-RHF iter   9:  -270.00770731521743   -7.78313e-03   3.21614e-04 DIIS
   @DF-RHF iter  10:  -270.00849403347024   -7.86718e-04   1.28516e-04 DIIS
   @DF-RHF iter  11:  -270.00867851972782   -1.84486e-04   4.87992e-05 DIIS
   @DF-RHF iter  12:  -270.00871823577370   -3.97160e-05   1.60771e-05 DIIS
   @DF-RHF iter  13:  -270.00872651442364   -8.27865e-06   7.53384e-06 DIIS
   @DF-RHF iter  14:  -270.00872866579834   -2.15137e-06   3.41663e-06 DIIS
   @DF-RHF iter  15:  -270.00872915640207   -4.90604e-07   1.01815e-06 DIIS
   @DF-RHF iter  16:  -270.00872918401649   -2.76144e-08   3.24560e-07 DIIS
   @DF-RHF iter  17:  -270.00872918615573   -2.13925e-09   1.07373e-07 DIIS
   @DF-RHF iter  18:  -270.00872918633172   -1.75987e-10   3.83838e-08 DIIS
   @DF-RHF iter  19:  -270.00872918635673   -2.50111e-11   1.30088e-08 DIIS
   @DF-RHF iter  20:  -270.00872918635946   -2.72848e-12   2.97221e-09 DIIS

  ==> Post-Iterations <==

    Orbital Energies (a.u.)
    -----------------------

    Doubly Occupied:                                                      

       1A    -20.559549     2A    -11.323623     3A    -11.234998  
       4A    -11.233471     5A    -11.231719     6A    -11.219443  
       7A     -1.400095     8A     -1.100716     9A     -1.015532  
      10A     -0.902797    11A     -0.843753    12A     -0.766059  
      13A     -0.678805    14A     -0.648007    15A     -0.627108  
      16A     -0.603423    17A     -0.579893    18A     -0.563687  
      19A     -0.525754    20A     -0.511335    21A     -0.498110  
      22A     -0.474991    23A     -0.470828    24A     -0.404900  

    Virtual:                                                              

      25A      0.163266    26A      0.222249    27A      0.249502  
      28A      0.255229    29A      0.277191    30A      0.291207  
      31A      0.316131    32A      0.328522    33A      0.332548  
      34A      0.342026    35A      0.373185    36A      0.399400  
      37A      0.412989    38A      0.428932    39A      0.490921  
      40A      0.516434    41A      0.705722    42A      0.733010  
      43A      0.737581    44A      0.749260    45A      0.774591  
      46A      0.804313    47A      0.857730    48A      0.891225  
      49A      0.919135    50A      0.942696    51A      0.948769  
      52A      0.968117    53A      1.000980    54A      1.074762  
      55A      1.098602    56A      1.111213    57A      1.120325  
      58A      1.131973    59A      1.149797    60A      1.169807  
      61A      1.184802    62A      1.188658    63A      1.195737  
      64A      1.216408    65A      1.238031    66A      1.267584  
      67A      1.287936    68A      1.367825    69A      1.383936  
      70A      1.510143    71A      1.567050    72A      1.671750  
      73A      1.700932    74A      1.743189    75A      1.772871  
      76A      1.848752    77A      1.893273    78A      1.978062  
      79A      2.038305    80A      2.101287    81A      2.124960  
      82A      2.140231    83A      2.206798    84A      2.248326  
      85A      2.261434    86A      2.290674    87A      2.320035  
      88A      2.377543    89A      2.444727    90A      2.458590  
      91A      2.505136    92A      2.581670    93A      2.630128  
      94A      2.688574    95A      2.706844    96A      2.719807  
      97A      2.815481    98A      2.896505    99A      2.947589  
     100A      2.980427   101A      3.043374   102A      3.100711  
     103A      3.269758   104A      3.370899   105A      4.318122  
     106A      4.537580   107A      4.623192   108A      4.707755  
     109A      4.834604   110A      5.015295  

    Final Occupation by Irrep:
              A 
    DOCC [    24 ]

  Energy converged.

  @DF-RHF Final Energy:  -270.00872918635946

   => Energetics <=

    Nuclear Repulsion Energy =            236.0564265689921797
    One-Electron Energy =                -833.2931172667181272
    Two-Electron Energy =                 327.2279615113665159
    DFT Exchange-Correlation Energy =       0.0000000000000000
    Empirical Dispersion Energy =           0.0000000000000000
    PCM Polarization Energy =               0.0000000000000000
    EFP Energy =                            0.0000000000000000
    Total Energy =                       -270.0087291863594601

    Alert: EFP and PCM quantities not currently incorporated into SCF psivars.

Properties will be evaluated at   0.000000,   0.000000,   0.000000 Bohr
  ==> Properties <==


Properties computed using the SCF density matrix

  Nuclear Dipole Moment: (a.u.)
     X:    -6.1995      Y:    -6.1231      Z:    -3.5633

  Electronic Dipole Moment: (a.u.)
     X:     5.7297      Y:     5.3411      Z:     2.7017

  Dipole Moment: (a.u.)
     X:    -0.4698      Y:    -0.7820      Z:    -0.8616     Total:     1.2548

  Dipole Moment: (Debye)
     X:    -1.1942      Y:    -1.9877      Z:    -2.1899     Total:     3.1894


  Saving occupied orbitals to File 180.

*** tstop() called on cx1-5-5-2.cx1.hpc.ic.ac.uk at Fri Sep  2 12:25:43 2016
Module time:
	user time   =      12.61 seconds =       0.21 minutes
	system time =       0.17 seconds =       0.00 minutes
	total time  =          5 seconds =       0.08 minutes
Total time:
	user time   =      12.61 seconds =       0.21 minutes
	system time =       0.17 seconds =       0.00 minutes
	total time  =          5 seconds =       0.08 minutes

*** tstart() called on cx1-5-5-2.cx1.hpc.ic.ac.uk
*** at Fri Sep  2 12:25:43 2016


         ------------------------------------------------------------
                                   SCF GRAD                          
                          Rob Parrish, Justin Turney,                
                       Andy Simmonett, and Alex Sokolov              
         ------------------------------------------------------------

  ==> Geometry <==

    Molecular point group: c1
    Full point group: C1

    Geometry (in Angstrom), charge = 0, multiplicity = 1:

       Center              X                  Y                   Z               Mass       
    ------------   -----------------  -----------------  -----------------  -----------------
           H          0.253687723698     1.650207914794    -0.512119408709     1.007825032070
           C          0.974734723698     1.165265914794     0.157002591291    12.000000000000
           C          1.314824723698    -0.260779085206    -0.191812408709    12.000000000000
           O          1.428612723698     1.762354914794     1.078744591291    15.994914619560
           C          0.064659723698    -1.147751085206    -0.260817408709    12.000000000000
           H          2.021947723698    -0.630607085206     0.541458591291     1.007825032070
           H          1.807945723698    -0.256411085206    -1.163225408709     1.007825032070
           C         -1.228234276302    -0.337806085206    -0.371007408709    12.000000000000
           H          0.146003723698    -1.816060085206    -1.114936408709     1.007825032070
           H          0.017957723698    -1.781037085206     0.623278591291     1.007825032070
           C         -2.474186276302    -1.218674085206    -0.451543408709    12.000000000000
           H         -1.177967276302     0.299950914794    -1.250121408709     1.007825032070
           H         -1.308894276302     0.326975914794     0.486094591291     1.007825032070
           H         -2.437695276302    -1.870666085206    -1.319405408709     1.007825032070
           H         -3.374101276302    -0.616891085206    -0.527653408709     1.007825032070
           H         -2.569202276302    -1.846065085206     0.430124591291     1.007825032070

  Nuclear repulsion =  236.056426568992180

  ==> Basis Set <==

  Basis Set: 6-31G*
    Number of shells: 56
    Number of basis function: 110
    Number of Cartesian functions: 110
    Spherical Harmonics?: false
    Max angular momentum: 2

  ==> DFJKGrad: Density-Fitted SCF Gradients <==

    Gradient:                    1
    J tasked:                  Yes
    K tasked:                  Yes
    wK tasked:                  No
    OpenMP threads:              4
    Integrals threads:           4
    Memory (MB):              1430
    Schwarz Cutoff:          0E+00
    Fitting Condition:       1E-12

   => Auxiliary Basis Set <=

  Basis Set: 
    Number of shells: 234
    Number of basis function: 736
    Number of Cartesian functions: 736
    Spherical Harmonics?: false
    Max angular momentum: 3


  -Total Gradient:
     Atom            X                  Y                   Z
    ------   -----------------  -----------------  -----------------
       1       -0.006994919838    -0.001627421758    -0.002114825006
       2       -0.003997313482    -0.005557058537     0.001788665442
       3       -0.004919834179    -0.001107442096    -0.000486156418
       4       -0.001020318735    -0.000222467844    -0.001563654307
       5        0.004620925726     0.005269422345     0.000227341832
       6       -0.000905636377    -0.001153732829     0.001709113324
       7       -0.000237464429    -0.002476909593    -0.001354479157
       8        0.006295962427     0.005879120640     0.001747106293
       9        0.001095237167     0.000347604132    -0.002003452015
      10        0.000819322115    -0.001989351875     0.001275867631
      11       -0.000238611680    -0.000223567554    -0.000076801381
      12        0.003076361353     0.001432156009     0.000321152771
      13        0.002757292608     0.001475254018     0.000449619376
      14       -0.000098530461     0.000056284008     0.000020826202
      15       -0.000032623170     0.000022022959    -0.000034406811
      16       -0.000219849052    -0.000123912023     0.000094082225


*** tstop() called on cx1-5-5-2.cx1.hpc.ic.ac.uk at Fri Sep  2 12:25:48 2016
Module time:
	user time   =      15.39 seconds =       0.26 minutes
	system time =       0.21 seconds =       0.00 minutes
	total time  =          5 seconds =       0.08 minutes
Total time:
	user time   =      28.03 seconds =       0.47 minutes
	system time =       0.38 seconds =       0.01 minutes
	total time  =         10 seconds =       0.17 minutes
CURRENT ENERGY: -270.0087291864

			-----------------------------------------
			 OPTKING 2.0: for geometry optimizations 
			  - R.A. King,  Bethel University        
			-----------------------------------------

	Internal coordinates to be generated automatically.
	Detected frag with atoms:  1 2 3 4 5 6 7 8 9 10 11 12 13 14 15 16
	---Fragment 1 Bond Connectivity---
	 1 : 2
	 2 : 1 3 4
	 3 : 2 5 6 7
	 4 : 2
	 5 : 3 8 9 10
	 6 : 3
	 7 : 3
	 8 : 5 11 12 13
	 9 : 5
	 10 : 5
	 11 : 8 14 15 16
	 12 : 8
	 13 : 8
	 14 : 11
	 15 : 11
	 16 : 11

	Assuming in current code that numbering for constraints corresponds to unified fragment.
	Frozen dihedral atom list: 
	     6     3     5     9
	---Fragment 1 Geometry and Gradient---
	 H           0.4794003211        3.1184410213       -0.9677654298
	 C           1.8419816800        2.2020334509        0.2966918997
	 C           2.4846586405       -0.4928010522       -0.3624729213
	 O           2.6996867977        3.3303681379        2.0385318449
	 C           0.1221891696       -2.1689352198       -0.4928734731
	 H           3.8209274528       -1.1916746885        1.0232084498
	 H           3.4165222809       -0.4845467285       -2.1981774533
	 C          -2.3210264092       -0.6383609871       -0.7011023957
	 H           0.2759070522       -3.4318562019       -2.1069244680
	 H           0.0339351798       -3.3656723236        1.1778258420
	 C          -4.6755344640       -2.3029602663       -0.8532933796
	 H          -2.2260355457        0.5668250823       -2.3623870953
	 H          -2.4734517191        0.6178949310        0.9185856522
	 H          -4.6065764676       -3.5350465871       -2.4933148807
	 H          -6.3761273568       -1.1657552049       -0.9971204355
	 H          -4.8550886822       -3.4885574345        0.8128176806
	            -0.0069949198       -0.0016274218       -0.0021148250
	            -0.0039973135       -0.0055570585        0.0017886654
	            -0.0049198342       -0.0011074421       -0.0004861564
	            -0.0010203187       -0.0002224678       -0.0015636543
	             0.0046209257        0.0052694223        0.0002273418
	            -0.0009056364       -0.0011537328        0.0017091133
	            -0.0002374644       -0.0024769096       -0.0013544792
	             0.0062959624        0.0058791206        0.0017471063
	             0.0010952372        0.0003476041       -0.0020034520
	             0.0008193221       -0.0019893519        0.0012758676
	            -0.0002386117       -0.0002235676       -0.0000768014
	             0.0030763614        0.0014321560        0.0003211528
	             0.0027572926        0.0014752540        0.0004496194
	            -0.0000985305        0.0000562840        0.0000208262
	            -0.0000326232        0.0000220230       -0.0000344068
	            -0.0002198491       -0.0001239120        0.0000940822

	Previous optimization step data not found.  Starting new optimization.

	---Fragment 1 Intrafragment Coordinates---
	 - Coordinate -           - BOHR/RAD -       - ANG/DEG -
	 R(1,2)           =         2.072506	       1.096723
	 R(2,3)           =         2.847747	       1.506963
	 R(2,4)           =         2.245619	       1.188330
	 R(3,5)           =         2.899602	       1.534403
	 R(3,6)           =         2.047963	       1.083735
	 R(3,7)           =         2.058701	       1.089418
	 R(5,8)           =         2.890557	       1.529617
	 R(5,9)           =         2.055179	       1.087554
	 R(5,10)          =         2.056989	       1.088512
	 R(8,11)          =         2.887518	       1.528009
	 R(8,12)          =         2.054596	       1.087245
	 R(8,13)          =         2.055432	       1.087688
	 R(11,14)         =         2.052428	       1.086098
	 R(11,15)         =         2.050838	       1.085257
	 R(11,16)         =         2.052756	       1.086272
	 B(1,2,3)         =         2.010402	     115.187576
	 B(1,2,4)         =         2.096911	     120.144123
	 B(2,3,5)         =         1.953633	     111.934930
	 B(2,3,6)         =         1.889743	     108.274301
	 B(2,3,7)         =         1.880478	     107.743427
	 B(3,2,4)         =         2.175872	     124.668301
	 B(3,5,8)         =         1.966892	     112.694589
	 B(3,5,9)         =         1.906675	     109.244417
	 B(3,5,10)        =         1.912124	     109.556618
	 B(5,3,6)         =         1.944196	     111.394222
	 B(5,3,7)         =         1.908174	     109.330318
	 B(5,8,11)        =         1.968999	     112.815311
	 B(5,8,12)        =         1.906855	     109.254730
	 B(5,8,13)        =         1.906617	     109.241108
	 B(6,3,7)         =         1.885302	     108.019866
	 B(8,5,9)         =         1.909252	     109.392108
	 B(8,5,10)        =         1.907426	     109.287465
	 B(8,11,14)       =         1.939906	     111.148406
	 B(8,11,15)       =         1.939263	     111.111587
	 B(8,11,16)       =         1.940672	     111.192291
	 B(9,5,10)        =         1.858309	     106.473236
	 B(11,8,12)       =         1.910529	     109.465231
	 B(11,8,13)       =         1.910707	     109.475439
	 B(12,8,13)       =         1.856751	     106.384000
	 B(14,11,15)      =         1.880415	     107.739858
	 B(14,11,16)      =         1.880504	     107.744965
	 B(15,11,16)      =         1.880371	     107.737299
	 D(1,2,3,5)       =        -0.981563	     -56.239412
	 D(1,2,3,6)       =        -3.131278	    -179.409013
	 D(1,2,3,7)       =         1.116908	      63.994092
	 D(2,3,5,8)       =         0.293152	      16.796345
	 D(2,3,5,9)       =         2.419241	     138.612324
	 D(2,3,5,10)      =        -1.834482	    -105.108092
	 D(3,5,8,11)      =         3.133313	     179.525623
	 D(3,5,8,12)      =         1.004050	      57.527814
	 D(3,5,8,13)      =        -1.020551	     -58.473256
	 D(4,2,3,5)       =         2.160136	     123.766671
	 D(4,2,3,6)       =         0.010421	       0.597070
	 D(4,2,3,7)       =        -2.024579	    -115.999825
	 D(5,8,11,14)     =        -1.048858	     -60.095163
	 D(5,8,11,15)     =         3.140436	     179.933727
	 D(5,8,11,16)     =         1.046089	      59.936483
	 D(6,3,5,8)       =         2.411767	     138.184055
	*D(6,3,5,9)       =        -1.745329	     -99.999965
	 D(6,3,5,10)      =         0.284133	      16.279618
	 D(7,3,5,8)       =        -1.789082	    -102.506826
	 D(7,3,5,9)       =         0.337008	      19.309154
	 D(7,3,5,10)      =         2.366470	     135.588738
	 D(9,5,8,11)      =         1.008682	      57.793229
	 D(9,5,8,12)      =        -1.120581	     -64.204580
	 D(9,5,8,13)      =         3.138003	     179.794350
	 D(10,5,8,11)     =        -1.019586	     -58.417954
	 D(10,5,8,12)     =         3.134336	     179.584237
	 D(10,5,8,13)     =         1.109736	      63.583168
	 D(12,8,11,14)    =         1.078334	      61.783995
	 D(12,8,11,15)    =        -1.015557	     -58.187115
	 D(12,8,11,16)    =        -3.109904	    -178.184359
	 D(13,8,11,14)    =         3.107311	     178.035803
	 D(13,8,11,15)    =         1.013420	      58.064693
	 D(13,8,11,16)    =        -1.080927	     -61.932551

	Current energy   :      -270.0087291864

	Generating empirical Hessian (Schlegel '84) for each fragment.
	Taking RFO optimization step.
	Going to follow RFO solution 1.
	Using RFO vector 1.
	Norm of target step-size    0.37243
	Projected energy change by RFO approximation:        -0.0134530543

	Back-transformation to cartesian coordinates...
	Successfully converged to displaced geometry.

	Back-transformation to cartesian coordinates to adjust frozen coordinates...
	Successfully converged to displaced geometry.

	--- Internal Coordinate Step in ANG or DEG, aJ/ANG or AJ/DEG ---
	 ---------------------------------------------------------------------------
	   Coordinate                Previous        Force       Change         New 
	   ----------                --------       ------       ------       ------
	    1 R(1,2)          =      1.096723    -0.042590    -0.007671     1.089052
	    2 R(2,3)          =      1.506963     0.039016     0.007532     1.514495
	    3 R(2,4)          =      1.188330     0.014124     0.000806     1.189137
	    4 R(3,5)          =      1.534403     0.179922     0.037726     1.572129
	    5 R(3,6)          =      1.083735    -0.007903    -0.001366     1.082369
	    6 R(3,7)          =      1.089418    -0.008983    -0.001581     1.087837
	    7 R(5,8)          =      1.529617     0.044701     0.009241     1.538858
	    8 R(5,9)          =      1.087554    -0.011878    -0.002078     1.085475
	    9 R(5,10)         =      1.088512    -0.017783    -0.003121     1.085391
	   10 R(8,11)         =      1.528009    -0.005238    -0.001078     1.526931
	   11 R(8,12)         =      1.087245    -0.005954    -0.001041     1.086205
	   12 R(8,13)         =      1.087688    -0.008663    -0.001516     1.086172
	   13 R(11,14)        =      1.086098     0.000443     0.000077     1.086176
	   14 R(11,15)        =      1.085257    -0.000343    -0.000060     1.085197
	   15 R(11,16)        =      1.086272    -0.001377    -0.000240     1.086032
	   16 B(1,2,3)        =    115.187576     0.000352     1.214962   116.402537
	   17 B(1,2,4)        =    120.144123    -0.000110    -0.761621   119.382502
	   18 B(2,3,5)        =    111.934930     0.002249     7.517794   119.452724
	   19 B(2,3,6)        =    108.274301    -0.000993    -4.208066   104.066235
	   20 B(2,3,7)        =    107.743427    -0.000781    -2.001264   105.742163
	   21 B(3,2,4)        =    124.668301    -0.000242    -0.928314   123.739987
	   22 B(3,5,8)        =    112.694589     0.002327     7.917751   120.612339
	   23 B(3,5,9)        =    109.244417    -0.000554    -1.206997   108.037420
	   24 B(3,5,10)       =    109.556618    -0.000670    -1.429637   108.126980
	   25 B(5,3,6)        =    111.394222    -0.000602    -2.111108   109.283114
	   26 B(5,3,7)        =    109.330318    -0.000292     0.623143   109.953461
	   27 B(5,8,11)       =    112.815311    -0.000212    -0.830048   111.985263
	   28 B(5,8,12)       =    109.254730     0.000196     1.151274   110.406004
	   29 B(5,8,13)       =    109.241108     0.000181     1.054509   110.295616
	   30 B(6,3,7)        =    108.019866     0.000353    -0.331836   107.688030
	   31 B(8,5,9)        =    109.392108    -0.000957    -3.722346   105.669762
	   32 B(8,5,10)       =    109.287465    -0.000712    -2.039883   107.247582
	   33 B(8,11,14)      =    111.148406    -0.000004    -0.020667   111.127739
	   34 B(8,11,15)      =    111.111587     0.000007     0.045917   111.157503
	   35 B(8,11,16)      =    111.192291    -0.000022    -0.110361   111.081930
	   36 B(9,5,10)       =    106.473236     0.000461    -0.145089   106.328147
	   37 B(11,8,12)      =    109.465231    -0.000088    -0.962969   108.502262
	   38 B(11,8,13)      =    109.475439    -0.000075    -0.909599   108.565840
	   39 B(12,8,13)      =    106.384000     0.000011     0.543000   106.927000
	   40 B(14,11,15)     =    107.739858     0.000004     0.047923   107.787781
	   41 B(14,11,16)     =    107.744965     0.000008     0.002551   107.747515
	   42 B(15,11,16)     =    107.737299     0.000009     0.039680   107.776979
	   43 D(1,2,3,5)      =    -56.239412    -0.000085    -9.844747   -66.084159
	   44 D(1,2,3,6)      =   -179.409013    -0.000091    -8.846835  -188.255849
	   45 D(1,2,3,7)      =     63.994092     0.000027    -5.582000    58.412092
	   46 D(2,3,5,8)      =     16.796345     0.000040     2.132563    18.928908
	   47 D(2,3,5,9)      =    138.612324     0.000028     1.832094   140.444418
	   48 D(2,3,5,10)     =   -105.108092    -0.000004     0.242951  -104.865141
	   49 D(3,5,8,11)     =    179.525623    -0.000001    -0.154252   179.371370
	   50 D(3,5,8,12)     =     57.527814     0.000025     0.823626    58.351439
	   51 D(3,5,8,13)     =    -58.473256    -0.000026    -1.131163   -59.604418
	   52 D(4,2,3,5)      =    123.766671    -0.000036    -1.874117   121.892554
	   53 D(4,2,3,6)      =      0.597070    -0.000042    -0.876206    -0.279136
	   54 D(4,2,3,7)      =   -115.999825     0.000076     2.388630  -113.611195
	   55 D(5,8,11,14)    =    -60.095163     0.000000     0.004903   -60.090260
	   56 D(5,8,11,15)    =    179.933727    -0.000001    -0.072590   179.861137
	   57 D(5,8,11,16)    =     59.936483    -0.000002    -0.079598    59.856885
	   58 D(6,3,5,8)      =    138.184055     0.000012     0.300469   138.484524
	   59 *D(6,3,5,9)     =    -99.999965     0.000000     0.000000   -99.999965
	   60 D(6,3,5,10)     =     16.279618    -0.000032    -1.589143    14.690476
	   61 D(7,3,5,8)      =   -102.506826    -0.000016    -1.008854  -103.515680
	   62 D(7,3,5,9)      =     19.309154    -0.000029    -1.309324    17.999830
	   63 D(7,3,5,10)     =    135.588738    -0.000060    -2.898467   132.690271
	   64 D(9,5,8,11)     =     57.793229    -0.000042    -1.081449    56.711780
	   65 D(9,5,8,12)     =    -64.204580    -0.000016    -0.103570   -64.308151
	   66 D(9,5,8,13)     =    179.794350    -0.000068    -2.058359   177.735991
	   67 D(10,5,8,11)    =    -58.417954     0.000046     1.999113   -56.418840
	   68 D(10,5,8,12)    =    179.584237     0.000073     2.976992   182.561229
	   69 D(10,5,8,13)    =     63.583168     0.000021     1.022203    64.605371
	   70 D(12,8,11,14)   =     61.783995     0.000011     0.240175    62.024171
	   71 D(12,8,11,15)   =    -58.187115     0.000009     0.162683   -58.024432
	   72 D(12,8,11,16)   =   -178.184359     0.000009     0.155675  -178.028684
	   73 D(13,8,11,14)   =    178.035803    -0.000008    -0.145225   177.890578
	   74 D(13,8,11,15)   =     58.064693    -0.000009    -0.222718    57.841975
	   75 D(13,8,11,16)   =    -61.932551    -0.000009    -0.229726   -62.162277
	 ---------------------------------------------------------------------------

  ==> Convergence Check <==

  Measures of convergence in internal coordinates in au.
  Criteria marked as inactive (o), active & met (*), and active & unmet ( ).
  --------------------------------------------------------------------------------------------- ~
   Step     Total Energy     Delta E     MAX Force     RMS Force      MAX Disp      RMS Disp    ~
  --------------------------------------------------------------------------------------------- ~
    Convergence Criteria    1.00e-06 *    3.00e-04 *             o    1.20e-03 *             o  ~
  --------------------------------------------------------------------------------------------- ~
      1    -270.00872919   -2.70e+02      3.06e-02      6.72e-03 o    1.72e-01      4.30e-02 o  ~
  ---------------------------------------------------------------------------------------------

	Writing optimization data to binary file.
	Structure for next step:
	Cartesian Geometry (in Angstrom)
	    H     0.7271467577   1.9198675726  -0.5176154917
	    C     1.2302261291   1.2650478297   0.1924239901
	    C     1.3046920207  -0.2011609378  -0.1795750455
	    O     1.7982252787   1.7400453490   1.1229078058
	    C    -0.0181812143  -1.0470418727  -0.2575662510
	    H     1.9592327065  -0.6294507806   0.5685343256
	    H     1.8253246068  -0.2374148544  -1.1340464495
	    C    -1.3850762493  -0.3532822491  -0.3931326713
	    H     0.0585499612  -1.7130000591  -1.1113044796
	    H    -0.0653202830  -1.6819912639   0.6214618611
	    C    -2.5317239224  -1.3589139177  -0.4667757653
	    H    -1.4097063199   0.2636293207  -1.2868070921
	    H    -1.5579019824   0.3070053586   0.4518053365
	    H    -2.4194153340  -2.0187903239  -1.3221863132
	    H    -3.4886881560  -0.8556802250  -0.5596657936
	    H    -2.5672909198  -1.9768618122   0.4256032008
			--------------------------
			 OPTKING Finished Execution 
			--------------------------

    Structure for next step:
    Molecular point group: c1
    Full point group: C1

    Geometry (in Angstrom), charge = 0, multiplicity = 1:

    H            0.669412784610     1.910420194079    -0.527035890653
    C            1.172492117563     1.255600501112     0.183003536931
    C            1.246958003470    -0.210608154384    -0.188995470230
    O            1.740491223808     1.730597984191     1.113487281576
    C           -0.075915130511    -1.056489024688    -0.266986669770
    H            1.901498639346    -0.638897964420     0.559113843749
    H            1.767590549804    -0.246862068225    -1.143466801314
    C           -1.442810061077    -0.362729454010    -0.402553079750
    H            0.000816039190    -1.722447160233    -1.120724833155
    H           -0.123054195546    -1.691438367369     0.612041375178
    C           -2.589457646662    -1.368361045828    -0.476196168114
    H           -1.467440129787     0.254182068605    -1.296227432304
    H           -1.615635781011     0.297558103242     0.442384863546
    H           -2.477149066843    -2.028237401630    -1.331606650675
    H           -3.546421807131    -0.865127391549    -0.569086189325
    H           -2.625024641381    -1.986308893185     0.416182729829

gradient() will perform analytic gradient computation.

*** tstart() called on cx1-5-5-2.cx1.hpc.ic.ac.uk
*** at Fri Sep  2 12:25:49 2016


         ---------------------------------------------------------
                                   SCF
            by Justin Turney, Rob Parrish, and Andy Simmonett
                              RHF Reference
                        4 Threads,   2000 MiB Core
         ---------------------------------------------------------

  ==> Geometry <==

    Molecular point group: c1
    Full point group: C1

    Geometry (in Angstrom), charge = 0, multiplicity = 1:

       Center              X                  Y                   Z               Mass       
    ------------   -----------------  -----------------  -----------------  -----------------
           H          0.669412784610     1.910420194079    -0.527035890653     1.007825032070
           C          1.172492117563     1.255600501112     0.183003536931    12.000000000000
           C          1.246958003470    -0.210608154384    -0.188995470230    12.000000000000
           O          1.740491223808     1.730597984191     1.113487281576    15.994914619560
           C         -0.075915130511    -1.056489024688    -0.266986669770    12.000000000000
           H          1.901498639346    -0.638897964420     0.559113843749     1.007825032070
           H          1.767590549804    -0.246862068225    -1.143466801314     1.007825032070
           C         -1.442810061077    -0.362729454010    -0.402553079750    12.000000000000
           H          0.000816039190    -1.722447160233    -1.120724833155     1.007825032070
           H         -0.123054195546    -1.691438367369     0.612041375178     1.007825032070
           C         -2.589457646662    -1.368361045828    -0.476196168114    12.000000000000
           H         -1.467440129787     0.254182068605    -1.296227432304     1.007825032070
           H         -1.615635781011     0.297558103242     0.442384863546     1.007825032070
           H         -2.477149066843    -2.028237401630    -1.331606650675     1.007825032070
           H         -3.546421807131    -0.865127391549    -0.569086189325     1.007825032070
           H         -2.625024641381    -1.986308893185     0.416182729829     1.007825032070

  Running in c1 symmetry.

  Rotational constants: A =      0.30389  B =      0.04935  C =      0.04526 [cm^-1]
  Rotational constants: A =   9110.35976  B =   1479.39235  C =   1356.98091 [MHz]
  Nuclear repulsion =  230.235675513217132

  Charge       = 0
  Multiplicity = 1
  Electrons    = 48
  Nalpha       = 24
  Nbeta        = 24

  ==> Algorithm <==

  SCF Algorithm Type is DF.
  DIIS enabled.
  MOM disabled.
  Fractional occupation disabled.
  Guess Type is READ.
  Energy threshold   = 1.00e-08
  Density threshold  = 1.00e-08
  Integral threshold = 0.00e+00

  ==> Primary Basis <==

  Basis Set: 6-31G*
    Number of shells: 56
    Number of basis function: 110
    Number of Cartesian functions: 110
    Spherical Harmonics?: false
    Max angular momentum: 2

  ==> Pre-Iterations <==

   -------------------------------------------------------
    Irrep   Nso     Nmo     Nalpha   Nbeta   Ndocc  Nsocc
   -------------------------------------------------------
     A        110     110       0       0       0       0
   -------------------------------------------------------
    Total     110     110      24      24      24       0
   -------------------------------------------------------

 OEINTS: Overlap, kinetic, potential, dipole, and quadrupole integrals
         stored in file 35.

  ==> Integral Setup <==

  ==> DFJK: Density-Fitted J/K Matrices <==

    J tasked:                  Yes
    K tasked:                  Yes
    wK tasked:                  No
    OpenMP threads:              4
    Integrals threads:           4
    Memory (MB):              1430
    Algorithm:                Core
    Integral Cache:           NONE
    Schwarz Cutoff:          1E-12
    Fitting Condition:       1E-12

   => Auxiliary Basis Set <=

  Basis Set: 
    Number of shells: 234
    Number of basis function: 736
    Number of Cartesian functions: 736
    Spherical Harmonics?: false
    Max angular momentum: 3

  Minimum eigenvalue in the overlap matrix is 3.9248884265E-03.
  Using Symmetric Orthogonalization.
  SCF Guess: Reading in previously saved MOs, projecting if necessary.

  Using orbitals from previous SCF, no projection.
  Recomputing DOCC and SOCC from number of alpha and beta electrons from previous calculation.
              A 
    DOCC [    24 ]

  ==> Iterations <==

                           Total Energy        Delta E     RMS |[F,P]|

   @DF-RHF iter   0:  -269.95572420946911   -2.69956e+02   3.56207e-03 
   @DF-RHF iter   1:  -270.00406972066759   -4.83455e-02   5.46169e-04 
   @DF-RHF iter   2:  -270.00787690569820   -3.80719e-03   2.14140e-04 DIIS
   @DF-RHF iter   3:  -270.00888293275585   -1.00603e-03   9.67028e-05 DIIS
   @DF-RHF iter   4:  -270.00912202354675   -2.39091e-04   5.47164e-05 DIIS
   @DF-RHF iter   5:  -270.00927011111270   -1.48088e-04   1.71538e-05 DIIS
   @DF-RHF iter   6:  -270.00927916298372   -9.05187e-06   7.20008e-06 DIIS
   @DF-RHF iter   7:  -270.00928009851333   -9.35530e-07   2.29485e-06 DIIS
   @DF-RHF iter   8:  -270.00928017810907   -7.95957e-08   9.70095e-07 DIIS
   @DF-RHF iter   9:  -270.00928018994426   -1.18352e-08   2.12765e-07 DIIS
   @DF-RHF iter  10:  -270.00928019083432   -8.90054e-10   7.84222e-08 DIIS
   @DF-RHF iter  11:  -270.00928019093999   -1.05672e-10   2.56449e-08 DIIS
   @DF-RHF iter  12:  -270.00928019095016   -1.01750e-11   7.64757e-09 DIIS

  ==> Post-Iterations <==

    Orbital Energies (a.u.)
    -----------------------

    Doubly Occupied:                                                      

       1A    -20.562248     2A    -11.326254     3A    -11.238435  
       4A    -11.237690     5A    -11.231095     6A    -11.219777  
       7A     -1.401885     8A     -1.087640     9A     -1.016196  
      10A     -0.908682    11A     -0.830150    12A     -0.775177  
      13A     -0.675926    14A     -0.646117    15A     -0.622547  
      16A     -0.602483    17A     -0.578422    18A     -0.559699  
      19A     -0.528210    20A     -0.511651    21A     -0.488668  
      22A     -0.475581    23A     -0.471305    24A     -0.408632  

    Virtual:                                                              

      25A      0.156076    26A      0.222705    27A      0.254286  
      28A      0.259750    29A      0.274165    30A      0.294867  
      31A      0.313335    32A      0.320659    33A      0.332987  
      34A      0.337631    35A      0.371513    36A      0.394926  
      37A      0.400255    38A      0.412624    39A      0.480836  
      40A      0.521732    41A      0.685291    42A      0.725166  
      43A      0.738868    44A      0.751544    45A      0.761378  
      46A      0.802280    47A      0.852499    48A      0.875982  
      49A      0.909354    50A      0.934130    51A      0.947635  
      52A      0.957598    53A      1.000737    54A      1.072757  
      55A      1.091446    56A      1.112604    57A      1.119510  
      58A      1.135776    59A      1.141128    60A      1.163160  
      61A      1.173253    62A      1.181758    63A      1.196610  
      64A      1.211611    65A      1.229880    66A      1.257647  
      67A      1.285753    68A      1.351091    69A      1.370190  
      70A      1.424634    71A      1.568454    72A      1.663434  
      73A      1.699837    74A      1.738299    75A      1.768091  
      76A      1.819976    77A      1.849035    78A      1.981719  
      79A      2.013004    80A      2.088948    81A      2.107947  
      82A      2.153818    83A      2.177160    84A      2.208184  
      85A      2.249884    86A      2.270713    87A      2.297918  
      88A      2.380116    89A      2.419298    90A      2.460503  
      91A      2.514270    92A      2.555418    93A      2.638333  
      94A      2.686207    95A      2.696066    96A      2.708884  
      97A      2.808099    98A      2.901124    99A      2.929796  
     100A      2.954247   101A      3.023108   102A      3.106821  
     103A      3.253860   104A      3.359928   105A      4.284667  
     106A      4.490523   107A      4.619862   108A      4.706376  
     109A      4.829027   110A      4.991183  

    Final Occupation by Irrep:
              A 
    DOCC [    24 ]

  Energy converged.

  @DF-RHF Final Energy:  -270.00928019095016

   => Energetics <=

    Nuclear Repulsion Energy =            230.2356755132171315
    One-Electron Energy =                -821.6809723767855758
    Two-Electron Energy =                 321.4360166726181660
    DFT Exchange-Correlation Energy =       0.0000000000000000
    Empirical Dispersion Energy =           0.0000000000000000
    PCM Polarization Energy =               0.0000000000000000
    EFP Energy =                            0.0000000000000000
    Total Energy =                       -270.0092801909503351

    Alert: EFP and PCM quantities not currently incorporated into SCF psivars.

Properties will be evaluated at   0.000000,   0.000000,   0.000000 Bohr
  ==> Properties <==


Properties computed using the SCF density matrix

  Nuclear Dipole Moment: (a.u.)
     X:    -7.0371      Y:    -6.2888      Z:    -3.7056

  Electronic Dipole Moment: (a.u.)
     X:     6.4445      Y:     5.6174      Z:     2.8349

  Dipole Moment: (a.u.)
     X:    -0.5926      Y:    -0.6714      Z:    -0.8706     Total:     1.2490

  Dipole Moment: (Debye)
     X:    -1.5062      Y:    -1.7065      Z:    -2.2129     Total:     3.1745


  Saving occupied orbitals to File 180.

*** tstop() called on cx1-5-5-2.cx1.hpc.ic.ac.uk at Fri Sep  2 12:25:53 2016
Module time:
	user time   =      12.01 seconds =       0.20 minutes
	system time =       0.13 seconds =       0.00 minutes
	total time  =          4 seconds =       0.07 minutes
Total time:
	user time   =      41.72 seconds =       0.70 minutes
	system time =       0.56 seconds =       0.01 minutes
	total time  =         15 seconds =       0.25 minutes

*** tstart() called on cx1-5-5-2.cx1.hpc.ic.ac.uk
*** at Fri Sep  2 12:25:53 2016


         ------------------------------------------------------------
                                   SCF GRAD                          
                          Rob Parrish, Justin Turney,                
                       Andy Simmonett, and Alex Sokolov              
         ------------------------------------------------------------

  ==> Geometry <==

    Molecular point group: c1
    Full point group: C1

    Geometry (in Angstrom), charge = 0, multiplicity = 1:

       Center              X                  Y                   Z               Mass       
    ------------   -----------------  -----------------  -----------------  -----------------
           H          0.669412784610     1.910420194079    -0.527035890653     1.007825032070
           C          1.172492117563     1.255600501112     0.183003536931    12.000000000000
           C          1.246958003470    -0.210608154384    -0.188995470230    12.000000000000
           O          1.740491223808     1.730597984191     1.113487281576    15.994914619560
           C         -0.075915130511    -1.056489024688    -0.266986669770    12.000000000000
           H          1.901498639346    -0.638897964420     0.559113843749     1.007825032070
           H          1.767590549804    -0.246862068225    -1.143466801314     1.007825032070
           C         -1.442810061077    -0.362729454010    -0.402553079750    12.000000000000
           H          0.000816039190    -1.722447160233    -1.120724833155     1.007825032070
           H         -0.123054195546    -1.691438367369     0.612041375178     1.007825032070
           C         -2.589457646662    -1.368361045828    -0.476196168114    12.000000000000
           H         -1.467440129787     0.254182068605    -1.296227432304     1.007825032070
           H         -1.615635781011     0.297558103242     0.442384863546     1.007825032070
           H         -2.477149066843    -2.028237401630    -1.331606650675     1.007825032070
           H         -3.546421807131    -0.865127391549    -0.569086189325     1.007825032070
           H         -2.625024641381    -1.986308893185     0.416182729829     1.007825032070

  Nuclear repulsion =  230.235675513217132

  ==> Basis Set <==

  Basis Set: 6-31G*
    Number of shells: 56
    Number of basis function: 110
    Number of Cartesian functions: 110
    Spherical Harmonics?: false
    Max angular momentum: 2

  ==> DFJKGrad: Density-Fitted SCF Gradients <==

    Gradient:                    1
    J tasked:                  Yes
    K tasked:                  Yes
    wK tasked:                  No
    OpenMP threads:              4
    Integrals threads:           4
    Memory (MB):              1430
    Schwarz Cutoff:          0E+00
    Fitting Condition:       1E-12

   => Auxiliary Basis Set <=

  Basis Set: 
    Number of shells: 234
    Number of basis function: 736
    Number of Cartesian functions: 736
    Spherical Harmonics?: false
    Max angular momentum: 3


  -Total Gradient:
     Atom            X                  Y                   Z
    ------   -----------------  -----------------  -----------------
       1        0.006824270465    -0.001122729014     0.000623833900
       2       -0.004989426988     0.000825050627     0.006874877672
       3        0.008256256789     0.001512459292    -0.007095745716
       4        0.003304347696     0.002076119783    -0.002836375724
       5        0.000283612376    -0.000750087314     0.002609248894
       6       -0.001120177079     0.004113371292     0.002537739323
       7        0.001608763256    -0.000160644432     0.000600304478
       8       -0.005103371046    -0.006830960609    -0.001198017365
       9       -0.004399596214     0.002245254351    -0.001661185724
      10       -0.001570364416    -0.000559145695    -0.000183296664
      11       -0.001120641559     0.002345892590    -0.000278079636
      12       -0.001225286490    -0.001818807560     0.000314402492
      13       -0.000801632105    -0.001903946859    -0.000331521941
      14        0.000250795944     0.000202802021     0.000027577485
      15       -0.000448570881    -0.000388481081    -0.000018504539
      16        0.000251020256     0.000213852604     0.000014743062


*** tstop() called on cx1-5-5-2.cx1.hpc.ic.ac.uk at Fri Sep  2 12:25:58 2016
Module time:
	user time   =      17.69 seconds =       0.29 minutes
	system time =       0.18 seconds =       0.00 minutes
	total time  =          5 seconds =       0.08 minutes
Total time:
	user time   =      59.43 seconds =       0.99 minutes
	system time =       0.74 seconds =       0.01 minutes
	total time  =         20 seconds =       0.33 minutes
CURRENT ENERGY: -270.0092801910

			-----------------------------------------
			 OPTKING 2.0: for geometry optimizations 
			  - R.A. King,  Bethel University        
			-----------------------------------------

	Previous internal coordinate definitions found.
	---Fragment 1 Geometry and Gradient---
	 H           1.2650068328        3.6101709655       -0.9959534955
	 C           2.2156889952        2.3727410794        0.3458265661
	 C           2.3564091258       -0.3979917331       -0.3571496791
	 O           3.2890517497        3.2703562362        2.1041860146
	 C          -0.1434588060       -1.9964749191       -0.5045316870
	 H           3.5933116704       -1.2073421796        1.0565720418
	 H           3.3402620542       -0.4665017015       -2.1608390965
	 C          -2.7265158772       -0.6854593284       -0.7607150747
	 H           0.0015420906       -3.2549534112       -2.1178630050
	 H          -0.2325387291       -3.1963552850        1.1565905811
	 C          -4.8933657849       -2.5858276275       -0.8998803433
	 H          -2.7730599617        0.4803344976       -2.4495148530
	 H          -3.0531091566        0.5623033237        0.8359862374
	 H          -4.6811333267       -3.8328132216       -2.5163718865
	 H          -6.7017659672       -1.6348538401       -1.0754170438
	 H          -4.9605776643       -3.7535798234        0.7864713806
	             0.0068242705       -0.0011227290        0.0006238339
	            -0.0049894270        0.0008250506        0.0068748777
	             0.0082562568        0.0015124593       -0.0070957457
	             0.0033043477        0.0020761198       -0.0028363757
	             0.0002836124       -0.0007500873        0.0026092489
	            -0.0011201771        0.0041133713        0.0025377393
	             0.0016087633       -0.0001606444        0.0006003045
	            -0.0051033710       -0.0068309606       -0.0011980174
	            -0.0043995962        0.0022452544       -0.0016611857
	            -0.0015703644       -0.0005591457       -0.0001832967
	            -0.0011206416        0.0023458926       -0.0002780796
	            -0.0012252865       -0.0018188076        0.0003144025
	            -0.0008016321       -0.0019039469       -0.0003315219
	             0.0002507959        0.0002028020        0.0000275775
	            -0.0004485709       -0.0003884811       -0.0000185045
	             0.0002510203        0.0002138526        0.0000147431

	---Fragment 1 Intrafragment Coordinates---
	 - Coordinate -           - BOHR/RAD -       - ANG/DEG -
	 R(1,2)           =         2.058009	       1.089052
	 R(2,3)           =         2.861981	       1.514495
	 R(2,4)           =         2.247142	       1.189137
	 R(3,5)           =         2.970894	       1.572129
	 R(3,6)           =         2.045381	       1.082369
	 R(3,7)           =         2.055713	       1.087837
	 R(5,8)           =         2.908019	       1.538858
	 R(5,9)           =         2.051251	       1.085475
	 R(5,10)          =         2.051091	       1.085391
	 R(8,11)          =         2.885482	       1.526931
	 R(8,12)          =         2.052629	       1.086205
	 R(8,13)          =         2.052567	       1.086172
	 R(11,14)         =         2.052574	       1.086176
	 R(11,15)         =         2.050726	       1.085197
	 R(11,16)         =         2.052302	       1.086032
	 B(1,2,3)         =         2.031608	     116.402537
	 B(1,2,4)         =         2.083618	     119.382502
	 B(2,3,5)         =         2.084843	     119.452724
	 B(2,3,6)         =         1.816298	     104.066235
	 B(2,3,7)         =         1.845549	     105.742163
	 B(3,2,4)         =         2.159670	     123.739987
	 B(3,5,8)         =         2.105082	     120.612339
	 B(3,5,9)         =         1.885609	     108.037420
	 B(3,5,10)        =         1.887172	     108.126980
	 B(5,3,6)         =         1.907350	     109.283114
	 B(5,3,7)         =         1.919050	     109.953461
	 B(5,8,11)        =         1.954512	     111.985263
	 B(5,8,12)        =         1.926948	     110.406004
	 B(5,8,13)        =         1.925022	     110.295616
	 B(6,3,7)         =         1.879511	     107.688030
	 B(8,5,9)         =         1.844285	     105.669762
	 B(8,5,10)        =         1.871823	     107.247582
	 B(8,11,14)       =         1.939545	     111.127739
	 B(8,11,15)       =         1.940064	     111.157503
	 B(8,11,16)       =         1.938745	     111.081930
	 B(9,5,10)        =         1.855776	     106.328147
	 B(11,8,12)       =         1.893722	     108.502262
	 B(11,8,13)       =         1.894831	     108.565840
	 B(12,8,13)       =         1.866228	     106.927000
	 B(14,11,15)      =         1.881252	     107.787781
	 B(14,11,16)      =         1.880549	     107.747515
	 B(15,11,16)      =         1.881063	     107.776979
	 D(1,2,3,5)       =        -1.153386	     -66.084159
	 D(1,2,3,6)       =         2.997501	     171.744151
	 D(1,2,3,7)       =         1.019483	      58.412092
	 D(2,3,5,8)       =         0.330372	      18.928908
	 D(2,3,5,9)       =         2.451218	     140.444418
	 D(2,3,5,10)      =        -1.830242	    -104.865141
	 D(3,5,8,11)      =         3.130621	     179.371370
	 D(3,5,8,12)      =         1.018425	      58.351439
	 D(3,5,8,13)      =        -1.040293	     -59.604418
	 D(4,2,3,5)       =         2.127426	     121.892554
	 D(4,2,3,6)       =        -0.004872	      -0.279136
	 D(4,2,3,7)       =        -1.982889	    -113.611195
	 D(5,8,11,14)     =        -1.048773	     -60.090260
	 D(5,8,11,15)     =         3.139169	     179.861137
	 D(5,8,11,16)     =         1.044700	      59.856885
	 D(6,3,5,8)       =         2.417011	     138.484524
	*D(6,3,5,9)       =        -1.745329	     -99.999965
	 D(6,3,5,10)      =         0.256397	      14.690476
	 D(7,3,5,8)       =        -1.806689	    -103.515680
	 D(7,3,5,9)       =         0.314156	      17.999830
	 D(7,3,5,10)      =         2.315882	     132.690271
	 D(9,5,8,11)      =         0.989807	      56.711780
	 D(9,5,8,12)      =        -1.122389	     -64.308151
	 D(9,5,8,13)      =         3.102078	     177.735991
	 D(10,5,8,11)     =        -0.984695	     -56.418840
	 D(10,5,8,12)     =        -3.096891	    -177.438771
	 D(10,5,8,13)     =         1.127576	      64.605371
	 D(12,8,11,14)    =         1.082526	      62.024171
	 D(12,8,11,15)    =        -1.012717	     -58.024432
	 D(12,8,11,16)    =        -3.107187	    -178.028684
	 D(13,8,11,14)    =         3.104776	     177.890578
	 D(13,8,11,15)    =         1.009533	      57.841975
	 D(13,8,11,16)    =        -1.084936	     -62.162277

	Current energy   :      -270.0092801910

	Energy change for the previous step:
		Projected    :        -0.0134530543
		Actual       :        -0.0005510046
	Energy ratio indicates iffy step: Trust radius decreased to 1.250e-01.


	Performing BFGS update.
	Previous computed or guess Hessian on step 1.
	Steps to be used in Hessian update: 1
	Taking RFO optimization step.
	Going to follow RFO solution 1.
	Using RFO vector 1.

	Determining step-restricting scale parameter for RS-RFO.
	Maximum step size allowed    0.12500

	 Iter      |step|        alpha        rfo_root  
	------------------------------------------------
	    0     0.42009       1.00000           1
	    1     0.26344       2.64665           1
	    2     0.18336       5.33697           1
	    3     0.14510       8.71796           1
	    4     0.12927      11.42059           1
	    5     0.12528      12.34585           1
	    6     0.12500      12.41630           1
	------------------------------------------------
	Norm of target step-size    0.12500
	Projected energy change by RFO approximation:        -0.0033849469

	Back-transformation to cartesian coordinates...
	Successfully converged to displaced geometry.

	Back-transformation to cartesian coordinates to adjust frozen coordinates...
	Successfully converged to displaced geometry.

	--- Internal Coordinate Step in ANG or DEG, aJ/ANG or AJ/DEG ---
	 ---------------------------------------------------------------------------
	   Coordinate                Previous        Force       Change         New 
	   ----------                --------       ------       ------       ------
	    1 R(1,2)          =      1.089052     0.034885     0.003777     1.092829
	    2 R(2,3)          =      1.514495    -0.021538    -0.002414     1.512081
	    3 R(2,4)          =      1.189137    -0.001551    -0.000043     1.189093
	    4 R(3,5)          =      1.572129    -0.128649    -0.015827     1.556303
	    5 R(3,6)          =      1.082369     0.004540     0.000463     1.082832
	    6 R(3,7)          =      1.087837    -0.002048    -0.000271     1.087565
	    7 R(5,8)          =      1.538858    -0.030676    -0.003716     1.535142
	    8 R(5,9)          =      1.085475     0.003147     0.000294     1.085770
	    9 R(5,10)         =      1.085391    -0.002034    -0.000310     1.085080
	   10 R(8,11)         =      1.526931     0.006177     0.000767     1.527699
	   11 R(8,12)         =      1.086205     0.010413     0.001129     1.087334
	   12 R(8,13)         =      1.086172     0.010609     0.001140     1.087311
	   13 R(11,14)        =      1.086176     0.000980     0.000111     1.086286
	   14 R(11,15)        =      1.085197    -0.001788    -0.000199     1.084998
	   15 R(11,16)        =      1.086032     0.000970     0.000101     1.086133
	   16 B(1,2,3)        =    116.402537     0.000018     0.141088   116.543625
	   17 B(1,2,4)        =    119.382502     0.000126     0.341561   119.724063
	   18 B(2,3,5)        =    119.452724    -0.001109    -2.005383   117.447341
	   19 B(2,3,6)        =    104.066235     0.000535     1.176282   105.242517
	   20 B(2,3,7)        =    105.742163     0.000364     0.485566   106.227729
	   21 B(3,2,4)        =    123.739987    -0.000090    -0.113176   123.626811
	   22 B(3,5,8)        =    120.612339    -0.001417    -2.636591   117.975748
	   23 B(3,5,9)        =    108.037420     0.000228     0.079517   108.116937
	   24 B(3,5,10)       =    108.126980     0.000342     0.353424   108.480404
	   25 B(5,3,6)        =    109.283114     0.000194     0.271087   109.554202
	   26 B(5,3,7)        =    109.953461     0.000199     0.141092   110.094553
	   27 B(5,8,11)       =    111.985263    -0.000225    -0.450681   111.534582
	   28 B(5,8,12)       =    110.406004     0.000006    -0.063168   110.342836
	   29 B(5,8,13)       =    110.295616     0.000034     0.030850   110.326467
	   30 B(6,3,7)        =    107.688030    -0.000109     0.112526   107.800556
	   31 B(8,5,9)        =    105.669762     0.000634     1.387775   107.057537
	   32 B(8,5,10)       =    107.247582     0.000509     1.036179   108.283761
	   33 B(8,11,14)      =    111.127739     0.000039     0.106327   111.234066
	   34 B(8,11,15)      =    111.157503    -0.000075    -0.205852   110.951651
	   35 B(8,11,16)      =    111.081930     0.000040     0.107025   111.188956
	   36 B(9,5,10)       =    106.328147    -0.000195     0.023270   106.351417
	   37 B(11,8,12)      =    108.502262     0.000148     0.378708   108.880970
	   38 B(11,8,13)      =    108.565840     0.000126     0.320806   108.886646
	   39 B(12,8,13)      =    106.927000    -0.000080    -0.194246   106.732754
	   40 B(14,11,15)     =    107.787781     0.000011     0.010834   107.798616
	   41 B(14,11,16)     =    107.747515    -0.000026    -0.031268   107.716248
	   42 B(15,11,16)     =    107.776979     0.000011     0.012524   107.789503
	   43 D(1,2,3,5)      =    -66.084159     0.000072     2.122376   -63.961783
	   44 D(1,2,3,6)      =    171.744151     0.000078     2.123890   173.868041
	   45 D(1,2,3,7)      =     58.412092     0.000022     1.294614    59.706706
	   46 D(2,3,5,8)      =     18.928908    -0.000026    -0.404824    18.524084
	   47 D(2,3,5,9)      =    140.444418    -0.000020    -0.369466   140.074952
	   48 D(2,3,5,10)     =   -104.865141    -0.000006    -0.120074  -104.985215
	   49 D(3,5,8,11)     =    179.371370     0.000002     0.058236   179.429606
	   50 D(3,5,8,12)     =     58.351439    -0.000008    -0.075402    58.276038
	   51 D(3,5,8,13)     =    -59.604418     0.000009     0.183572   -59.420846
	   52 D(4,2,3,5)      =    121.892554    -0.000035    -2.100394   119.792160
	   53 D(4,2,3,6)      =     -0.279136    -0.000029    -2.098879    -2.378015
	   54 D(4,2,3,7)      =   -113.611195    -0.000085    -2.928155  -116.539351
	   55 D(5,8,11,14)    =    -60.090260    -0.000001    -0.028868   -60.119129
	   56 D(5,8,11,15)    =    179.861137     0.000002     0.024276   179.885413
	   57 D(5,8,11,16)    =     59.856885     0.000004     0.074612    59.931497
	   58 D(6,3,5,8)      =    138.484524    -0.000005    -0.035358   138.449166
	   59 *D(6,3,5,9)     =    -99.999965     0.000000     0.000000   -99.999965
	   60 D(6,3,5,10)     =     14.690476     0.000014     0.249392    14.939868
	   61 D(7,3,5,8)      =   -103.515680     0.000018     0.349183  -103.166497
	   62 D(7,3,5,9)      =     17.999830     0.000023     0.384542    18.384372
	   63 D(7,3,5,10)     =    132.690271     0.000037     0.633934   133.324205
	   64 D(9,5,8,11)     =     56.711780     0.000034     0.625805    57.337586
	   65 D(9,5,8,12)     =    -64.308151     0.000025     0.492168   -63.815983
	   66 D(9,5,8,13)     =    177.735991     0.000041     0.751142   178.487134
	   67 D(10,5,8,11)    =    -56.418840    -0.000033    -0.543747   -56.962587
	   68 D(10,5,8,12)    =   -177.438771    -0.000042    -0.677384  -178.116155
	   69 D(10,5,8,13)    =     64.605371    -0.000026    -0.418410    64.186961
	   70 D(12,8,11,14)   =     62.024171    -0.000009    -0.142255    61.881916
	   71 D(12,8,11,15)   =    -58.024432    -0.000007    -0.089111   -58.113543
	   72 D(12,8,11,16)   =   -178.028684    -0.000005    -0.038775  -178.067459
	   73 D(13,8,11,14)   =    177.890578     0.000003     0.005958   177.896536
	   74 D(13,8,11,15)   =     57.841975     0.000005     0.059102    57.901078
	   75 D(13,8,11,16)   =    -62.162277     0.000008     0.109439   -62.052838
	 ---------------------------------------------------------------------------

  ==> Convergence Check <==

  Measures of convergence in internal coordinates in au.
  Criteria marked as inactive (o), active & met (*), and active & unmet ( ).
  ---------------------------------------------------------------------------------------------
   Step     Total Energy     Delta E     MAX Force     RMS Force      MAX Disp      RMS Disp   
  ---------------------------------------------------------------------------------------------
    Convergence Criteria    1.00e-06 *    3.00e-04 *             o    1.20e-03 *             o
  ---------------------------------------------------------------------------------------------
      2    -270.00928019   -5.51e-04      1.86e-02      4.02e-03 o    5.11e-02      1.44e-02 o  ~
  ---------------------------------------------------------------------------------------------

	Writing optimization data to binary file.
	Structure for next step:
	Cartesian Geometry (in Angstrom)
	    H     0.5389909132   1.8523023972  -0.5330240848
	    C     1.0993479189   1.2273206178   0.1667426207
	    C     1.2448947612  -0.2327355136  -0.1985546269
	    O     1.6095619970   1.7215579336   1.1203430170
	    C    -0.0537196962  -1.0875933811  -0.2685324979
	    H     1.9121070879  -0.6474952369   0.5466481817
	    H     1.7599846825  -0.2565697934  -1.1561099079
	    C    -1.3945218452  -0.3512351307  -0.3977059322
	    H     0.0267451592  -1.7546761542  -1.1214227861
	    H    -0.0965112438  -1.7208074407   0.6115858046
	    C    -2.5665696118  -1.3286041856  -0.4678242215
	    H    -1.4002958936   0.2697135706  -1.2902773008
	    H    -1.5423368868   0.3154583212   0.4484123199
	    H    -2.4758911719  -1.9908736145  -1.3240918194
	    H    -3.5090288920  -0.7984589271  -0.5569186506
	    H    -2.6164069508  -1.9464520509   0.4240640243
			--------------------------
			 OPTKING Finished Execution 
			--------------------------

    Structure for next step:
    Molecular point group: c1
    Full point group: C1

    Geometry (in Angstrom), charge = 0, multiplicity = 1:

    H            0.559468612650     1.857740795298    -0.532411112515
    C            1.119825575574     1.232759063628     0.167355539558
    C            1.265372406702    -0.227296956313    -0.197941680167
    O            1.630039614641     1.726996341686     1.120955862956
    C           -0.033241951499    -1.082154758534    -0.267919545797
    H            1.932584682464    -0.642056647891     0.547261071463
    H            1.780462288697    -0.251131234328    -1.155496888049
    C           -1.374043998160    -0.345796564317    -0.397092970272
    H            0.047222897774    -1.749237480683    -1.120809768889
    H           -0.076033495821    -1.715368769724     0.612198689473
    C           -2.546091675257    -1.323165544572    -0.467211254242
    H           -1.379818046059     0.275152089553    -1.289664270705
    H           -1.521859028439     0.320896836612     0.449025217245
    H           -2.455413242245    -1.985434922938    -1.323478786751
    H           -3.488550883402    -0.793020326592    -0.556305676501
    H           -2.595929010406    -1.941013362739     0.424676923511

gradient() will perform analytic gradient computation.

*** tstart() called on cx1-5-5-2.cx1.hpc.ic.ac.uk
*** at Fri Sep  2 12:25:59 2016


         ---------------------------------------------------------
                                   SCF
            by Justin Turney, Rob Parrish, and Andy Simmonett
                              RHF Reference
                        4 Threads,   2000 MiB Core
         ---------------------------------------------------------

  ==> Geometry <==

    Molecular point group: c1
    Full point group: C1

    Geometry (in Angstrom), charge = 0, multiplicity = 1:

       Center              X                  Y                   Z               Mass       
    ------------   -----------------  -----------------  -----------------  -----------------
           H          0.559468612650     1.857740795298    -0.532411112515     1.007825032070
           C          1.119825575574     1.232759063628     0.167355539558    12.000000000000
           C          1.265372406702    -0.227296956313    -0.197941680167    12.000000000000
           O          1.630039614641     1.726996341686     1.120955862956    15.994914619560
           C         -0.033241951499    -1.082154758534    -0.267919545797    12.000000000000
           H          1.932584682464    -0.642056647891     0.547261071463     1.007825032070
           H          1.780462288697    -0.251131234328    -1.155496888049     1.007825032070
           C         -1.374043998160    -0.345796564317    -0.397092970272    12.000000000000
           H          0.047222897774    -1.749237480683    -1.120809768889     1.007825032070
           H         -0.076033495821    -1.715368769724     0.612198689473     1.007825032070
           C         -2.546091675257    -1.323165544572    -0.467211254242    12.000000000000
           H         -1.379818046059     0.275152089553    -1.289664270705     1.007825032070
           H         -1.521859028439     0.320896836612     0.449025217245     1.007825032070
           H         -2.455413242245    -1.985434922938    -1.323478786751     1.007825032070
           H         -3.488550883402    -0.793020326592    -0.556305676501     1.007825032070
           H         -2.595929010406    -1.941013362739     0.424676923511     1.007825032070

  Running in c1 symmetry.

  Rotational constants: A =      0.28775  B =      0.05212  C =      0.04721 [cm^-1]
  Rotational constants: A =   8626.58945  B =   1562.63448  C =   1415.37549 [MHz]
  Nuclear repulsion =  232.119228695412147

  Charge       = 0
  Multiplicity = 1
  Electrons    = 48
  Nalpha       = 24
  Nbeta        = 24

  ==> Algorithm <==

  SCF Algorithm Type is DF.
  DIIS enabled.
  MOM disabled.
  Fractional occupation disabled.
  Guess Type is READ.
  Energy threshold   = 1.00e-08
  Density threshold  = 1.00e-08
  Integral threshold = 0.00e+00

  ==> Primary Basis <==

  Basis Set: 6-31G*
    Number of shells: 56
    Number of basis function: 110
    Number of Cartesian functions: 110
    Spherical Harmonics?: false
    Max angular momentum: 2

  ==> Pre-Iterations <==

   -------------------------------------------------------
    Irrep   Nso     Nmo     Nalpha   Nbeta   Ndocc  Nsocc
   -------------------------------------------------------
     A        110     110       0       0       0       0
   -------------------------------------------------------
    Total     110     110      24      24      24       0
   -------------------------------------------------------

 OEINTS: Overlap, kinetic, potential, dipole, and quadrupole integrals
         stored in file 35.

  ==> Integral Setup <==

  ==> DFJK: Density-Fitted J/K Matrices <==

    J tasked:                  Yes
    K tasked:                  Yes
    wK tasked:                  No
    OpenMP threads:              4
    Integrals threads:           4
    Memory (MB):              1430
    Algorithm:                Core
    Integral Cache:           NONE
    Schwarz Cutoff:          1E-12
    Fitting Condition:       1E-12

   => Auxiliary Basis Set <=

  Basis Set: 
    Number of shells: 234
    Number of basis function: 736
    Number of Cartesian functions: 736
    Spherical Harmonics?: false
    Max angular momentum: 3

  Minimum eigenvalue in the overlap matrix is 3.7129352333E-03.
  Using Symmetric Orthogonalization.
  SCF Guess: Reading in previously saved MOs, projecting if necessary.

  Using orbitals from previous SCF, no projection.
  Recomputing DOCC and SOCC from number of alpha and beta electrons from previous calculation.
              A 
    DOCC [    24 ]

  ==> Iterations <==

                           Total Energy        Delta E     RMS |[F,P]|

   @DF-RHF iter   0:  -270.01190529229223   -2.70012e+02   1.22508e-03 
   @DF-RHF iter   1:  -270.01120717175229    6.98121e-04   1.77821e-04 
   @DF-RHF iter   2:  -270.01160197405034   -3.94802e-04   7.18605e-05 DIIS
   @DF-RHF iter   3:  -270.01169312856769   -9.11545e-05   3.89706e-05 DIIS
   @DF-RHF iter   4:  -270.01171569799192   -2.25694e-05   1.80234e-05 DIIS
   @DF-RHF iter   5:  -270.01172576009844   -1.00621e-05   9.28709e-06 DIIS
   @DF-RHF iter   6:  -270.01172901466475   -3.25457e-06   2.90700e-06 DIIS
   @DF-RHF iter   7:  -270.01172932055204   -3.05887e-07   1.18138e-06 DIIS
   @DF-RHF iter   8:  -270.01172936003275   -3.94807e-08   4.18205e-07 DIIS
   @DF-RHF iter   9:  -270.01172936442879   -4.39604e-09   1.09320e-07 DIIS
   @DF-RHF iter  10:  -270.01172936468117   -2.52385e-10   2.87487e-08 DIIS
   @DF-RHF iter  11:  -270.01172936469902   -1.78488e-11   7.04798e-09 DIIS

  ==> Post-Iterations <==

    Orbital Energies (a.u.)
    -----------------------

    Doubly Occupied:                                                      

       1A    -20.561557     2A    -11.325779     3A    -11.236665  
       4A    -11.235308     5A    -11.231233     6A    -11.219392  
       7A     -1.401352     8A     -1.091256     9A     -1.016061  
      10A     -0.906642    11A     -0.832936    12A     -0.773206  
      13A     -0.676750    14A     -0.646112    15A     -0.623603  
      16A     -0.603193    17A     -0.578997    18A     -0.561264  
      19A     -0.526632    20A     -0.511297    21A     -0.492363  
      22A     -0.475087    23A     -0.470570    24A     -0.408156  

    Virtual:                                                              

      25A      0.158052    26A      0.223320    27A      0.254166  
      28A      0.256959    29A      0.273792    30A      0.293313  
      31A      0.314259    32A      0.323690    33A      0.333146  
      34A      0.338281    35A      0.373606    36A      0.395819  
      37A      0.404899    38A      0.417118    39A      0.483326  
      40A      0.519890    41A      0.691996    42A      0.724327  
      43A      0.739060    44A      0.750411    45A      0.764194  
      46A      0.802058    47A      0.858344    48A      0.879508  
      49A      0.911896    50A      0.939120    51A      0.950990  
      52A      0.952970    53A      1.000450    54A      1.077417  
      55A      1.091509    56A      1.113500    57A      1.119197  
      58A      1.133621    59A      1.141460    60A      1.164220  
      61A      1.179277    62A      1.182908    63A      1.196297  
      64A      1.214423    65A      1.231168    66A      1.259564  
      67A      1.286618    68A      1.361581    69A      1.376826  
      70A      1.447735    71A      1.574305    72A      1.667342  
      73A      1.701059    74A      1.737006    75A      1.769970  
      76A      1.818796    77A      1.856603    78A      1.980954  
      79A      2.022936    80A      2.094566    81A      2.115481  
      82A      2.152437    83A      2.186180    84A      2.221196  
      85A      2.252696    86A      2.275196    87A      2.302109  
      88A      2.378377    89A      2.432573    90A      2.461432  
      91A      2.512187    92A      2.564990    93A      2.636086  
      94A      2.689839    95A      2.697234    96A      2.715386  
      97A      2.809848    98A      2.905140    99A      2.930861  
     100A      2.958570   101A      3.038270   102A      3.105600  
     103A      3.256888   104A      3.361747   105A      4.291571  
     106A      4.503257   107A      4.622775   108A      4.707748  
     109A      4.828700   110A      5.000420  

    Final Occupation by Irrep:
              A 
    DOCC [    24 ]

  Energy converged.

  @DF-RHF Final Energy:  -270.01172936469902

   => Energetics <=

    Nuclear Repulsion Energy =            232.1192286954121471
    One-Electron Energy =                -825.4510997613865584
    Two-Electron Energy =                 323.3201417012757020
    DFT Exchange-Correlation Energy =       0.0000000000000000
    Empirical Dispersion Energy =           0.0000000000000000
    PCM Polarization Energy =               0.0000000000000000
    EFP Energy =                            0.0000000000000000
    Total Energy =                       -270.0117293646986809

    Alert: EFP and PCM quantities not currently incorporated into SCF psivars.

Properties will be evaluated at   0.000000,   0.000000,   0.000000 Bohr
  ==> Properties <==


Properties computed using the SCF density matrix

  Nuclear Dipole Moment: (a.u.)
     X:    -6.7399      Y:    -6.2010      Z:    -3.6929

  Electronic Dipole Moment: (a.u.)
     X:     6.2016      Y:     5.5120      Z:     2.8089

  Dipole Moment: (a.u.)
     X:    -0.5383      Y:    -0.6890      Z:    -0.8840     Total:     1.2434

  Dipole Moment: (Debye)
     X:    -1.3682      Y:    -1.7513      Z:    -2.2469     Total:     3.1603


  Saving occupied orbitals to File 180.

*** tstop() called on cx1-5-5-2.cx1.hpc.ic.ac.uk at Fri Sep  2 12:26:03 2016
Module time:
	user time   =      11.99 seconds =       0.20 minutes
	system time =       0.16 seconds =       0.00 minutes
	total time  =          4 seconds =       0.07 minutes
Total time:
	user time   =      72.45 seconds =       1.21 minutes
	system time =       0.92 seconds =       0.02 minutes
	total time  =         25 seconds =       0.42 minutes

*** tstart() called on cx1-5-5-2.cx1.hpc.ic.ac.uk
*** at Fri Sep  2 12:26:03 2016


         ------------------------------------------------------------
                                   SCF GRAD                          
                          Rob Parrish, Justin Turney,                
                       Andy Simmonett, and Alex Sokolov              
         ------------------------------------------------------------

  ==> Geometry <==

    Molecular point group: c1
    Full point group: C1

    Geometry (in Angstrom), charge = 0, multiplicity = 1:

       Center              X                  Y                   Z               Mass       
    ------------   -----------------  -----------------  -----------------  -----------------
           H          0.559468612650     1.857740795298    -0.532411112515     1.007825032070
           C          1.119825575574     1.232759063628     0.167355539558    12.000000000000
           C          1.265372406702    -0.227296956313    -0.197941680167    12.000000000000
           O          1.630039614641     1.726996341686     1.120955862956    15.994914619560
           C         -0.033241951499    -1.082154758534    -0.267919545797    12.000000000000
           H          1.932584682464    -0.642056647891     0.547261071463     1.007825032070
           H          1.780462288697    -0.251131234328    -1.155496888049     1.007825032070
           C         -1.374043998160    -0.345796564317    -0.397092970272    12.000000000000
           H          0.047222897774    -1.749237480683    -1.120809768889     1.007825032070
           H         -0.076033495821    -1.715368769724     0.612198689473     1.007825032070
           C         -2.546091675257    -1.323165544572    -0.467211254242    12.000000000000
           H         -1.379818046059     0.275152089553    -1.289664270705     1.007825032070
           H         -1.521859028439     0.320896836612     0.449025217245     1.007825032070
           H         -2.455413242245    -1.985434922938    -1.323478786751     1.007825032070
           H         -3.488550883402    -0.793020326592    -0.556305676501     1.007825032070
           H         -2.595929010406    -1.941013362739     0.424676923511     1.007825032070

  Nuclear repulsion =  232.119228695412147

  ==> Basis Set <==

  Basis Set: 6-31G*
    Number of shells: 56
    Number of basis function: 110
    Number of Cartesian functions: 110
    Spherical Harmonics?: false
    Max angular momentum: 2

  ==> DFJKGrad: Density-Fitted SCF Gradients <==

    Gradient:                    1
    J tasked:                  Yes
    K tasked:                  Yes
    wK tasked:                  No
    OpenMP threads:              4
    Integrals threads:           4
    Memory (MB):              1430
    Schwarz Cutoff:          0E+00
    Fitting Condition:       1E-12

   => Auxiliary Basis Set <=

  Basis Set: 
    Number of shells: 234
    Number of basis function: 736
    Number of Cartesian functions: 736
    Spherical Harmonics?: false
    Max angular momentum: 3


  -Total Gradient:
     Atom            X                  Y                   Z
    ------   -----------------  -----------------  -----------------
       1        0.002189968874     0.000265181655     0.000217622822
[...]
	 H           3.4009111300       -0.4311033521       -2.2934439517
	 C          -2.4428773886       -0.6215410374       -0.7715131061
	 H           0.1848045845       -3.3418043081       -2.1328792710
	 H          -0.0156487582       -3.2265064324        1.1612646900
	 C          -4.7129779438       -2.4032631317       -0.8733372832
	 H          -2.4217057902        0.5375012878       -2.4691832466
	 H          -2.6708386254        0.6649367273        0.8140753023
	 H          -4.5872253874       -3.6744146909       -2.4800953480
	 H          -6.4672966801       -1.3546498621       -1.0402314753
	 H          -4.8282189038       -3.5504195806        0.8245499065
	             0.0000007191        0.0000002074       -0.0000000793
	             0.0000122440        0.0000318605        0.0000329501
	             0.0016717592       -0.0023661521       -0.0040883402
	            -0.0000086915       -0.0000055917       -0.0000204985
	             0.0018270849       -0.0028123939        0.0035323865
	            -0.0016886409        0.0023695661        0.0028754547
	            -0.0000015769       -0.0000050090       -0.0000027029
	            -0.0000369884        0.0000068131        0.0000139411
	            -0.0017792611        0.0027605501       -0.0023357312
	             0.0000072326        0.0000037945       -0.0000008644
	             0.0000096943        0.0000204240       -0.0000077476
	            -0.0000068697       -0.0000066064        0.0000006979
	            -0.0000081889        0.0000016762        0.0000002859
	             0.0000023134       -0.0000018598        0.0000012619
	            -0.0000033529       -0.0000011353       -0.0000021788
	             0.0000025227        0.0000038564        0.0000011649

	---Fragment 1 Intrafragment Coordinates---
	 - Coordinate -           - BOHR/RAD -       - ANG/DEG -
	 R(1,2)           =         2.067911	       1.094292
	 R(2,3)           =         2.856258	       1.511467
	 R(2,4)           =         2.247009	       1.189066
	 R(3,5)           =         2.935638	       1.553473
	 R(3,6)           =         2.046117	       1.082759
	 R(3,7)           =         2.053582	       1.086709
	 R(5,8)           =         2.900254	       1.534749
	 R(5,9)           =         2.051366	       1.085536
	 R(5,10)          =         2.049513	       1.084556
	 R(8,11)          =         2.887604	       1.528054
	 R(8,12)          =         2.055702	       1.087831
	 R(8,13)          =         2.054527	       1.087209
	 R(11,14)         =         2.052635	       1.086208
	 R(11,15)         =         2.050629	       1.085146
	 R(11,16)         =         2.052333	       1.086048
	 B(1,2,3)         =         2.027261	     116.153517
	 B(1,2,4)         =         2.092659	     119.900529
	 B(2,3,5)         =         1.996808	     114.408658
	 B(2,3,6)         =         1.844517	     105.683026
	 B(2,3,7)         =         1.875432	     107.454317
	 B(3,2,4)         =         2.163190	     123.941666
	 B(3,5,8)         =         2.024384	     115.988654
	 B(3,5,9)         =         1.892177	     108.413748
	 B(3,5,10)        =         1.900521	     108.891850
	 B(5,3,6)         =         1.923054	     110.182883
	 B(5,3,7)         =         1.920916	     110.060362
	 B(5,8,11)        =         1.952938	     111.895106
	 B(5,8,12)        =         1.919536	     109.981293
	 B(5,8,13)        =         1.921646	     110.102221
	 B(6,3,7)         =         1.899486	     108.832521
	 B(8,5,9)         =         1.872723	     107.299151
	 B(8,5,10)        =         1.896233	     108.646162
	 B(8,11,14)       =         1.940725	     111.195377
	 B(8,11,15)       =         1.938961	     111.094294
	 B(8,11,16)       =         1.938912	     111.091489
	 B(9,5,10)        =         1.872208	     107.269633
	 B(11,8,12)       =         1.903781	     109.078611
	 B(11,8,13)       =         1.903232	     109.047161
	 B(12,8,13)       =         1.860261	     106.585088
	 B(14,11,15)      =         1.881132	     107.780950
	 B(14,11,16)      =         1.880612	     107.751102
	 B(15,11,16)      =         1.880861	     107.765414
	 D(1,2,3,5)       =        -1.246402	     -71.413599
	 D(1,2,3,6)       =         2.918029	     167.190719
	 D(1,2,3,7)       =         0.891915	      51.102947
	 D(2,3,5,8)       =         0.355795	      20.385547
	 D(2,3,5,9)       =         2.462891	     141.113284
	 D(2,3,5,10)      =        -1.788731	    -102.486728
	 D(3,5,8,11)      =         3.125458	     179.075544
	 D(3,5,8,12)      =         1.006675	      57.678234
	 D(3,5,8,13)      =        -1.038178	     -59.483209
	 D(4,2,3,5)       =         1.908390	     109.342700
	 D(4,2,3,6)       =        -0.210364	     -12.052982
	 D(4,2,3,7)       =        -2.236478	    -128.140754
	 D(5,8,11,14)     =        -1.048861	     -60.095280
	 D(5,8,11,15)     =         3.139181	     179.861812
	 D(5,8,11,16)     =         1.045592	      59.908006
	 D(6,3,5,8)       =         2.430760	     139.272298
	*D(6,3,5,9)       =        -1.745329	     -99.999965
	 D(6,3,5,10)      =         0.286234	      16.400023
	 D(7,3,5,8)       =        -1.757610	    -100.703618
	 D(7,3,5,9)       =         0.349487	      20.024118
	 D(7,3,5,10)      =         2.381050	     136.424107
	 D(9,5,8,11)      =         1.007942	      57.750821
	 D(9,5,8,12)      =        -1.110841	     -63.646488
	 D(9,5,8,13)      =         3.127492	     179.192068
	 D(10,5,8,11)     =        -1.010952	     -57.923305
	 D(10,5,8,12)     =        -3.129735	    -179.320614
	 D(10,5,8,13)     =         1.108597	      63.517942
	 D(12,8,11,14)    =         1.078986	      61.821336
	 D(12,8,11,15)    =        -1.016158	     -58.221572
	 D(12,8,11,16)    =        -3.109747	    -178.175378
	 D(13,8,11,14)    =         3.104191	     177.857070
	 D(13,8,11,15)    =         1.009047	      57.814162
	 D(13,8,11,16)    =        -1.084541	     -62.139644

	Current energy   :      -270.0123858798

	Energy change for the previous step:
		Projected    :         0.0000019386
		Actual       :        -0.0000001621

	Performing BFGS update.
	Previous computed or guess Hessian on step 1.
	Steps to be used in Hessian update: 9 8
	Taking RFO optimization step.
	Going to follow RFO solution 1.
	Rejecting RFO root 1 because normalization gives large value.
	Rejecting RFO root 2 because normalization gives large value.
	Rejecting RFO root 3 because normalization gives large value.
	Using RFO vector 4.
	Norm of target step-size    0.00245
	Projected energy change by RFO approximation:        -0.0000000174

	Back-transformation to cartesian coordinates...
	Successfully converged to displaced geometry.

	Back-transformation to cartesian coordinates to adjust frozen coordinates...
	Successfully converged to displaced geometry.

	--- Internal Coordinate Step in ANG or DEG, aJ/ANG or AJ/DEG ---
	 ---------------------------------------------------------------------------
	   Coordinate                Previous        Force       Change         New 
	   ----------                --------       ------       ------       ------
	    1 R(1,2)          =      1.094292     0.000001    -0.000002     1.094290
	    2 R(2,3)          =      1.511467    -0.000229    -0.000048     1.511419
	    3 R(2,4)          =      1.189066     0.000186     0.000012     1.189078
	    4 R(3,5)          =      1.553473     0.000242     0.000044     1.553517
	    5 R(3,6)          =      1.082759    -0.000009     0.000000     1.082759
	    6 R(3,7)          =      1.086709    -0.000014    -0.000002     1.086706
	    7 R(5,8)          =      1.534749    -0.000381    -0.000075     1.534674
	    8 R(5,9)          =      1.085536    -0.000038    -0.000003     1.085533
	    9 R(5,10)         =      1.084556     0.000026     0.000006     1.084561
	   10 R(8,11)         =      1.528054     0.000178     0.000034     1.528088
	   11 R(8,12)         =      1.087831     0.000036     0.000006     1.087837
	   12 R(8,13)         =      1.087209    -0.000018    -0.000002     1.087207
	   13 R(11,14)        =      1.086208    -0.000003    -0.000000     1.086207
	   14 R(11,15)        =      1.085146    -0.000020    -0.000003     1.085143
	   15 R(11,16)        =      1.086048     0.000011     0.000001     1.086048
	   16 B(1,2,3)        =    116.153517     0.000000     0.000739   116.154256
	   17 B(1,2,4)        =    119.900529     0.000000     0.000319   119.900849
	   18 B(2,3,5)        =    114.408658    -0.000001    -0.002794   114.405864
	   19 B(2,3,6)        =    105.683026     0.000001     0.000994   105.684020
	   20 B(2,3,7)        =    107.454317     0.000000     0.001415   107.455733
	   21 B(3,2,4)        =    123.941666    -0.000000    -0.001057   123.940609
	   22 B(3,5,8)        =    115.988654    -0.000001     0.000794   115.989448
	   23 B(3,5,9)        =    108.413748     0.000001     0.000270   108.414018
	   24 B(3,5,10)       =    108.891850     0.000000    -0.002283   108.889567
	   25 B(5,3,6)        =    110.182883     0.000000     0.000082   110.182965
	   26 B(5,3,7)        =    110.060362     0.000001    -0.001055   110.059307
	   27 B(5,8,11)       =    111.895106    -0.000001    -0.001609   111.893497
	   28 B(5,8,12)       =    109.981293     0.000000     0.000982   109.982275
	   29 B(5,8,13)       =    110.102221    -0.000000    -0.003574   110.098648
	   30 B(6,3,7)        =    108.832521    -0.000000     0.001659   108.834180
	   31 B(8,5,9)        =    107.299151    -0.000000     0.000873   107.300024
	   32 B(8,5,10)       =    108.646162    -0.000000    -0.000599   108.645563
	   33 B(8,11,14)      =    111.195377     0.000000    -0.000010   111.195368
	   34 B(8,11,15)      =    111.094294    -0.000000    -0.001748   111.092546
	   35 B(8,11,16)      =    111.091489     0.000001     0.001924   111.093413
	   36 B(9,5,10)       =    107.269633    -0.000000     0.001060   107.270693
	   37 B(11,8,12)      =    109.078611     0.000001     0.005041   109.083653
	   38 B(11,8,13)      =    109.047161     0.000000     0.000022   109.047182
	   39 B(12,8,13)      =    106.585088    -0.000000    -0.000750   106.584338
	   40 B(14,11,15)     =    107.780950     0.000000    -0.000503   107.780448
	   41 B(14,11,16)     =    107.751102    -0.000000     0.000447   107.751549
	   42 B(15,11,16)     =    107.765414    -0.000000    -0.000119   107.765294
	   43 D(1,2,3,5)      =    -71.413599     0.000000    -0.003537   -71.417136
	   44 D(1,2,3,6)      =    167.190719    -0.000000    -0.002646   167.188073
	   45 D(1,2,3,7)      =     51.102947     0.000000    -0.005694    51.097253
	   46 D(2,3,5,8)      =     20.385547    -0.000000    -0.001347    20.384200
	   47 D(2,3,5,9)      =    141.113284    -0.000000     0.000535   141.113818
	   48 D(2,3,5,10)     =   -102.486728     0.000000     0.000705  -102.486023
	   49 D(3,5,8,11)     =    179.075544     0.000000     0.006628   179.082172
	   50 D(3,5,8,12)     =     57.678234    -0.000000     0.000627    57.678862
	   51 D(3,5,8,13)     =    -59.483209     0.000000     0.003087   -59.480122
	   52 D(4,2,3,5)      =    109.342700     0.000000    -0.003710   109.338990
	   53 D(4,2,3,6)      =    -12.052982    -0.000000    -0.002819   -12.055801
	   54 D(4,2,3,7)      =   -128.140754     0.000000    -0.005867  -128.146621
	   55 D(5,8,11,14)    =    -60.095280    -0.000000    -0.050470   -60.145750
	   56 D(5,8,11,15)    =    179.861812    -0.000000    -0.048655   179.813157
	   57 D(5,8,11,16)    =     59.908006    -0.000000    -0.048621    59.859385
	   58 D(6,3,5,8)      =    139.272298     0.000000    -0.001881   139.270417
	   59 *D(6,3,5,9)     =    -99.999965     0.000000     0.000000   -99.999965
	   60 D(6,3,5,10)     =     16.400023     0.000000     0.000170    16.400193
	   61 D(7,3,5,8)      =   -100.703618     0.000000    -0.000443  -100.704061
	   62 D(7,3,5,9)      =     20.024118     0.000000     0.001438    20.025557
	   63 D(7,3,5,10)     =    136.424107     0.000000     0.001608   136.425715
	   64 D(9,5,8,11)     =     57.750821    -0.000000     0.005090    57.755911
	   65 D(9,5,8,12)     =    -63.646488    -0.000000    -0.000911   -63.647399
	   66 D(9,5,8,13)     =    179.192068    -0.000000     0.001549   179.193617
	   67 D(10,5,8,11)    =    -57.923305     0.000000     0.003695   -57.919610
	   68 D(10,5,8,12)    =   -179.320614    -0.000000    -0.002306  -179.322920
	   69 D(10,5,8,13)    =     63.517942     0.000000     0.000154    63.518096
	   70 D(12,8,11,14)   =     61.821336    -0.000000    -0.046815    61.774521
	   71 D(12,8,11,15)   =    -58.221572    -0.000000    -0.045000   -58.266572
	   72 D(12,8,11,16)   =   -178.175378    -0.000000    -0.044967  -178.220345
	   73 D(13,8,11,14)   =    177.857070     0.000000    -0.044910   177.812160
	   74 D(13,8,11,15)   =     57.814162     0.000000    -0.043095    57.771067
	   75 D(13,8,11,16)   =    -62.139644     0.000000    -0.043061   -62.182706
	 ---------------------------------------------------------------------------

  ==> Convergence Check <==

  Measures of convergence in internal coordinates in au.
  Criteria marked as inactive (o), active & met (*), and active & unmet ( ).
  ---------------------------------------------------------------------------------------------
   Step     Total Energy     Delta E     MAX Force     RMS Force      MAX Disp      RMS Disp   
  ---------------------------------------------------------------------------------------------
    Convergence Criteria    1.00e-06 *    3.00e-04 *             o    1.20e-03 *             o
  ---------------------------------------------------------------------------------------------
     10    -270.01238588   -1.62e-07 *    4.62e-05 *    8.92e-06 o    8.81e-04 *    2.83e-04 o  ~
  ---------------------------------------------------------------------------------------------


  **** Optimization is complete! (in 10 steps) ****

  ==> Optimization Summary <==

  Measures of convergence in internal coordinates in au.
  --------------------------------------------------------------------------------------------------------------- ~
   Step         Total Energy             Delta E       MAX Force       RMS Force        MAX Disp        RMS Disp  ~
  --------------------------------------------------------------------------------------------------------------- ~
      1    -270.008729186359   -270.008729186359      0.03058058      0.00671861      0.17182325      0.04296178  ~
      2    -270.009280190950     -0.000551004591      0.01862560      0.00401946      0.05110595      0.01443042  ~
      3    -270.011729364699     -0.002449173749      0.00817665      0.00174147      0.06535223      0.01442862  ~
      4    -270.012071531782     -0.000342167083      0.00499404      0.00103435      0.05840065      0.01442996  ~
      5    -270.011986398040      0.000085133742      0.00783060      0.00164159      0.04986984      0.01088678  ~
      6    -270.012329277037     -0.000342878997      0.00100035      0.00017783      0.04541032      0.01309743  ~
      7    -270.012359648969     -0.000030371931      0.00049316      0.00009849      0.11497732      0.03553480  ~
      8    -270.012343777987      0.000015870981      0.00052606      0.00016060      0.04124123      0.01647005  ~
      9    -270.012385717716     -0.000041939729      0.00005941      0.00001964      0.00357578      0.00112187  ~
     10    -270.012385879807     -0.000000162091      0.00004620      0.00000892      0.00088086      0.00028267  ~
  --------------------------------------------------------------------------------------------------------------- ~

	Writing optimization data to binary file.
	Final energy is   -270.0123858798074
	Final (previous) structure:
	Cartesian Geometry (in Angstrom)
	    H     0.5857745246   1.8412255134  -0.5921975467
	    C     1.0880645515   1.2146707605   0.1511785691
	    C     1.3186579071  -0.2271927972  -0.2391906592
	    O     1.4288216024   1.6841091303   1.1891526830
	    C     0.0308801365  -1.0950957207  -0.2798109737
	    H     2.0118956523  -0.6214224580   0.4931826137
	    H     1.7996847959  -0.2281300859  -1.2136383611
	    C    -1.2927151361  -0.3289053763  -0.4082671831
	    H     0.0977943816  -1.7684068104  -1.1286711851
	    H    -0.0082809668  -1.7073937978   0.6145148540
	    C    -2.4940007029  -1.2717521726  -0.4621502210
	    H    -1.2815116080   0.2844334528  -1.3066355977
	    H    -1.4133470363   0.3518693881   0.4307901290
	    H    -2.4274553110  -1.9444166578  -1.3124100335
	    H    -3.4223462656  -0.7168498874  -0.5504668304
	    H    -2.5549835971  -1.8788012665   0.4363330512
	Saving final (previous) structure.
			--------------------------
			 OPTKING Finished Execution 
			--------------------------

    Final optimized geometry and variables:
    Molecular point group: c1
    Full point group: C1

    Geometry (in Angstrom), charge = 0, multiplicity = 1:

    H            0.585774479870     1.841225372759    -0.592197501477
    C            1.088064468458     1.214670667761     0.151178557579
    C            1.318657806366    -0.227192779814    -0.239190640916
    O            1.428821493264     1.684109001699     1.189152592162
    C            0.030880134179    -1.095095637032    -0.279810952308
    H            2.011895498685    -0.621422410499     0.493182576034
    H            1.799684658435    -0.228130068489    -1.213638268392
    C           -1.292715037403    -0.328905351220    -0.408267151891
    H            0.097794374164    -1.768406675401    -1.128671098881
    H           -0.008280966159    -1.707393667399     0.614514807104
    C           -2.494000512439    -1.271752075516    -0.462150185678
    H           -1.281511510107     0.284433431096    -1.306635497942
    H           -1.413346928409     0.351869361218     0.430790096070
    H           -2.427455125677    -1.944416509312    -1.312409933287
    H           -3.422346004279    -0.716849832629    -0.550466788397
    H           -2.554983401948    -1.878801122985     0.436333017877

	Cleaning optimization helper files.


Properties will be evaluated at   0.000000,   0.000000,   0.000000 Bohr

Properties computed using the  density matrix

  Nuclear Dipole Moment: (a.u.)
     X:    -6.1924      Y:    -5.9804      Z:    -3.8653

  Electronic Dipole Moment: (a.u.)
     X:     5.7986      Y:     5.3130      Z:     2.9187

  Dipole Moment: (a.u.)
     X:    -0.3938      Y:    -0.6674      Z:    -0.9465     Total:     1.2233

  Dipole Moment: (Debye)
     X:    -1.0010      Y:    -1.6963      Z:    -2.4059     Total:     3.1093

  Quadrupole Moment: (Debye Ang)
    XX:   -39.8539     YY:   -41.8186     ZZ:   -40.7980
    XY:    -3.0820     XZ:    -3.6935     YZ:    -4.4877

  Traceless Quadrupole Moment: (Debye Ang)
    XX:     0.9696     YY:    -0.9951     ZZ:     0.0255
    XY:    -3.0820     XZ:    -3.6935     YZ:    -4.4877

  Mulliken Charges: (a.u.)
   Center  Symbol    Alpha    Beta     Spin     Total
       1     H     0.42943  0.42943  0.00000  0.14114
       2     C     2.83723  2.83723  0.00000  0.32554
       3     C     3.20948  3.20948  0.00000 -0.41896
       4     O     4.23719  4.23719  0.00000 -0.47439
       5     C     3.15579  3.15579  0.00000 -0.31159
       6     H     0.39752  0.39752  0.00000  0.20496
       7     H     0.41089  0.41089  0.00000  0.17821
       8     C     3.16602  3.16602  0.00000 -0.33205
       9     H     0.41559  0.41559  0.00000  0.16881
      10     H     0.41086  0.41086  0.00000  0.17827
      11     C     3.23957  3.23957  0.00000 -0.47915
      12     H     0.42130  0.42130  0.00000  0.15740
      13     H     0.41437  0.41437  0.00000  0.17126
      14     H     0.42036  0.42036  0.00000  0.15928
      15     H     0.41575  0.41575  0.00000  0.16850
      16     H     0.41862  0.41862  0.00000  0.16276

   Total alpha = 24.00000, Total beta = 24.00000, Total charge =  0.00000


*** PSI4 exiting successfully. Buy a developer a beer!
