    -----------------------------------------------------------------------
          Psi4: An Open-Source Ab Initio Electronic Structure Package
                              Psi4 (no tag) Driver

                          Git: Rev {detached?}  

    J. M. Turney, A. C. Simmonett, R. M. Parrish, E. G. Hohenstein,
    F. A. Evangelista, J. T. Fermann, B. J. Mintz, L. A. Burns, J. J. Wilke,
    M. L. Abrams, N. J. Russ, M. L. Leininger, C. L. Janssen, E. T. Seidl,
    W. D. Allen, H. F. Schaefer, R. A. King, E. F. Valeev, C. D. Sherrill,
    and T. D. Crawford, WIREs Comput. Mol. Sci. 2, 556-565 (2012)
    (doi: 10.1002/wcms.93)

                         Additional Contributions by
    A. E. DePrince, M. Saitow, U. Bozkaya, A. Yu. Sokolov
    -----------------------------------------------------------------------


    Psi4 started on: Fri Sep  2 13:50:35 2016

    Process ID:  23707
    PSI4DATADIR: /export131/home/mjharvey/miniconda3/share
    Memory level set to 256.000 MB

  ==> Input File <==

--------------------------------------------------------------------------
set {
	reference rhf
	basis 6-31G*
}


set_num_threads( 4 )
memory 2 gb

molecule MOL {
0 1

H	 -2.646374	 -0.642757	 1.268656
C	 -2.083525	 -0.384536	 0.393091
O	 -0.807605	 -0.127164	 0.768327
F	 -2.118945	 -1.383102	 -0.486752
F	 -2.621877	 0.670592	 -0.209486
C	 0.084052	 0.273579	 -0.209957
C	 1.353033	 -0.546803	 -0.018071
Cl	 0.433844	 2.004619	 -0.074457
H	 -0.288836	 0.092657	 -1.202930
F	 1.862832	 -0.884087	 -1.183611
F	 1.049086	 -1.652942	 0.631167
F	 2.262010	 0.101276	 0.668754

	symmetry c1
}
set optking {
	frozen_dihedral = ("
		10 7 6 9
	")
}

ee = optimize('scf')
oeprop('DIPOLE', 'QUADRUPOLE', 'MULLIKEN_CHARGES')
f=open( 'psi4out.xyz', 'w' )
f.write( "12  " )
f.write( str(ee) + "\n" )
f.write( MOL.save_string_xyz() )
f.close()
--------------------------------------------------------------------------

  Memory set to   2.000 GiB by Python script.
gradient() will perform analytic gradient computation.

*** tstart() called on cx1-1-3-2.cx1.hpc.ic.ac.uk
*** at Fri Sep  2 13:50:35 2016


         ---------------------------------------------------------
                                   SCF
            by Justin Turney, Rob Parrish, and Andy Simmonett
                              RHF Reference
                        4 Threads,   2000 MiB Core
         ---------------------------------------------------------

  ==> Geometry <==

    Molecular point group: c1
    Full point group: C1

    Geometry (in Angstrom), charge = 0, multiplicity = 1:

       Center              X                  Y                   Z               Mass       
    ------------   -----------------  -----------------  -----------------  -----------------
           H         -2.645103793101    -0.641701155058     1.264769857405     1.007825032070
           C         -2.082254793101    -0.383480155058     0.389204857405    12.000000000000
           O         -0.806334793101    -0.126108155058     0.764440857405    15.994914619560
           F         -2.117674793101    -1.382046155058    -0.490638142595    18.998403224000
           F         -2.620606793101     0.671647844942    -0.213372142595    18.998403224000
           C          0.085322206899     0.274634844942    -0.213843142595    12.000000000000
           C          1.354303206899    -0.545747155058    -0.021957142595    12.000000000000
          CL          0.435114206899     2.005674844942    -0.078343142595    34.968852682000
           H         -0.287565793101     0.093712844942    -1.206816142595     1.007825032070
           F          1.864102206899    -0.883031155058    -1.187497142595    18.998403224000
           F          1.050356206899    -1.651886155058     0.627280857405    18.998403224000
           F          2.263280206899     0.102331844942     0.664867857405    18.998403224000

  Running in c1 symmetry.

  Rotational constants: A =      0.05230  B =      0.03003  C =      0.02225 [cm^-1]
  Rotational constants: A =   1567.89536  B =    900.23012  C =    667.05966 [MHz]
  Nuclear repulsion =  738.855784985426226

  Charge       = 0
  Multiplicity = 1
  Electrons    = 90
  Nalpha       = 45
  Nbeta        = 45

  ==> Algorithm <==

  SCF Algorithm Type is DF.
  DIIS enabled.
  MOM disabled.
  Fractional occupation disabled.
  Guess Type is CORE.
  Energy threshold   = 1.00e-08
  Density threshold  = 1.00e-08
  Integral threshold = 0.00e+00

  ==> Primary Basis <==

  Basis Set: 6-31G*
    Number of shells: 66
    Number of basis function: 158
    Number of Cartesian functions: 158
    Spherical Harmonics?: false
    Max angular momentum: 2

  ==> Pre-Iterations <==

   -------------------------------------------------------
    Irrep   Nso     Nmo     Nalpha   Nbeta   Ndocc  Nsocc
   -------------------------------------------------------
     A        158     158       0       0       0       0
   -------------------------------------------------------
    Total     158     158      45      45      45       0
   -------------------------------------------------------

 OEINTS: Overlap, kinetic, potential, dipole, and quadrupole integrals
         stored in file 35.

  ==> Integral Setup <==

  ==> DFJK: Density-Fitted J/K Matrices <==

    J tasked:                  Yes
    K tasked:                  Yes
    wK tasked:                  No
    OpenMP threads:              4
    Integrals threads:           4
    Memory (MB):              1430
    Algorithm:                Core
    Integral Cache:           NONE
    Schwarz Cutoff:          1E-12
    Fitting Condition:       1E-12

   => Auxiliary Basis Set <=

  Basis Set: 
    Number of shells: 270
    Number of basis function: 909
    Number of Cartesian functions: 909
    Spherical Harmonics?: false
    Max angular momentum: 3

  Minimum eigenvalue in the overlap matrix is 1.5675034356E-03.
  Using Symmetric Orthogonalization.
  SCF Guess: Core (One-Electron) Hamiltonian.

  ==> Iterations <==

                           Total Energy        Delta E     RMS |[F,P]|

   @DF-RHF iter   1: -1049.22847328941657   -1.04923e+03   6.74573e-02 
   @DF-RHF iter   2:  -722.39579661977746    3.26833e+02   8.03092e-02 DIIS
   @DF-RHF iter   3:  -957.96746223920695   -2.35572e+02   7.52408e-02 DIIS
   @DF-RHF iter   4: -1125.27015328601033   -1.67303e+02   3.06860e-02 DIIS
   @DF-RHF iter   5: -1118.07786993259174    7.19228e+00   3.90037e-02 DIIS
   @DF-RHF iter   6: -1141.49978860312217   -2.34219e+01   1.68390e-02 DIIS
   @DF-RHF iter   7: -1145.90241085697130   -4.40262e+00   6.48935e-03 DIIS
   @DF-RHF iter   8: -1146.27546079633544   -3.73050e-01   1.57265e-03 DIIS
   @DF-RHF iter   9: -1146.30034609988047   -2.48853e-02   6.77499e-04 DIIS
   @DF-RHF iter  10: -1146.30562916270469   -5.28306e-03   1.52185e-04 DIIS
   @DF-RHF iter  11: -1146.30590714116966   -2.77978e-04   4.73343e-05 DIIS
   @DF-RHF iter  12: -1146.30595139856973   -4.42574e-05   1.39778e-05 DIIS
   @DF-RHF iter  13: -1146.30595514719039   -3.74862e-06   4.77990e-06 DIIS
   @DF-RHF iter  14: -1146.30595548509268   -3.37902e-07   1.64328e-06 DIIS
   @DF-RHF iter  15: -1146.30595552138197   -3.62893e-08   5.39567e-07 DIIS
   @DF-RHF iter  16: -1146.30595552557475   -4.19277e-09   1.18892e-07 DIIS
   @DF-RHF iter  17: -1146.30595552586601   -2.91266e-10   3.90517e-08 DIIS
   @DF-RHF iter  18: -1146.30595552589534   -2.93312e-11   1.47587e-08 DIIS
   @DF-RHF iter  19: -1146.30595552590148   -6.13909e-12   3.72171e-09 DIIS

  ==> Post-Iterations <==

    Orbital Energies (a.u.)
    -----------------------

    Doubly Occupied:                                                      

       1A   -104.842765     2A    -26.361775     3A    -26.357379  
       4A    -26.353867     5A    -26.345678     6A    -26.345093  
       7A    -20.645702     8A    -11.527082     9A    -11.488313  
      10A    -11.399041    11A    -10.577493    12A     -8.046839  
      13A     -8.043325    14A     -8.043183    15A     -1.760873  
      16A     -1.716915    17A     -1.659006    18A     -1.654165  
      19A     -1.637664    20A     -1.483468    21A     -1.179120  
      22A     -1.051424    23A     -0.985883    24A     -0.918045  
      25A     -0.860386    26A     -0.851805    27A     -0.844344  
      28A     -0.821802    29A     -0.811377    30A     -0.790880  
      31A     -0.728523    32A     -0.726861    33A     -0.704764  
      34A     -0.699410    35A     -0.679170    36A     -0.675117  
      37A     -0.657143    38A     -0.656449    39A     -0.645850  
      40A     -0.625657    41A     -0.596241    42A     -0.577280  
      43A     -0.523062    44A     -0.475858    45A     -0.468010  

    Virtual:                                                              

      46A      0.171163    47A      0.238018    48A      0.259380  
      49A      0.278871    50A      0.348033    51A      0.362632  
      52A      0.400298    53A      0.427475    54A      0.448726  
      55A      0.477966    56A      0.492529    57A      0.550264  
      58A      0.618399    59A      0.630465    60A      0.642562  
      61A      0.670699    62A      0.705647    63A      0.708980  
      64A      0.742272    65A      0.760250    66A      0.764592  
      67A      0.786310    68A      0.850843    69A      0.933749  
      70A      0.976172    71A      0.981592    72A      1.058286  
      73A      1.071041    74A      1.104090    75A      1.137313  
      76A      1.176101    77A      1.203480    78A      1.243644  
      79A      1.279287    80A      1.291087    81A      1.313513  
      82A      1.327255    83A      1.375819    84A      1.385496  
      85A      1.396411    86A      1.435216    87A      1.457268  
      88A      1.518215    89A      1.573997    90A      1.597823  
      91A      1.610118    92A      1.631875    93A      1.636224  
      94A      1.647439    95A      1.648185    96A      1.657270  
      97A      1.668451    98A      1.673155    99A      1.692324  
     100A      1.751233   101A      1.766311   102A      1.813452  
     103A      1.915368   104A      1.952673   105A      1.963127  
     106A      1.995352   107A      2.011637   108A      2.042546  
     109A      2.083292   110A      2.092741   111A      2.099996  
     112A      2.127175   113A      2.137450   114A      2.143201  
     115A      2.184241   116A      2.251393   117A      2.274332  
     118A      2.286979   119A      2.294892   120A      2.306399  
     121A      2.340345   122A      2.355196   123A      2.396297  
     124A      2.399879   125A      2.404171   126A      2.418063  
     127A      2.450076   128A      2.510255   129A      2.571541  
     130A      2.603241   131A      2.652189   132A      2.708019  
     133A      2.729268   134A      2.816544   135A      2.839241  
     136A      2.888551   137A      2.999263   138A      3.027689  
     139A      3.115845   140A      3.176391   141A      3.196194  
     142A      3.289034   143A      3.301609   144A      3.398761  
     145A      3.418572   146A      3.423626   147A      3.441830  
     148A      3.464971   149A      4.357303   150A      4.523099  
     151A      4.586539   152A      4.713563   153A      4.729900  
     154A      4.883817   155A      4.954497   156A      5.095805  
     157A      5.750777   158A      5.943474  

    Final Occupation by Irrep:
              A 
    DOCC [    45 ]

  Energy converged.

  @DF-RHF Final Energy: -1146.30595552590148

   => Energetics <=

    Nuclear Repulsion Energy =            738.8557849854262258
    One-Electron Energy =               -3060.6353005306114028
    Two-Electron Energy =                1175.4735600192839229
    DFT Exchange-Correlation Energy =       0.0000000000000000
    Empirical Dispersion Energy =           0.0000000000000000
    PCM Polarization Energy =               0.0000000000000000
    EFP Energy =                            0.0000000000000000
    Total Energy =                      -1146.3059555259010267

    Alert: EFP and PCM quantities not currently incorporated into SCF psivars.

Properties will be evaluated at   0.000000,   0.000000,   0.000000 Bohr
  ==> Properties <==


Properties computed using the SCF density matrix

  Nuclear Dipole Moment: (a.u.)
     X:    -3.5660      Y:     0.6146      Z:     0.6951

  Electronic Dipole Moment: (a.u.)
     X:     2.9854      Y:    -0.8165      Z:    -0.6509

  Dipole Moment: (a.u.)
     X:    -0.5807      Y:    -0.2019      Z:     0.0442     Total:     0.6164

  Dipole Moment: (Debye)
     X:    -1.4760      Y:    -0.5132      Z:     0.1124     Total:     1.5667


  Saving occupied orbitals to File 180.

*** tstop() called on cx1-1-3-2.cx1.hpc.ic.ac.uk at Fri Sep  2 13:50:43 2016
Module time:
	user time   =      25.56 seconds =       0.43 minutes
	system time =       0.42 seconds =       0.01 minutes
	total time  =          8 seconds =       0.13 minutes
Total time:
	user time   =      25.56 seconds =       0.43 minutes
	system time =       0.42 seconds =       0.01 minutes
	total time  =          8 seconds =       0.13 minutes

*** tstart() called on cx1-1-3-2.cx1.hpc.ic.ac.uk
*** at Fri Sep  2 13:50:43 2016


         ------------------------------------------------------------
                                   SCF GRAD                          
                          Rob Parrish, Justin Turney,                
                       Andy Simmonett, and Alex Sokolov              
         ------------------------------------------------------------

  ==> Geometry <==

    Molecular point group: c1
    Full point group: C1

    Geometry (in Angstrom), charge = 0, multiplicity = 1:

       Center              X                  Y                   Z               Mass       
    ------------   -----------------  -----------------  -----------------  -----------------
           H         -2.645103793101    -0.641701155058     1.264769857405     1.007825032070
           C         -2.082254793101    -0.383480155058     0.389204857405    12.000000000000
           O         -0.806334793101    -0.126108155058     0.764440857405    15.994914619560
           F         -2.117674793101    -1.382046155058    -0.490638142595    18.998403224000
           F         -2.620606793101     0.671647844942    -0.213372142595    18.998403224000
           C          0.085322206899     0.274634844942    -0.213843142595    12.000000000000
           C          1.354303206899    -0.545747155058    -0.021957142595    12.000000000000
          CL          0.435114206899     2.005674844942    -0.078343142595    34.968852682000
           H         -0.287565793101     0.093712844942    -1.206816142595     1.007825032070
           F          1.864102206899    -0.883031155058    -1.187497142595    18.998403224000
           F          1.050356206899    -1.651886155058     0.627280857405    18.998403224000
           F          2.263280206899     0.102331844942     0.664867857405    18.998403224000

  Nuclear repulsion =  738.855784985426226

  ==> Basis Set <==

  Basis Set: 6-31G*
    Number of shells: 66
    Number of basis function: 158
    Number of Cartesian functions: 158
    Spherical Harmonics?: false
    Max angular momentum: 2

  ==> DFJKGrad: Density-Fitted SCF Gradients <==

    Gradient:                    1
    J tasked:                  Yes
    K tasked:                  Yes
    wK tasked:                  No
    OpenMP threads:              4
    Integrals threads:           4
    Memory (MB):              1430
    Schwarz Cutoff:          0E+00
    Fitting Condition:       1E-12

   => Auxiliary Basis Set <=

  Basis Set: 
    Number of shells: 270
    Number of basis function: 909
    Number of Cartesian functions: 909
    Spherical Harmonics?: false
    Max angular momentum: 3


  -Total Gradient:
     Atom            X                  Y                   Z
    ------   -----------------  -----------------  -----------------
       1        0.000005559496     0.000112059809     0.000080470332
       2       -0.001460576265    -0.001359804126    -0.000984344378
       3        0.005843920053    -0.006673099647     0.000977498099
       4       -0.000136420285     0.000461163510     0.000479062628
       5        0.000591432785    -0.000005305428     0.000293065115
       6        0.006750901821    -0.002934757959     0.001406824940
       7       -0.001146727266     0.007088939521    -0.010183135329
       8        0.003747224133    -0.001787720145     0.003268161205
       9        0.001439841497    -0.000156242999    -0.000904367449
      10       -0.001950495180    -0.002668470990     0.001688537186
      11       -0.008798253502     0.001844074889     0.004334103207
      12       -0.004886407267     0.006079163573    -0.000455875561


*** tstop() called on cx1-1-3-2.cx1.hpc.ic.ac.uk at Fri Sep  2 13:50:50 2016
Module time:
	user time   =      26.71 seconds =       0.45 minutes
	system time =       0.25 seconds =       0.00 minutes
	total time  =          7 seconds =       0.12 minutes
Total time:
	user time   =      52.29 seconds =       0.87 minutes
	system time =       0.67 seconds =       0.01 minutes
	total time  =         15 seconds =       0.25 minutes
CURRENT ENERGY: -1146.3059555259

			-----------------------------------------
			 OPTKING 2.0: for geometry optimizations 
			  - R.A. King,  Bethel University        
			-----------------------------------------

	Internal coordinates to be generated automatically.
	Detected frag with atoms:  1 2 3 4 5 6 7 8 9 10 11 12
	---Fragment 1 Bond Connectivity---
	 1 : 2
	 2 : 1 3 4 5
	 3 : 2 6
	 4 : 2
	 5 : 2
	 6 : 3 7 8 9
	 7 : 6 10 11 12
	 8 : 6
	 9 : 6
	 10 : 7
	 11 : 7
	 12 : 7

	Assuming in current code that numbering for constraints corresponds to unified fragment.
	Frozen dihedral atom list: 
	    10     7     6     9
	---Fragment 1 Geometry and Gradient---
	 H          -4.9985217620       -1.2126394422        2.3900686516
	 C          -3.9348912978       -0.7246724705        0.7354905901
	 O          -1.5237519304       -0.2383098762        1.4445838653
	 F          -4.0018253975       -2.6116887361       -0.9271717199
	 F          -4.9522291409        1.2692304847       -0.4032149139
	 C           0.1612356041        0.5189846435       -0.4041049749
	 C           2.5592621619       -1.0313126609       -0.0414929862
	 CL          0.8222466876        3.7901761686       -0.1480470839
	 H          -0.5434205941        0.1770916121       -2.2805520022
	 F           3.5226426547       -1.6686870499       -2.2440443831
	 F           1.9848855730       -3.1216124358        1.1853890289
	 F           4.2769797530        0.1933791616        1.2564181651
	             0.0000055595        0.0001120598        0.0000804703
	            -0.0014605763       -0.0013598041       -0.0009843444
	             0.0058439201       -0.0066730996        0.0009774981
	            -0.0001364203        0.0004611635        0.0004790626
	             0.0005914328       -0.0000053054        0.0002930651
	             0.0067509018       -0.0029347580        0.0014068249
	            -0.0011467273        0.0070889395       -0.0101831353
	             0.0037472241       -0.0017877201        0.0032681612
	             0.0014398415       -0.0001562430       -0.0009043674
	            -0.0019504952       -0.0026684710        0.0016885372
	            -0.0087982535        0.0018440749        0.0043341032
	            -0.0048864073        0.0060791636       -0.0004558756

	Previous optimization step data not found.  Starting new optimization.

	---Fragment 1 Intrafragment Coordinates---
	 - Coordinate -           - BOHR/RAD -       - ANG/DEG -
	 R(1,2)           =         2.026586	       1.072423
	 R(2,3)           =         2.559874	       1.354627
	 R(2,4)           =         2.515901	       1.331357
	 R(2,5)           =         2.511429	       1.328991
	 R(3,6)           =         2.613490	       1.382999
	 R(6,7)           =         2.878444	       1.523207
	 R(6,8)           =         3.347117	       1.771218
	 R(6,9)           =         2.033343	       1.075999
	 R(7,10)          =         2.487083	       1.316108
	 R(7,11)          =         2.490884	       1.318119
	 R(7,12)          =         2.476893	       1.310715
	 B(1,2,3)         =         1.890132	     108.296610
	 B(1,2,4)         =         1.923027	     110.181343
	 B(1,2,5)         =         1.927024	     110.410365
	 B(2,3,6)         =         2.055989	     117.799465
	 B(3,2,4)         =         1.929032	     110.525385
	 B(3,2,5)         =         1.935101	     110.873139
	 B(3,6,7)         =         1.867059	     106.974574
	 B(3,6,8)         =         1.935210	     110.879373
	 B(3,6,9)         =         1.961274	     112.372735
	 B(4,2,5)         =         1.859865	     106.562404
	 B(6,7,10)        =         1.927478	     110.436361
	 B(6,7,11)        =         1.898549	     108.778855
	 B(6,7,12)        =         1.957848	     112.176407
	 B(7,6,8)         =         1.930726	     110.622445
	 B(7,6,9)         =         1.890626	     108.324905
	 B(8,6,9)         =         1.879020	     107.659905
	 B(10,7,11)       =         1.886473	     108.086956
	 B(10,7,12)       =         1.898790	     108.792676
	 B(11,7,12)       =         1.893092	     108.466188
	 D(1,2,3,6)       =        -3.103417	    -177.812700
	 D(2,3,6,7)       =        -2.327932	    -133.380699
	 D(2,3,6,8)       =         1.848610	     105.917562
	 D(2,3,6,9)       =        -0.255195	     -14.621614
	 D(3,6,7,10)      =         2.467094	     141.354085
	 D(3,6,7,11)      =         0.399472	      22.888086
	 D(3,6,7,12)      =        -1.694777	     -97.103564
	 D(4,2,3,6)       =         1.071709	      61.404382
	 D(5,2,3,6)       =        -0.986710	     -56.534297
	 D(8,6,7,10)      =        -1.706596	     -97.780769
	 D(8,6,7,11)      =         2.508967	     143.753232
	 D(8,6,7,12)      =         0.414718	      23.761582
	*D(9,6,7,10)      =         0.349066	      20.000025
	 D(9,6,7,11)      =        -1.718555	     -98.465974
	 D(9,6,7,12)      =         2.470380	     141.542376
	 R(5,8)           =         6.305938	       3.336959

	Current energy   :     -1146.3059555259

	Generating empirical Hessian (Schlegel '84) for each fragment.
	Taking RFO optimization step.
	Going to follow RFO solution 1.
	Using RFO vector 1.
	Norm of target step-size    0.27327
	Projected energy change by RFO approximation:        -0.0100669248

	Back-transformation to cartesian coordinates...
	Successfully converged to displaced geometry.

	Back-transformation to cartesian coordinates to adjust frozen coordinates...
	Successfully converged to displaced geometry.

	--- Internal Coordinate Step in ANG or DEG, aJ/ANG or AJ/DEG ---
	 ---------------------------------------------------------------------------
	   Coordinate                Previous        Force       Change         New 
	   ----------                --------       ------       ------       ------
	    1 R(1,2)          =      1.072423    -0.000295    -0.000050     1.072373
	    2 R(2,3)          =      1.354627     0.002218    -0.000374     1.354253
	    3 R(2,4)          =      1.331357     0.005428     0.000582     1.331940
	    4 R(2,5)          =      1.328991     0.003975     0.000380     1.329371
	    5 R(3,6)          =      1.382999     0.011198     0.000949     1.383948
	    6 R(6,7)          =      1.523207     0.174749     0.036480     1.559688
	    7 R(6,8)          =      1.771218     0.013207     0.002127     1.773346
	    8 R(6,9)          =      1.075999    -0.002981    -0.000515     1.075484
	    9 R(7,10)         =      1.316108     0.012910     0.001303     1.317411
	   10 R(7,11)         =      1.318119    -0.021553    -0.002194     1.315925
	   11 R(7,12)         =      1.310715     0.005123     0.000506     1.311221
	   12 B(1,2,3)        =    108.296610    -0.000045    -0.084185   108.212425
	   13 B(1,2,4)        =    110.181343    -0.000021    -0.126368   110.054975
	   14 B(1,2,5)        =    110.410365    -0.000084    -0.120369   110.289996
	   15 B(2,3,6)        =    117.799465     0.000210     0.256777   118.056242
	   16 B(3,2,4)        =    110.525385    -0.000077    -0.176954   110.348431
	   17 B(3,2,5)        =    110.873139     0.000301     0.607999   111.481138
	   18 B(3,6,7)        =    106.974574     0.000934     4.182879   111.157453
	   19 B(3,6,8)        =    110.879373    -0.000458    -1.055021   109.824353
	   20 B(3,6,9)        =    112.372735    -0.000217     0.508740   112.881474
	   21 B(4,2,5)        =    106.562404    -0.000075    -0.103431   106.458972
	   22 B(6,7,10)       =    110.436361    -0.000512    -2.004693   108.431669
	   23 B(6,7,11)       =    108.778855     0.001104     3.102724   111.881579
	   24 B(6,7,12)       =    112.176407     0.000891     3.148065   115.324471
	   25 B(7,6,8)        =    110.622445     0.000221     1.191589   111.814033
	   26 B(7,6,9)        =    108.324905    -0.000301    -1.120245   107.204660
	   27 B(8,6,9)        =    107.659905    -0.000170    -3.918479   103.741426
	   28 B(10,7,11)      =    108.086956    -0.000428    -2.484615   105.602341
	   29 B(10,7,12)      =    108.792676    -0.000342    -0.846973   107.945703
	   30 B(11,7,12)      =    108.466188    -0.000765    -1.307802   107.158386
	   31 D(1,2,3,6)      =   -177.812700    -0.000016    -0.631173  -178.443873
	   32 D(2,3,6,7)      =   -133.380699     0.000055     2.463889  -130.916810
	   33 D(2,3,6,8)      =    105.917562    -0.000080    -1.103251   104.814311
	   34 D(2,3,6,9)      =    -14.621614     0.000078     4.208272   -10.413343
	   35 D(3,6,7,10)     =    141.354085     0.000025     2.446072   143.800156
	   36 D(3,6,7,11)     =     22.888086     0.000060     4.848895    27.736981
	   37 D(3,6,7,12)     =    -97.103564    -0.000018     2.035987   -95.067577
	   38 D(4,2,3,6)      =     61.404382     0.000007    -0.316466    61.087916
	   39 D(5,2,3,6)      =    -56.534297    -0.000004    -0.457102   -56.991398
	   40 D(8,6,7,10)     =    -97.780769     0.000060     4.715367   -93.065402
	   41 D(8,6,7,11)     =    143.753232     0.000095     7.118191   150.871423
	   42 D(8,6,7,12)     =     23.761582     0.000017     4.305283    28.066865
	   43 *D(9,6,7,10)    =     20.000025    -0.000000    -0.000000    20.000025
	   44 D(9,6,7,11)     =    -98.465974     0.000035     2.402823   -96.063151
	   45 D(9,6,7,12)     =    141.542376    -0.000043    -0.410084   141.132291
	   46 R(5,8)          =      3.336959    -0.012128    -0.015553     3.321406
	 ---------------------------------------------------------------------------

  ==> Convergence Check <==

  Measures of convergence in internal coordinates in au.
  Criteria marked as inactive (o), active & met (*), and active & unmet ( ).
  --------------------------------------------------------------------------------------------- ~
   Step     Total Energy     Delta E     MAX Force     RMS Force      MAX Disp      RMS Disp    ~
  --------------------------------------------------------------------------------------------- ~
    Convergence Criteria    1.00e-06 *    3.00e-04 *             o    1.20e-03 *             o  ~
  --------------------------------------------------------------------------------------------- ~
      1   -1146.30595553   -1.15e+03      2.12e-02      5.48e-03 o    1.24e-01      4.03e-02 o  ~
  ---------------------------------------------------------------------------------------------

	Writing optimization data to binary file.
	Structure for next step:
	Cartesian Geometry (in Angstrom)
	    H    -2.7057526575  -0.5807959979   1.2595722364
	    C    -2.1171033983  -0.3607979866   0.3906209777
	    O    -0.8548496095  -0.0815823421   0.7940495598
	    F    -2.1185025240  -1.4035942814  -0.4380145666
	    F    -2.6492831522   0.6551527943  -0.2815821013
	    C     0.0749850066   0.2655528300  -0.1704282004
	    C     1.3902978340  -0.5563512508  -0.0059558900
	   CL     0.3776752464   2.0119314021  -0.1130260821
	    H    -0.2800494131   0.1005982119  -1.1721299976
	    F     1.8692516938  -0.8201482485  -1.2045326530
	    F     1.1703113261  -1.7272433248   0.5528618861
	    F     2.3359568626   0.0312801448   0.6866621427
			--------------------------
			 OPTKING Finished Execution 
			--------------------------

    Structure for next step:
    Molecular point group: c1
    Full point group: C1

    Geometry (in Angstrom), charge = 0, multiplicity = 1:

    H           -2.707103694710    -0.573868929363     1.268264118143
    C           -2.118454480416    -0.353870934884     0.399312925829
    O           -0.856200788051    -0.074655311732     0.802741477100
    F           -2.119853606048    -1.396667150038    -0.429322555180
    F           -2.650634193764     0.662079768480    -0.272890101863
    C            0.073633757052     0.272479833876    -0.161736209393
    C            1.388946484027    -0.549424184139     0.002736088381
    CL           0.376323973767     2.018858272642    -0.104334095520
    H           -0.281400635577     0.107525228349    -1.163437930096
    F            1.867900307239    -0.813221161687    -1.195840583091
    F            1.168959992950    -1.720316168734     0.561553821830
    F            2.334605440382     0.038207166587     0.695354068225

gradient() will perform analytic gradient computation.

*** tstart() called on cx1-1-3-2.cx1.hpc.ic.ac.uk
*** at Fri Sep  2 13:50:51 2016


         ---------------------------------------------------------
                                   SCF
            by Justin Turney, Rob Parrish, and Andy Simmonett
                              RHF Reference
                        4 Threads,   2000 MiB Core
         ---------------------------------------------------------

  ==> Geometry <==

    Molecular point group: c1
    Full point group: C1

    Geometry (in Angstrom), charge = 0, multiplicity = 1:

       Center              X                  Y                   Z               Mass       
    ------------   -----------------  -----------------  -----------------  -----------------
           H         -2.707103694710    -0.573868929363     1.268264118143     1.007825032070
           C         -2.118454480416    -0.353870934884     0.399312925829    12.000000000000
           O         -0.856200788051    -0.074655311732     0.802741477100    15.994914619560
           F         -2.119853606048    -1.396667150038    -0.429322555180    18.998403224000
           F         -2.650634193764     0.662079768480    -0.272890101863    18.998403224000
           C          0.073633757052     0.272479833876    -0.161736209393    12.000000000000
           C          1.388946484027    -0.549424184139     0.002736088381    12.000000000000
          CL          0.376323973767     2.018858272642    -0.104334095520    34.968852682000
           H         -0.281400635577     0.107525228349    -1.163437930096     1.007825032070
           F          1.867900307239    -0.813221161687    -1.195840583091    18.998403224000
           F          1.168959992950    -1.720316168734     0.561553821830    18.998403224000
           F          2.334605440382     0.038207166587     0.695354068225    18.998403224000

  Running in c1 symmetry.

  Rotational constants: A =      0.05178  B =      0.02908  C =      0.02164 [cm^-1]
  Rotational constants: A =   1552.33443  B =    871.81291  C =    648.61859 [MHz]
  Nuclear repulsion =  732.014968040952908

  Charge       = 0
  Multiplicity = 1
  Electrons    = 90
  Nalpha       = 45
  Nbeta        = 45

  ==> Algorithm <==

  SCF Algorithm Type is DF.
  DIIS enabled.
  MOM disabled.
  Fractional occupation disabled.
  Guess Type is READ.
  Energy threshold   = 1.00e-08
  Density threshold  = 1.00e-08
  Integral threshold = 0.00e+00

  ==> Primary Basis <==

  Basis Set: 6-31G*
    Number of shells: 66
    Number of basis function: 158
    Number of Cartesian functions: 158
    Spherical Harmonics?: false
    Max angular momentum: 2

  ==> Pre-Iterations <==

   -------------------------------------------------------
    Irrep   Nso     Nmo     Nalpha   Nbeta   Ndocc  Nsocc
   -------------------------------------------------------
     A        158     158       0       0       0       0
   -------------------------------------------------------
    Total     158     158      45      45      45       0
   -------------------------------------------------------

 OEINTS: Overlap, kinetic, potential, dipole, and quadrupole integrals
         stored in file 35.

  ==> Integral Setup <==

  ==> DFJK: Density-Fitted J/K Matrices <==

    J tasked:                  Yes
    K tasked:                  Yes
    wK tasked:                  No
    OpenMP threads:              4
    Integrals threads:           4
    Memory (MB):              1430
    Algorithm:                Core
    Integral Cache:           NONE
    Schwarz Cutoff:          1E-12
    Fitting Condition:       1E-12

   => Auxiliary Basis Set <=

  Basis Set: 
    Number of shells: 270
    Number of basis function: 909
    Number of Cartesian functions: 909
    Spherical Harmonics?: false
    Max angular momentum: 3

  Minimum eigenvalue in the overlap matrix is 1.7039636049E-03.
  Using Symmetric Orthogonalization.
  SCF Guess: Reading in previously saved MOs, projecting if necessary.

  Using orbitals from previous SCF, no projection.
  Recomputing DOCC and SOCC from number of alpha and beta electrons from previous calculation.
              A 
    DOCC [    45 ]

  ==> Iterations <==

                           Total Energy        Delta E     RMS |[F,P]|

   @DF-RHF iter   0: -1146.26448664062036   -1.14626e+03   1.75233e-03 
   @DF-RHF iter   1: -1146.30485731087015   -4.03707e-02   2.50497e-04 
   @DF-RHF iter   2: -1146.30617601338213   -1.31870e-03   9.76689e-05 DIIS
   @DF-RHF iter   3: -1146.30637584164629   -1.99828e-04   4.73641e-05 DIIS
   @DF-RHF iter   4: -1146.30641135439623   -3.55127e-05   9.32659e-06 DIIS
   @DF-RHF iter   5: -1146.30641368154261   -2.32715e-06   3.55667e-06 DIIS
   @DF-RHF iter   6: -1146.30641405803976   -3.76497e-07   8.37666e-07 DIIS
   @DF-RHF iter   7: -1146.30641408022757   -2.21878e-08   3.31327e-07 DIIS
   @DF-RHF iter   8: -1146.30641408300630   -2.77873e-09   9.25897e-08 DIIS
   @DF-RHF iter   9: -1146.30641408334191   -3.35604e-10   2.87424e-08 DIIS
   @DF-RHF iter  10: -1146.30641408336783   -2.59206e-11   8.91521e-09 DIIS

  ==> Post-Iterations <==

    Orbital Energies (a.u.)
    -----------------------

    Doubly Occupied:                                                      

       1A   -104.843989     2A    -26.359030     3A    -26.357317  
       4A    -26.355086     5A    -26.347056     6A    -26.346072  
       7A    -20.650754     8A    -11.531731     9A    -11.490518  
      10A    -11.406134    11A    -10.578673    12A     -8.048018  
      13A     -8.044497    14A     -8.044364    15A     -1.762675  
      16A     -1.717859    17A     -1.657007    18A     -1.651803  
      19A     -1.638504    20A     -1.485866    21A     -1.178213  
      22A     -1.046084    23A     -0.987749    24A     -0.920574  
      25A     -0.856802    26A     -0.851938    27A     -0.843761  
      28A     -0.825731    29A     -0.812608    30A     -0.791398  
      31A     -0.727429    32A     -0.725011    33A     -0.705015  
      34A     -0.701276    35A     -0.676402    36A     -0.670827  
      37A     -0.657748    38A     -0.654596    39A     -0.648140  
      40A     -0.633725    41A     -0.597691    42A     -0.579586  
      43A     -0.523449    44A     -0.476982    45A     -0.468071  

    Virtual:                                                              

      46A      0.168773    47A      0.234057    48A      0.256952  
      49A      0.276655    50A      0.344490    51A      0.351851  
      52A      0.392650    53A      0.425333    54A      0.454778  
      55A      0.475776    56A      0.490781    57A      0.546840  
      58A      0.615594    59A      0.630276    60A      0.634103  
      61A      0.670008    62A      0.704676    63A      0.708400  
      64A      0.738918    65A      0.752621    66A      0.766969  
      67A      0.785175    68A      0.841313    69A      0.933917  
      70A      0.975974    71A      0.983717    72A      1.056169  
      73A      1.068948    74A      1.109041    75A      1.136844  
      76A      1.177557    77A      1.205628    78A      1.246995  
      79A      1.283945    80A      1.287480    81A      1.312916  
      82A      1.327182    83A      1.367148    84A      1.387997  
      85A      1.400118    86A      1.424458    87A      1.461043  
      88A      1.528499    89A      1.580925    90A      1.606189  
      91A      1.613100    92A      1.624581    93A      1.627191  
      94A      1.644950    95A      1.650118    96A      1.659700  
      97A      1.664695    98A      1.671621    99A      1.690447  
     100A      1.713882   101A      1.769475   102A      1.808836  
     103A      1.893573   104A      1.926645   105A      1.943701  
     106A      1.958903   107A      1.987517   108A      2.026409  
     109A      2.066140   110A      2.091379   111A      2.099123  
     112A      2.123690   113A      2.132374   114A      2.137517  
     115A      2.145274   116A      2.236333   117A      2.251982  
     118A      2.275464   119A      2.292511   120A      2.308681  
     121A      2.336281   122A      2.368211   123A      2.396438  
     124A      2.404806   125A      2.430318   126A      2.442850  
     127A      2.458238   128A      2.506216   129A      2.555392  
     130A      2.595153   131A      2.648843   132A      2.687973  
     133A      2.720506   134A      2.802724   135A      2.810476  
     136A      2.864907   137A      2.993984   138A      3.022959  
     139A      3.086616   140A      3.160474   141A      3.182946  
     142A      3.283124   143A      3.299255   144A      3.396853  
     145A      3.409813   146A      3.425764   147A      3.431590  
     148A      3.460287   149A      4.320809   150A      4.513024  
     151A      4.579285   152A      4.705808   153A      4.713430  
     154A      4.864152   155A      4.906078   156A      5.035515  
     157A      5.726446   158A      5.901875  

    Final Occupation by Irrep:
              A 
    DOCC [    45 ]

  Energy converged.

  @DF-RHF Final Energy: -1146.30641408336783

   => Energetics <=

    Nuclear Repulsion Energy =            732.0149680409529083
    One-Electron Energy =               -3046.8872551868576011
    Two-Electron Energy =                1168.5658730625368662
    DFT Exchange-Correlation Energy =       0.0000000000000000
    Empirical Dispersion Energy =           0.0000000000000000
    PCM Polarization Energy =               0.0000000000000000
    EFP Energy =                            0.0000000000000000
    Total Energy =                      -1146.3064140833680540

    Alert: EFP and PCM quantities not currently incorporated into SCF psivars.

Properties will be evaluated at   0.000000,   0.000000,   0.000000 Bohr
  ==> Properties <==


Properties computed using the SCF density matrix

  Nuclear Dipole Moment: (a.u.)
     X:    -3.7172      Y:     0.7613      Z:     0.8025

  Electronic Dipole Moment: (a.u.)
     X:     3.0751      Y:    -0.9232      Z:    -0.6963

  Dipole Moment: (a.u.)
     X:    -0.6421      Y:    -0.1619      Z:     0.1062     Total:     0.6707

  Dipole Moment: (Debye)
     X:    -1.6320      Y:    -0.4116      Z:     0.2700     Total:     1.7046


  Saving occupied orbitals to File 180.

*** tstop() called on cx1-1-3-2.cx1.hpc.ic.ac.uk at Fri Sep  2 13:50:57 2016
Module time:
	user time   =      20.64 seconds =       0.34 minutes
	system time =       0.29 seconds =       0.00 minutes
	total time  =          6 seconds =       0.10 minutes
Total time:
	user time   =      74.02 seconds =       1.23 minutes
	system time =       1.00 seconds =       0.02 minutes
	total time  =         22 seconds =       0.37 minutes

*** tstart() called on cx1-1-3-2.cx1.hpc.ic.ac.uk
*** at Fri Sep  2 13:50:57 2016


         ------------------------------------------------------------
                                   SCF GRAD                          
                          Rob Parrish, Justin Turney,                
                       Andy Simmonett, and Alex Sokolov              
         ------------------------------------------------------------

  ==> Geometry <==

    Molecular point group: c1
    Full point group: C1

    Geometry (in Angstrom), charge = 0, multiplicity = 1:

       Center              X                  Y                   Z               Mass       
    ------------   -----------------  -----------------  -----------------  -----------------
           H         -2.707103694710    -0.573868929363     1.268264118143     1.007825032070
           C         -2.118454480416    -0.353870934884     0.399312925829    12.000000000000
           O         -0.856200788051    -0.074655311732     0.802741477100    15.994914619560
           F         -2.119853606048    -1.396667150038    -0.429322555180    18.998403224000
           F         -2.650634193764     0.662079768480    -0.272890101863    18.998403224000
           C          0.073633757052     0.272479833876    -0.161736209393    12.000000000000
           C          1.388946484027    -0.549424184139     0.002736088381    12.000000000000
          CL          0.376323973767     2.018858272642    -0.104334095520    34.968852682000
           H         -0.281400635577     0.107525228349    -1.163437930096     1.007825032070
           F          1.867900307239    -0.813221161687    -1.195840583091    18.998403224000
           F          1.168959992950    -1.720316168734     0.561553821830    18.998403224000
           F          2.334605440382     0.038207166587     0.695354068225    18.998403224000

  Nuclear repulsion =  732.014968040952908

  ==> Basis Set <==

  Basis Set: 6-31G*
    Number of shells: 66
    Number of basis function: 158
    Number of Cartesian functions: 158
    Spherical Harmonics?: false
    Max angular momentum: 2

  ==> DFJKGrad: Density-Fitted SCF Gradients <==

    Gradient:                    1
    J tasked:                  Yes
    K tasked:                  Yes
    wK tasked:                  No
    OpenMP threads:              4
    Integrals threads:           4
    Memory (MB):              1430
    Schwarz Cutoff:          0E+00
    Fitting Condition:       1E-12

   => Auxiliary Basis Set <=

  Basis Set: 
    Number of shells: 270
    Number of basis function: 909
    Number of Cartesian functions: 909
    Spherical Harmonics?: false
    Max angular momentum: 3


  -Total Gradient:
     Atom            X                  Y                   Z
    ------   -----------------  -----------------  -----------------
       1       -0.000248051283    -0.000337786618    -0.000198198890
       2        0.000993966197     0.002357424705     0.001107359138
       3       -0.007762414615     0.001189683015     0.000159181013
       4       -0.000064898973    -0.000009988014     0.000226177904
       5       -0.001851256725    -0.000022652957    -0.000734208877
       6       -0.002537482127    -0.002829501328     0.003283861839
       7        0.000192957484     0.010037220449    -0.002352807250
       8       -0.004648693485    -0.000930355250    -0.002081956127
       9        0.001785996266     0.007676954236    -0.002336431539
      10       -0.001624852734    -0.008691412149     0.007346660700
      11        0.009961359301    -0.002902672792    -0.004290227683
      12        0.005803370697    -0.005536913366    -0.000129410231


*** tstop() called on cx1-1-3-2.cx1.hpc.ic.ac.uk at Fri Sep  2 13:51:04 2016
Module time:
	user time   =      26.52 seconds =       0.44 minutes
	system time =       0.29 seconds =       0.00 minutes
	total time  =          7 seconds =       0.12 minutes
Total time:
	user time   =     100.56 seconds =       1.68 minutes
	system time =       1.29 seconds =       0.02 minutes
	total time  =         29 seconds =       0.48 minutes
CURRENT ENERGY: -1146.3064140834

			-----------------------------------------
			 OPTKING 2.0: for geometry optimizations 
			  - R.A. King,  Bethel University        
			-----------------------------------------

	Previous internal coordinate definitions found.
	---Fragment 1 Geometry and Gradient---
	 H          -5.1156845963       -1.0844551127        2.3966718475
	 C          -4.0032987930       -0.6687191533        0.7545920711
	 O          -1.6179850042       -0.1410780935        1.5169615472
	 F          -4.0059427572       -2.6393184124       -0.8113020520
	 F          -5.0089727047        1.2511494406       -0.5156875569
	 C           0.1391476350        0.5149122628       -0.3056371415
	 C           2.6247284680       -1.0382612388        0.0051704577
	 CL          0.7111492477        3.8150892364       -0.1971628669
	 H          -0.5317701349        0.2031932340       -2.1985790605
	 F           3.5298200242       -1.5367652811       -2.2598112006
	 F           2.2090142470       -3.2509264209        1.0611829321
	 F           4.4117649107        0.0722010812        1.3140287543
	            -0.0002480513       -0.0003377866       -0.0001981989
	             0.0009939662        0.0023574247        0.0011073591
	            -0.0077624146        0.0011896830        0.0001591810
	            -0.0000648990       -0.0000099880        0.0002261779
	            -0.0018512567       -0.0000226530       -0.0007342089
	            -0.0025374821       -0.0028295013        0.0032838618
	             0.0001929575        0.0100372204       -0.0023528072
	            -0.0046486935       -0.0009303553       -0.0020819561
	             0.0017859963        0.0076769542       -0.0023364315
	            -0.0016248527       -0.0086914121        0.0073466607
	             0.0099613593       -0.0029026728       -0.0042902277
	             0.0058033707       -0.0055369134       -0.0001294102

	---Fragment 1 Intrafragment Coordinates---
	 - Coordinate -           - BOHR/RAD -       - ANG/DEG -
	 R(1,2)           =         2.026491	       1.072373
	 R(2,3)           =         2.559167	       1.354253
	 R(2,4)           =         2.517001	       1.331940
	 R(2,5)           =         2.512148	       1.329371
	 R(3,6)           =         2.615283	       1.383948
	 R(6,7)           =         2.947382	       1.559688
	 R(6,8)           =         3.351137	       1.773346
	 R(6,9)           =         2.032370	       1.075484
	 R(7,10)          =         2.489546	       1.317411
	 R(7,11)          =         2.486738	       1.315925
	 R(7,12)          =         2.477849	       1.311221
	 B(1,2,3)         =         1.888663	     108.212425
	 B(1,2,4)         =         1.920822	     110.054975
	 B(1,2,5)         =         1.924924	     110.289996
	 B(2,3,6)         =         2.060470	     118.056242
	 B(3,2,4)         =         1.925943	     110.348431
	 B(3,2,5)         =         1.945713	     111.481138
	 B(3,6,7)         =         1.940064	     111.157453
	 B(3,6,8)         =         1.916797	     109.824353
	 B(3,6,9)         =         1.970153	     112.881474
	 B(4,2,5)         =         1.858060	     106.458972
	 B(6,7,10)        =         1.892490	     108.431669
	 B(6,7,11)        =         1.952702	     111.881579
	 B(6,7,12)        =         2.012792	     115.324471
	 B(7,6,8)         =         1.951523	     111.814033
	 B(7,6,9)         =         1.871074	     107.204660
	 B(8,6,9)         =         1.810629	     103.741426
	 B(10,7,11)       =         1.843109	     105.602341
	 B(10,7,12)       =         1.884008	     107.945703
	 B(11,7,12)       =         1.870267	     107.158386
	 D(1,2,3,6)       =        -3.114433	    -178.443873
	 D(2,3,6,7)       =        -2.284929	    -130.916810
	 D(2,3,6,8)       =         1.829355	     104.814311
	 D(2,3,6,9)       =        -0.181747	     -10.413343
	 D(3,6,7,10)      =         2.509786	     143.800156
	 D(3,6,7,11)      =         0.484102	      27.736981
	 D(3,6,7,12)      =        -1.659242	     -95.067577
	 D(4,2,3,6)       =         1.066185	      61.087916
	 D(5,2,3,6)       =        -0.994688	     -56.991398
	 D(8,6,7,10)      =        -1.624298	     -93.065402
	 D(8,6,7,11)      =         2.633203	     150.871423
	 D(8,6,7,12)      =         0.489859	      28.066865
	*D(9,6,7,10)      =         0.349066	      20.000025
	 D(9,6,7,11)      =        -1.676618	     -96.063151
	 D(9,6,7,12)      =         2.463223	     141.132291
	 R(5,8)           =         6.276547	       3.321406

	Current energy   :     -1146.3064140834

	Energy change for the previous step:
		Projected    :        -0.0100669248
		Actual       :        -0.0004585575
	Energy ratio indicates iffy step: Trust radius decreased to 1.250e-01.


	Performing BFGS update.
	Previous computed or guess Hessian on step 1.
	Steps to be used in Hessian update: 1
	Taking RFO optimization step.
	Going to follow RFO solution 1.
	Using RFO vector 1.
	Norm of target step-size    0.09030
	Projected energy change by RFO approximation:        -0.0023112313

	Back-transformation to cartesian coordinates...
	Successfully converged to displaced geometry.

	Back-transformation to cartesian coordinates to adjust frozen coordinates...
	Successfully converged to displaced geometry.

	--- Internal Coordinate Step in ANG or DEG, aJ/ANG or AJ/DEG ---
	 ---------------------------------------------------------------------------
	   Coordinate                Previous        Force       Change         New 
	   ----------                --------       ------       ------       ------
	    1 R(1,2)          =      1.072373    -0.000370    -0.000040     1.072333
	    2 R(2,3)          =      1.354253    -0.008588    -0.000922     1.353330
	    3 R(2,4)          =      1.331940     0.001094     0.000104     1.332043
	    4 R(2,5)          =      1.329371    -0.009349    -0.000575     1.328796
	    5 R(3,6)          =      1.383948    -0.048935    -0.003891     1.380057
	    6 R(6,7)          =      1.559688    -0.130879    -0.013555     1.546133
	    7 R(6,8)          =      1.773346     0.012305     0.001412     1.774758
	    8 R(6,9)          =      1.075484    -0.003370    -0.000373     1.075112
	    9 R(7,10)         =      1.317411     0.045596     0.002750     1.320161
	   10 R(7,11)         =      1.315925     0.007451     0.000305     1.316231
	   11 R(7,12)         =      1.311221    -0.013476    -0.000741     1.310480
	   12 B(1,2,3)        =    108.212425     0.000025     0.083340   108.295765
	   13 B(1,2,4)        =    110.054975     0.000058     0.253556   110.308531
	   14 B(1,2,5)        =    110.289996     0.000096     0.186566   110.476561
	   15 B(2,3,6)        =    118.056242    -0.000283    -0.608547   117.447694
	   16 B(3,2,4)        =    110.348431     0.000063     0.107883   110.456314
	   17 B(3,2,5)        =    111.481138    -0.000323    -0.717101   110.764037
	   18 B(3,6,7)        =    111.157453    -0.000694    -1.317835   109.839618
	   19 B(3,6,8)        =    109.824353     0.000488     0.500921   110.325274
	   20 B(3,6,9)        =    112.881474     0.000345     0.990565   113.872039
	   21 B(4,2,5)        =    106.458972     0.000083     0.090419   106.549391
	   22 B(6,7,10)       =    108.431669    -0.000369    -0.587447   107.844222
	   23 B(6,7,11)       =    111.881579    -0.001086    -1.639092   110.242488
	   24 B(6,7,12)       =    115.324471    -0.000666    -1.155741   114.168730
	   25 B(7,6,8)        =    111.814033    -0.000336    -0.900462   110.913572
	   26 B(7,6,9)        =    107.204660     0.000080    -0.092271   107.112389
	   27 B(8,6,9)        =    103.741426     0.000165     0.908709   104.650135
	   28 B(10,7,11)      =    105.602341     0.000843     1.722385   107.324727
	   29 B(10,7,12)      =    107.945703     0.000608     0.927656   108.873359
	   30 B(11,7,12)      =    107.158386     0.000861     1.011900   108.170286
	   31 D(1,2,3,6)      =   -178.443873     0.000016     0.423833  -178.020040
	   32 D(2,3,6,7)      =   -130.916810    -0.000026     0.221863  -130.694948
	   33 D(2,3,6,8)      =    104.814311     0.000104     1.920968   106.735279
	   34 D(2,3,6,9)      =    -10.413343    -0.000062    -0.165537   -10.578880
	   35 D(3,6,7,10)     =    143.800156     0.000010     0.341676   144.141832
	   36 D(3,6,7,11)     =     27.736981    -0.000032    -0.476441    27.260540
	   37 D(3,6,7,12)     =    -95.067577     0.000024     0.336562   -94.731015
	   38 D(4,2,3,6)      =     61.087916    -0.000012    -0.004599    61.083317
	   39 D(5,2,3,6)      =    -56.991398     0.000001     0.263581   -56.727817
	   40 D(8,6,7,10)     =    -93.065402    -0.000016    -0.571856   -93.637257
	   41 D(8,6,7,11)     =    150.871423    -0.000059    -1.389973   149.481451
	   42 D(8,6,7,12)     =     28.066865    -0.000003    -0.576969    27.489896
	   43 *D(9,6,7,10)    =     20.000025    -0.000000    -0.000000    20.000025
	   44 D(9,6,7,11)     =    -96.063151    -0.000043    -0.818117   -96.881268
	   45 D(9,6,7,12)     =    141.132291     0.000014    -0.005114   141.127178
	   46 R(5,8)          =      3.321406     0.004176     0.012093     3.333498
	 ---------------------------------------------------------------------------

  ==> Convergence Check <==

  Measures of convergence in internal coordinates in au.
  Criteria marked as inactive (o), active & met (*), and active & unmet ( ).
  ---------------------------------------------------------------------------------------------
   Step     Total Energy     Delta E     MAX Force     RMS Force      MAX Disp      RMS Disp   
  ---------------------------------------------------------------------------------------------
    Convergence Criteria    1.00e-06 *    3.00e-04 *             o    1.20e-03 *             o
  ---------------------------------------------------------------------------------------------
      2   -1146.30641408   -4.59e-04      1.59e-02      5.17e-03 o    3.35e-02      1.33e-02 o  ~
  ---------------------------------------------------------------------------------------------

	Writing optimization data to binary file.
	Structure for next step:
	Cartesian Geometry (in Angstrom)
	    H    -2.6869247385  -0.5857192537   1.2713388240
	    C    -2.0993857401  -0.3661989847   0.4015650940
	    O    -0.8391271662  -0.0780321288   0.8018290738
	    F    -2.0972984189  -1.4070281606  -0.4297050589
	    F    -2.6251999566   0.6530769369  -0.2694751142
	    C     0.0723231370   0.2760349804  -0.1720555696
	    C     1.3696697161  -0.5474381521  -0.0008527261
	   CL     0.4118040208   2.0163255577  -0.0951999155
	    H    -0.2769261225   0.1111757093  -1.1754055230
	    F     1.8439668072  -0.8100084155  -1.2045658008
	    F     1.1044506173  -1.7004086314   0.5760195189
	    F     2.2993701322   0.0553467900   0.6989082525
			--------------------------
			 OPTKING Finished Execution 
			--------------------------

    Structure for next step:
    Molecular point group: c1
    Full point group: C1

    Geometry (in Angstrom), charge = 0, multiplicity = 1:

    H           -2.687372671875    -0.586614496627     1.269217856813
    C           -2.099833718347    -0.367094244350     0.399444193184
    O           -0.839575240635    -0.078927410459     0.799708142427
    F           -2.097746397324    -1.407923340773    -0.431825896245
    F           -2.625647894702     0.652181599361    -0.271595963788
    C            0.071874992875     0.275139671659    -0.174176426615
    C            1.369221472957    -0.548333397981    -0.002973596133
    CL           0.411355850802     2.015430116057    -0.097320778396
    H           -0.277374239864     0.110280413177    -1.177526303334
    F            1.843518527843    -0.810903641324    -1.206686578939
    F            1.104002394417    -1.701303789184     0.573898604796
    F            2.298921818021     0.054451498088     0.696787328986

gradient() will perform analytic gradient computation.

*** tstart() called on cx1-1-3-2.cx1.hpc.ic.ac.uk
*** at Fri Sep  2 13:51:05 2016


         ---------------------------------------------------------
                                   SCF
            by Justin Turney, Rob Parrish, and Andy Simmonett
                              RHF Reference
                        4 Threads,   2000 MiB Core
         ---------------------------------------------------------

  ==> Geometry <==

    Molecular point group: c1
    Full point group: C1

    Geometry (in Angstrom), charge = 0, multiplicity = 1:

       Center              X                  Y                   Z               Mass       
    ------------   -----------------  -----------------  -----------------  -----------------
           H         -2.687372671875    -0.586614496627     1.269217856813     1.007825032070
           C         -2.099833718347    -0.367094244350     0.399444193184    12.000000000000
           O         -0.839575240635    -0.078927410459     0.799708142427    15.994914619560
           F         -2.097746397324    -1.407923340773    -0.431825896245    18.998403224000
           F         -2.625647894702     0.652181599361    -0.271595963788    18.998403224000
           C          0.071874992875     0.275139671659    -0.174176426615    12.000000000000
           C          1.369221472957    -0.548333397981    -0.002973596133    12.000000000000
          CL          0.411355850802     2.015430116057    -0.097320778396    34.968852682000
           H         -0.277374239864     0.110280413177    -1.177526303334     1.007825032070
           F          1.843518527843    -0.810903641324    -1.206686578939    18.998403224000
           F          1.104002394417    -1.701303789184     0.573898604796    18.998403224000
           F          2.298921818021     0.054451498088     0.696787328986    18.998403224000

  Running in c1 symmetry.

  Rotational constants: A =      0.05177  B =      0.02974  C =      0.02204 [cm^-1]
  Rotational constants: A =   1551.94733  B =    891.62245  C =    660.85962 [MHz]
  Nuclear repulsion =  735.556228800644817

  Charge       = 0
  Multiplicity = 1
  Electrons    = 90
  Nalpha       = 45
  Nbeta        = 45

  ==> Algorithm <==

  SCF Algorithm Type is DF.
  DIIS enabled.
  MOM disabled.
  Fractional occupation disabled.
  Guess Type is READ.
  Energy threshold   = 1.00e-08
  Density threshold  = 1.00e-08
  Integral threshold = 0.00e+00

  ==> Primary Basis <==

  Basis Set: 6-31G*
    Number of shells: 66
    Number of basis function: 158
    Number of Cartesian functions: 158
    Spherical Harmonics?: false
    Max angular momentum: 2

  ==> Pre-Iterations <==

   -------------------------------------------------------
    Irrep   Nso     Nmo     Nalpha   Nbeta   Ndocc  Nsocc
   -------------------------------------------------------
     A        158     158       0       0       0       0
   -------------------------------------------------------
    Total     158     158      45      45      45       0
   -------------------------------------------------------

 OEINTS: Overlap, kinetic, potential, dipole, and quadrupole integrals
         stored in file 35.

  ==> Integral Setup <==

  ==> DFJK: Density-Fitted J/K Matrices <==

    J tasked:                  Yes
    K tasked:                  Yes
    wK tasked:                  No
    OpenMP threads:              4
    Integrals threads:           4
    Memory (MB):              1430
    Algorithm:                Core
    Integral Cache:           NONE
    Schwarz Cutoff:          1E-12
    Fitting Condition:       1E-12

   => Auxiliary Basis Set <=

  Basis Set: 
    Number of shells: 270
    Number of basis function: 909
    Number of Cartesian functions: 909
    Spherical Harmonics?: false
    Max angular momentum: 3

  Minimum eigenvalue in the overlap matrix is 1.6590701148E-03.
  Using Symmetric Orthogonalization.
  SCF Guess: Reading in previously saved MOs, projecting if necessary.

  Using orbitals from previous SCF, no projection.
  Recomputing DOCC and SOCC from number of alpha and beta electrons from previous calculation.
              A 
    DOCC [    45 ]

  ==> Iterations <==

                           Total Energy        Delta E     RMS |[F,P]|

   @DF-RHF iter   0: -1146.31940358152360   -1.14632e+03   5.82203e-04 
   @DF-RHF iter   1: -1146.30767806542826    1.17255e-02   7.95843e-05 
   @DF-RHF iter   2: -1146.30782523233393   -1.47167e-04   3.38595e-05 DIIS
   @DF-RHF iter   3: -1146.30785297737339   -2.77450e-05   1.66953e-05 DIIS
   @DF-RHF iter   4: -1146.30785773383650   -4.75646e-06   2.64633e-06 DIIS
   @DF-RHF iter   5: -1146.30785795032943   -2.16493e-07   7.78264e-07 DIIS
   @DF-RHF iter   6: -1146.30785797062708   -2.02976e-08   2.61258e-07 DIIS
   @DF-RHF iter   7: -1146.30785797317776   -2.55068e-09   9.36515e-08 DIIS
   @DF-RHF iter   8: -1146.30785797350563   -3.27873e-10   3.14390e-08 DIIS
   @DF-RHF iter   9: -1146.30785797353792   -3.22871e-11   8.74999e-09 DIIS

  ==> Post-Iterations <==

    Orbital Energies (a.u.)
    -----------------------

    Doubly Occupied:                                                      

       1A   -104.841948     2A    -26.360146     3A    -26.359143  
       4A    -26.356757     5A    -26.346421     6A    -26.346239  
       7A    -20.649322     8A    -11.530055     9A    -11.489815  
      10A    -11.401701    11A    -10.576671    12A     -8.046009  
      13A     -8.042510    14A     -8.042372    15A     -1.761122  
      16A     -1.717978    17A     -1.658542    18A     -1.654511  
      19A     -1.638532    20A     -1.486486    21A     -1.177276  
      22A     -1.047340    23A     -0.987578    24A     -0.919564  
      25A     -0.858032    26A     -0.852703    27A     -0.844698  
      28A     -0.824891    29A     -0.812853    30A     -0.790557  
      31A     -0.728144    32A     -0.726603    33A     -0.705022  
      34A     -0.701150    35A     -0.679098    36A     -0.674077  
      37A     -0.657546    38A     -0.657438    39A     -0.646762  
      40A     -0.630280    41A     -0.597539    42A     -0.578899  
      43A     -0.521734    44A     -0.475597    45A     -0.466716  

    Virtual:                                                              

      46A      0.170904    47A      0.237707    48A      0.258779  
      49A      0.280329    50A      0.345676    51A      0.356120  
      52A      0.396216    53A      0.428848    54A      0.450253  
      55A      0.470230    56A      0.493776    57A      0.549346  
      58A      0.617499    59A      0.631803    60A      0.637886  
      61A      0.669483    62A      0.705272    63A      0.708239  
      64A      0.740689    65A      0.756049    66A      0.768893  
      67A      0.786530    68A      0.843355    69A      0.931984  
      70A      0.974036    71A      0.984191    72A      1.056619  
      73A      1.070907    74A      1.109095    75A      1.138163  
      76A      1.178323    77A      1.203710    78A      1.244419  
      79A      1.281396    80A      1.288211    81A      1.312574  
      82A      1.326487    83A      1.372572    84A      1.387153  
      85A      1.399009    86A      1.427059    87A      1.458486  
      88A      1.525482    89A      1.580580    90A      1.604823  
      91A      1.611323    92A      1.627413    93A      1.628913  
      94A      1.646555    95A      1.647885    96A      1.656769  
      97A      1.664072    98A      1.671795    99A      1.692299  
     100A      1.726158   101A      1.765623   102A      1.816620  
     103A      1.909190   104A      1.940295   105A      1.960617  
     106A      1.972018   107A      1.991102   108A      2.035077  
     109A      2.076874   110A      2.092233   111A      2.098648  
     112A      2.128457   113A      2.131466   114A      2.139540  
     115A      2.145551   116A      2.248708   117A      2.264701  
     118A      2.281362   119A      2.299234   120A      2.306393  
     121A      2.337345   122A      2.356064   123A      2.394854  
     124A      2.397461   125A      2.409229   126A      2.425832  
     127A      2.445649   128A      2.509878   129A      2.562112  
     130A      2.598217   131A      2.654250   132A      2.698443  
     133A      2.726228   134A      2.812777   135A      2.821360  
     136A      2.881450   137A      2.999651   138A      3.025224  
     139A      3.101696   140A      3.174881   141A      3.183737  
     142A      3.289996   143A      3.299285   144A      3.397493  
     145A      3.413260   146A      3.421455   147A      3.435341  
     148A      3.463023   149A      4.335872   150A      4.521308  
     151A      4.583087   152A      4.710628   153A      4.716467  
     154A      4.878314   155A      4.919589   156A      5.064934  
     157A      5.752233   158A      5.897734  

    Final Occupation by Irrep:
              A 
    DOCC [    45 ]

  Energy converged.

  @DF-RHF Final Energy: -1146.30785797353792

   => Energetics <=

    Nuclear Repulsion Energy =            735.5562288006448171
    One-Electron Energy =               -3053.9914281469482376
    Two-Electron Energy =                1172.1273413727653860
    DFT Exchange-Correlation Energy =       0.0000000000000000
    Empirical Dispersion Energy =           0.0000000000000000
    PCM Polarization Energy =               0.0000000000000000
    EFP Energy =                            0.0000000000000000
    Total Energy =                      -1146.3078579735379208

    Alert: EFP and PCM quantities not currently incorporated into SCF psivars.

Properties will be evaluated at   0.000000,   0.000000,   0.000000 Bohr
  ==> Properties <==


Properties computed using the SCF density matrix

  Nuclear Dipole Moment: (a.u.)
     X:    -3.6534      Y:     0.7395      Z:     0.7821

  Electronic Dipole Moment: (a.u.)
     X:     3.0342      Y:    -0.9403      Z:    -0.6794

  Dipole Moment: (a.u.)
     X:    -0.6192      Y:    -0.2008      Z:     0.1027     Total:     0.6590

  Dipole Moment: (Debye)
     X:    -1.5738      Y:    -0.5103      Z:     0.2610     Total:     1.6749


  Saving occupied orbitals to File 180.

*** tstop() called on cx1-1-3-2.cx1.hpc.ic.ac.uk at Fri Sep  2 13:51:11 2016
Module time:
	user time   =      19.90 seconds =       0.33 minutes
	system time =       0.31 seconds =       0.01 minutes
	total time  =          6 seconds =       0.10 minutes
Total time:
	user time   =     120.96 seconds =       2.02 minutes
	system time =       1.61 seconds =       0.03 minutes
	total time  =         36 seconds =       0.60 minutes

*** tstart() called on cx1-1-3-2.cx1.hpc.ic.ac.uk
*** at Fri Sep  2 13:51:11 2016


         ------------------------------------------------------------
                                   SCF GRAD                          
                          Rob Parrish, Justin Turney,                
                       Andy Simmonett, and Alex Sokolov              
         ------------------------------------------------------------

  ==> Geometry <==

    Molecular point group: c1
    Full point group: C1

    Geometry (in Angstrom), charge = 0, multiplicity = 1:

       Center              X                  Y                   Z               Mass       
    ------------   -----------------  -----------------  -----------------  -----------------
           H         -2.687372671875    -0.586614496627     1.269217856813     1.007825032070
           C         -2.099833718347    -0.367094244350     0.399444193184    12.000000000000
           O         -0.839575240635    -0.078927410459     0.799708142427    15.994914619560
           F         -2.097746397324    -1.407923340773    -0.431825896245    18.998403224000
           F         -2.625647894702     0.652181599361    -0.271595963788    18.998403224000
           C          0.071874992875     0.275139671659    -0.174176426615    12.000000000000
           C          1.369221472957    -0.548333397981    -0.002973596133    12.000000000000
          CL          0.411355850802     2.015430116057    -0.097320778396    34.968852682000
           H         -0.277374239864     0.110280413177    -1.177526303334     1.007825032070
           F          1.843518527843    -0.810903641324    -1.206686578939    18.998403224000
           F          1.104002394417    -1.701303789184     0.573898604796    18.998403224000
           F          2.298921818021     0.054451498088     0.696787328986    18.998403224000

  Nuclear repulsion =  735.556228800644817

  ==> Basis Set <==

  Basis Set: 6-31G*
    Number of shells: 66
    Number of basis function: 158
    Number of Cartesian functions: 158
    Spherical Harmonics?: false
    Max angular momentum: 2

  ==> DFJKGrad: Density-Fitted SCF Gradients <==

    Gradient:                    1
    J tasked:                  Yes
    K tasked:                  Yes
    wK tasked:                  No
    OpenMP threads:              4
    Integrals threads:           4
    Memory (MB):              1430
    Schwarz Cutoff:          0E+00
    Fitting Condition:       1E-12

   => Auxiliary Basis Set <=

  Basis Set: 
    Number of shells: 270
    Number of basis function: 909
    Number of Cartesian functions: 909
    Spherical Harmonics?: false
    Max angular momentum: 3


  -Total Gradient:
     Atom            X                  Y                   Z
    ------   -----------------  -----------------  -----------------
       1        0.000195757041     0.000198799237     0.000194874244
       2        0.000041033429     0.000286989869     0.000603459715
       3       -0.002673415913     0.000007698979     0.000794074869
       4        0.000275293758    -0.000130144784    -0.000465950039
       5        0.000793396217     0.000035674198     0.000079168274
       6       -0.005343782692    -0.005627929054     0.001856416263
       7        0.006654626116     0.004590645964    -0.001355609087
       8       -0.000952619441    -0.001292293665    -0.000578164066
       9        0.004294677008     0.005769924799    -0.002765871255
      10       -0.004678141643    -0.003774123038    -0.000050404394
      11       -0.000021812670    -0.001569723772     0.000459237039
      12        0.001414988785     0.001504481241     0.001228768439


*** tstop() called on cx1-1-3-2.cx1.hpc.ic.ac.uk at Fri Sep  2 13:51:18 2016
Module time:
	user time   =      26.60 seconds =       0.44 minutes
	system time =       0.27 seconds =       0.00 minutes
	total time  =          7 seconds =       0.12 minutes
Total time:
	user time   =     147.58 seconds =       2.46 minutes
	system time =       1.88 seconds =       0.03 minutes
	total time  =         43 seconds =       0.72 minutes
CURRENT ENERGY: -1146.3078579735

			-----------------------------------------
			 OPTKING 2.0: for geometry optimizations 
			  - R.A. King,  Bethel University        
			-----------------------------------------

	Previous internal coordinate definitions found.
	---Fragment 1 Geometry and Gradient---
	 H          -5.0783983668       -1.1085407442        2.3984741523
	 C          -3.9681106523       -0.6937075868        0.7548401305
	 O          -1.5865672728       -0.1491511901        1.5112293754
	 F          -3.9641661872       -2.6605895302       -0.8160326810
	 F          -4.9617554424        1.2324446117       -0.5132419904
	 C           0.1358240523        0.5199386277       -0.3291457451
	 C           2.5874535992       -1.0361999517       -0.0056192823
	 CL          0.7773499012        3.8086109593       -0.1839096182
	 H          -0.5241613497        0.2083997787       -2.2252022276
	 F           3.4837451385       -1.5323858023       -2.2803071624
	 F           2.0862621755       -3.2149982304        1.0845111911
	 F           4.3443326370        0.1028984189        1.3167372246
	             0.0001957570        0.0001987992        0.0001948742
	             0.0000410334        0.0002869899        0.0006034597
	            -0.0026734159        0.0000076990        0.0007940749
	             0.0002752938       -0.0001301448       -0.0004659500
	             0.0007933962        0.0000356742        0.0000791683
	            -0.0053437827       -0.0056279291        0.0018564163
	             0.0066546261        0.0045906460       -0.0013556091
	            -0.0009526194       -0.0012922937       -0.0005781641
	             0.0042946770        0.0057699248       -0.0027658713
	            -0.0046781416       -0.0037741230       -0.0000504044
	            -0.0000218127       -0.0015697238        0.0004592370
	             0.0014149888        0.0015044812        0.0012287684

	---Fragment 1 Intrafragment Coordinates---
	 - Coordinate -           - BOHR/RAD -       - ANG/DEG -
	 R(1,2)           =         2.026415	       1.072333
	 R(2,3)           =         2.557424	       1.353330
	 R(2,4)           =         2.517197	       1.332043
	 R(2,5)           =         2.511060	       1.328796
	 R(3,6)           =         2.607929	       1.380057
	 R(6,7)           =         2.921767	       1.546133
	 R(6,8)           =         3.353806	       1.774758
	 R(6,9)           =         2.031666	       1.075112
	 R(7,10)          =         2.494743	       1.320161
	 R(7,11)          =         2.487316	       1.316231
	 R(7,12)          =         2.476448	       1.310480
	 B(1,2,3)         =         1.890118	     108.295765
	 B(1,2,4)         =         1.925247	     110.308531
	 B(1,2,5)         =         1.928180	     110.476561
	 B(2,3,6)         =         2.049849	     117.447694
	 B(3,2,4)         =         1.927826	     110.456314
	 B(3,2,5)         =         1.933197	     110.764037
	 B(3,6,7)         =         1.917063	     109.839618
	 B(3,6,8)         =         1.925539	     110.325274
	 B(3,6,9)         =         1.987442	     113.872039
	 B(4,2,5)         =         1.859638	     106.549391
	 B(6,7,10)        =         1.882237	     107.844222
	 B(6,7,11)        =         1.924094	     110.242488
	 B(6,7,12)        =         1.992620	     114.168730
	 B(7,6,8)         =         1.935807	     110.913572
	 B(7,6,9)         =         1.869464	     107.112389
	 B(8,6,9)         =         1.826489	     104.650135
	 B(10,7,11)       =         1.873170	     107.324727
	 B(10,7,12)       =         1.900199	     108.873359
	 B(11,7,12)       =         1.887928	     108.170286
	 D(1,2,3,6)       =        -3.107036	    -178.020040
	 D(2,3,6,7)       =        -2.281057	    -130.694948
	 D(2,3,6,8)       =         1.862882	     106.735279
	 D(2,3,6,9)       =        -0.184636	     -10.578880
	 D(3,6,7,10)      =         2.515750	     144.141832
	 D(3,6,7,11)      =         0.475786	      27.260540
	 D(3,6,7,12)      =        -1.653368	     -94.731015
	 D(4,2,3,6)       =         1.066105	      61.083317
	 D(5,2,3,6)       =        -0.990087	     -56.727817
	 D(8,6,7,10)      =        -1.634278	     -93.637257
	 D(8,6,7,11)      =         2.608943	     149.481451
	 D(8,6,7,12)      =         0.479789	      27.489896
	*D(9,6,7,10)      =         0.349066	      20.000025
	 D(9,6,7,11)      =        -1.690897	     -96.881268
	 D(9,6,7,12)      =         2.463134	     141.127178
	 R(5,8)           =         6.299399	       3.333498

	Current energy   :     -1146.3078579735

	Energy change for the previous step:
		Projected    :        -0.0023112313
		Actual       :        -0.0014438902

	Performing BFGS update.
	Previous computed or guess Hessian on step 1.
	Steps to be used in Hessian update: 2 1
	Taking RFO optimization step.
	Going to follow RFO solution 1.
	Using RFO vector 1.
	Norm of target step-size    0.03786
	Projected energy change by RFO approximation:        -0.0001499191

	Back-transformation to cartesian coordinates...
	Successfully converged to displaced geometry.

	Back-transformation to cartesian coordinates to adjust frozen coordinates...
	Successfully converged to displaced geometry.

	--- Internal Coordinate Step in ANG or DEG, aJ/ANG or AJ/DEG ---
	 ---------------------------------------------------------------------------
	   Coordinate                Previous        Force       Change         New 
	   ----------                --------       ------       ------       ------
	    1 R(1,2)          =      1.072333    -0.000083    -0.000014     1.072319
	    2 R(2,3)          =      1.353330     0.006331     0.000738     1.354069
	    3 R(2,4)          =      1.332043    -0.003237    -0.000281     1.331762
	    4 R(2,5)          =      1.328796     0.002277     0.000224     1.329020
	    5 R(3,6)          =      1.380057    -0.017394    -0.001823     1.378233
	    6 R(6,7)          =      1.546133    -0.020255    -0.002672     1.543461
	    7 R(6,8)          =      1.774758     0.008884     0.001886     1.776644
	    8 R(6,9)          =      1.075112    -0.002483    -0.000382     1.074729
	    9 R(7,10)         =      1.320161     0.007284     0.000660     1.320822
	   10 R(7,11)         =      1.316231    -0.013023    -0.001187     1.315043
	   11 R(7,12)         =      1.310480    -0.019377    -0.001619     1.308861
	   12 B(1,2,3)        =    108.295765     0.000019     0.048417   108.344181
	   13 B(1,2,4)        =    110.308531    -0.000040    -0.193546   110.114985
	   14 B(1,2,5)        =    110.476561    -0.000013    -0.070721   110.405840
	   15 B(2,3,6)        =    117.447694    -0.000028     0.002774   117.450469
	   16 B(3,2,4)        =    110.456314     0.000029     0.073644   110.529958
	   17 B(3,2,5)        =    110.764037    -0.000000     0.101732   110.865769
	   18 B(3,6,7)        =    109.839618    -0.000117    -0.351418   109.488201
	   19 B(3,6,8)        =    110.325274     0.000034    -0.033777   110.291497
	   20 B(3,6,9)        =    113.872039     0.000005    -0.117502   113.754537
	   21 B(4,2,5)        =    106.549391     0.000005     0.037010   106.586401
	   22 B(6,7,10)       =    107.844222     0.000238     0.641926   108.486148
	   23 B(6,7,11)       =    110.242488    -0.000099    -0.234775   110.007713
	   24 B(6,7,12)       =    114.168730     0.000033     0.149233   114.317963
	   25 B(7,6,8)        =    110.913572    -0.000001    -0.043146   110.870426
	   26 B(7,6,9)        =    107.112389     0.000074     0.306575   107.418965
	   27 B(8,6,9)        =    104.650135     0.000013     0.273505   104.923640
	   28 B(10,7,11)      =    107.324727    -0.000064    -0.182207   107.142520
	   29 B(10,7,12)      =    108.873359    -0.000107    -0.168200   108.705159
	   30 B(11,7,12)      =    108.170286    -0.000008    -0.229248   107.941038
	   31 D(1,2,3,6)      =   -178.020040    -0.000000     0.059679  -177.960360
	   32 D(2,3,6,7)      =   -130.694948    -0.000007     0.293799  -130.401149
	   33 D(2,3,6,8)      =    106.735279     0.000006     0.603895   107.339174
	   34 D(2,3,6,9)      =    -10.578880    -0.000004     0.355820   -10.223060
	   35 D(3,6,7,10)     =    144.141832    -0.000004    -0.164377   143.977455
	   36 D(3,6,7,11)     =     27.260540    -0.000006    -0.186228    27.074312
	   37 D(3,6,7,12)     =    -94.731015     0.000009     0.185077   -94.545938
	   38 D(4,2,3,6)      =     61.083317     0.000004     0.222064    61.305382
	   39 D(5,2,3,6)      =    -56.727817    -0.000001     0.066498   -56.661319
	   40 D(8,6,7,10)     =    -93.637257    -0.000013    -0.472338   -94.109595
	   41 D(8,6,7,11)     =    149.481451    -0.000014    -0.494189   148.987262
	   42 D(8,6,7,12)     =     27.489896     0.000000    -0.122884    27.367012
	   43 *D(9,6,7,10)    =     20.000025     0.000000    -0.000000    20.000025
	   44 D(9,6,7,11)     =    -96.881268    -0.000001    -0.021851   -96.903119
	   45 D(9,6,7,12)     =    141.127178     0.000013     0.349454   141.476632
	   46 R(5,8)          =      3.333498     0.005651     0.013601     3.347100
	 ---------------------------------------------------------------------------

  ==> Convergence Check <==

[...]
           O         -0.855412816819     0.029409426850     0.804957243060    15.994914619560
           F         -1.980571421767    -1.472452250141    -0.356626713690    18.998403224000
           F         -2.660963074149     0.549221384941    -0.356051353873    18.998403224000
           C          0.066339636718     0.343923695676    -0.171195504710    12.000000000000
           C          1.317777064464    -0.544316547603    -0.018286719013    12.000000000000
          CL          0.494917955354     2.064195547550    -0.062008584157    34.968852682000
           H         -0.300599418448     0.216194439702    -1.173247024672     1.007825032070
           F          1.785339188746    -0.822325641971    -1.222071699666    18.998403224000
           F          0.986899780069    -1.687341832936     0.543571801640    18.998403224000
           F          2.276021584673    -0.005307995055     0.691336431461    18.998403224000

  Nuclear repulsion =  737.094139150157048

  ==> Basis Set <==

  Basis Set: 6-31G*
    Number of shells: 66
    Number of basis function: 158
    Number of Cartesian functions: 158
    Spherical Harmonics?: false
    Max angular momentum: 2

  ==> DFJKGrad: Density-Fitted SCF Gradients <==

    Gradient:                    1
    J tasked:                  Yes
    K tasked:                  Yes
    wK tasked:                  No
    OpenMP threads:              4
    Integrals threads:           4
    Memory (MB):              1430
    Schwarz Cutoff:          0E+00
    Fitting Condition:       1E-12

   => Auxiliary Basis Set <=

  Basis Set: 
    Number of shells: 270
    Number of basis function: 909
    Number of Cartesian functions: 909
    Spherical Harmonics?: false
    Max angular momentum: 3


  -Total Gradient:
     Atom            X                  Y                   Z
    ------   -----------------  -----------------  -----------------
       1       -0.000019131181     0.000005751272    -0.000004050861
       2        0.000008274147    -0.000008113128     0.000014235976
       3       -0.000012260867     0.000088784733     0.000115884443
       4        0.000000386329    -0.000032616039    -0.000005748857
       5       -0.000013714224     0.000027614047     0.000005284568
       6       -0.006029719017    -0.008094121845     0.002693635005
       7        0.005333824129     0.007319855503    -0.000408894157
       8       -0.000005723720    -0.000042700168    -0.000112749252
       9        0.004189667856     0.005513230651    -0.002216706904
      10       -0.003378298367    -0.004754852378    -0.000184020511
      11       -0.000047809831     0.000023793192    -0.000032940581
      12       -0.000025495277    -0.000046625901     0.000136071129


*** tstop() called on cx1-1-3-2.cx1.hpc.ic.ac.uk at Fri Sep  2 13:53:06 2016
Module time:
	user time   =      26.97 seconds =       0.45 minutes
	system time =       0.28 seconds =       0.00 minutes
	total time  =          7 seconds =       0.12 minutes
Total time:
	user time   =     518.91 seconds =       8.65 minutes
	system time =       6.30 seconds =       0.10 minutes
	total time  =        151 seconds =       2.52 minutes
CURRENT ENERGY: -1146.3080012863

			-----------------------------------------
			 OPTKING 2.0: for geometry optimizations 
			  - R.A. King,  Bethel University        
			-----------------------------------------

	Previous internal coordinate definitions found.
	---Fragment 1 Geometry and Gradient---
	 H          -5.0556269174       -1.0980170649        2.3931238972
	 C          -3.9309131091       -0.7181117722        0.7509986755
	 O          -1.6164959543        0.0555757625        1.5211487381
	 F          -3.7427375738       -2.7825314965       -0.6739268205
	 F          -5.0284914599        1.0378780039       -0.6728395481
	 C           0.1253637452        0.6499215954       -0.3235126191
	 C           2.4902377560       -1.0286092046       -0.0345568908
	 CL          0.9352593939        3.9007642696       -0.1171792419
	 H          -0.5680505766        0.4085482825       -2.2171155629
	 F           3.3738021210       -1.5539702554       -2.3093808271
	 F           1.8649703049       -3.1886139568        1.0272018387
	 F           4.3010574676       -0.0100306570        1.3064365211
	            -0.0000191312        0.0000057513       -0.0000040509
	             0.0000082741       -0.0000081131        0.0000142360
	            -0.0000122609        0.0000887847        0.0001158844
	             0.0000003863       -0.0000326160       -0.0000057489
	            -0.0000137142        0.0000276140        0.0000052846
	            -0.0060297190       -0.0080941218        0.0026936350
	             0.0053338241        0.0073198555       -0.0004088942
	            -0.0000057237       -0.0000427002       -0.0001127493
	             0.0041896679        0.0055132307       -0.0022167069
	            -0.0033782984       -0.0047548524       -0.0001840205
	            -0.0000478098        0.0000237932       -0.0000329406
	            -0.0000254953       -0.0000466259        0.0001360711

	---Fragment 1 Intrafragment Coordinates---
	 - Coordinate -           - BOHR/RAD -       - ANG/DEG -
	 R(1,2)           =         2.026298	       1.072271
	 R(2,3)           =         2.558955	       1.354141
	 R(2,4)           =         2.515482	       1.331136
	 R(2,5)           =         2.513065	       1.329857
	 R(3,6)           =         2.605782	       1.378920
	 R(6,7)           =         2.914376	       1.542222
	 R(6,8)           =         3.356558	       1.776214
	 R(6,9)           =         2.030964	       1.074740
	 R(7,10)          =         2.496300	       1.320985
	 R(7,11)          =         2.486747	       1.315930
	 R(7,12)          =         2.472819	       1.308560
	 B(1,2,3)         =         1.891042	     108.348732
	 B(1,2,4)         =         1.924867	     110.286745
	 B(1,2,5)         =         1.925956	     110.349157
	 B(2,3,6)         =         2.049340	     117.418526
	 B(3,2,4)         =         1.929388	     110.545797
	 B(3,2,5)         =         1.932928	     110.748612
	 B(3,6,7)         =         1.918636	     109.929734
	 B(3,6,8)         =         1.916308	     109.796361
	 B(3,6,9)         =         1.987446	     113.872246
	 B(4,2,5)         =         1.859989	     106.569502
	 B(6,7,10)        =         1.894492	     108.546414
	 B(6,7,11)        =         1.916198	     109.790050
	 B(6,7,12)        =         1.994068	     114.251698
	 B(7,6,8)         =         1.934696	     110.849904
	 B(7,6,9)         =         1.876579	     107.520060
	 B(8,6,9)         =         1.828436	     104.761639
	 B(10,7,11)       =         1.870544	     107.174288
	 B(10,7,12)       =         1.898295	     108.764278
	 B(11,7,12)       =         1.886382	     108.081716
	 D(1,2,3,6)       =        -3.138583	    -179.827581
	 D(2,3,6,7)       =        -2.115831	    -121.228178
	 D(2,3,6,8)       =         2.034551	     116.571198
	 D(2,3,6,9)       =        -0.009107	      -0.521802
	 D(3,6,7,10)      =         2.521365	     144.463545
	 D(3,6,7,11)      =         0.481872	      27.609209
	 D(3,6,7,12)      =        -1.640330	     -93.983959
	 D(4,2,3,6)       =         1.033486	      59.214379
	 D(5,2,3,6)       =        -1.023951	     -58.668065
	 D(8,6,7,10)      =        -1.639964	     -93.963043
	 D(8,6,7,11)      =         2.603728	     149.182621
	 D(8,6,7,12)      =         0.481527	      27.589453
	*D(9,6,7,10)      =         0.349066	      20.000025
	 D(9,6,7,11)      =        -1.690427	     -96.854311
	 D(9,6,7,12)      =         2.470558	     141.552521
	 R(5,8)           =         6.638614	       3.513004

	Current energy   :     -1146.3080012863

	Energy change for the previous step:
		Projected    :        -0.0000002805
		Actual       :        -0.0000000440
	Energy ratio indicates iffy step: Trust radius decreased to 2.344e-02.


	Performing BFGS update.
	Previous computed or guess Hessian on step 1.
	Steps to be used in Hessian update: 10 9
	Taking RFO optimization step.
	Going to follow RFO solution 1.
	Rejecting RFO root 1 because normalization gives large value.
	Rejecting RFO root 2 because normalization gives large value.
	Rejecting RFO root 3 because normalization gives large value.
	Rejecting RFO root 4 because normalization gives large value.
	Rejecting RFO root 5 because normalization gives large value.
	Rejecting RFO root 6 because normalization gives large value.
	Rejecting RFO root 7 because normalization gives large value.
	Rejecting RFO root 8 because normalization gives large value.
	Rejecting RFO root 9 because normalization gives large value.
	Rejecting RFO root 10 because normalization gives large value.
	Rejecting RFO root 11 because normalization gives large value.
	Rejecting RFO root 12 because normalization gives large value.
	Rejecting RFO root 13 because normalization gives large value.
	Rejecting RFO root 14 because normalization gives large value.
	Rejecting RFO root 15 because normalization gives large value.
	Rejecting RFO root 16 because normalization gives large value.
	Rejecting RFO root 17 because normalization gives large value.
	Rejecting RFO root 18 because normalization gives large value.
	Rejecting RFO root 19 because normalization gives large value.
	Using RFO vector 20.
	Norm of target step-size    0.00536
	Projected energy change by RFO approximation:        -0.0000000702

	Back-transformation to cartesian coordinates...
	Successfully converged to displaced geometry.

	Back-transformation to cartesian coordinates to adjust frozen coordinates...
	Successfully converged to displaced geometry.

	--- Internal Coordinate Step in ANG or DEG, aJ/ANG or AJ/DEG ---
	 ---------------------------------------------------------------------------
	   Coordinate                Previous        Force       Change         New 
	   ----------                --------       ------       ------       ------
	    1 R(1,2)          =      1.072271    -0.000052    -0.000002     1.072269
	    2 R(2,3)          =      1.354141    -0.000175    -0.000043     1.354098
	    3 R(2,4)          =      1.331136    -0.000248     0.000027     1.331163
	    4 R(2,5)          =      1.329857    -0.000184     0.000026     1.329882
	    5 R(3,6)          =      1.378920    -0.000781    -0.000026     1.378894
	    6 R(6,7)          =      1.542222    -0.000120     0.000034     1.542255
	    7 R(6,8)          =      1.776214     0.000409    -0.000237     1.775977
	    8 R(6,9)          =      1.074740     0.000156    -0.000013     1.074727
	    9 R(7,10)         =      1.320985     0.000225    -0.000164     1.320821
	   10 R(7,11)         =      1.315930     0.000187     0.000020     1.315950
	   11 R(7,12)         =      1.308560    -0.000296     0.000066     1.308626
	   12 B(1,2,3)        =    108.348732    -0.000001    -0.003357   108.345375
	   13 B(1,2,4)        =    110.286745     0.000001    -0.019703   110.267042
	   14 B(1,2,5)        =    110.349157     0.000002     0.001678   110.350835
	   15 B(2,3,6)        =    117.418526    -0.000002    -0.028625   117.389901
	   16 B(3,2,4)        =    110.545797    -0.000001     0.003144   110.548941
	   17 B(3,2,5)        =    110.748612     0.000001     0.009749   110.758362
	   18 B(3,6,7)        =    109.929734    -0.000006    -0.009920   109.919814
	   19 B(3,6,8)        =    109.796361     0.000001    -0.011064   109.785298
	   20 B(3,6,9)        =    113.872246    -0.000003     0.020359   113.892605
	   21 B(4,2,5)        =    106.569502    -0.000002     0.008457   106.577958
	   22 B(6,7,10)       =    108.546414    -0.000000     0.002403   108.548817
	   23 B(6,7,11)       =    109.790050     0.000008     0.005266   109.795316
	   24 B(6,7,12)       =    114.251698    -0.000002    -0.028897   114.222801
	   25 B(7,6,8)        =    110.849904     0.000002     0.031888   110.881791
	   26 B(7,6,9)        =    107.520060     0.000002    -0.018483   107.501577
	   27 B(8,6,9)        =    104.761639     0.000004    -0.011268   104.750371
	   28 B(10,7,11)      =    107.174288    -0.000004     0.012351   107.186639
	   29 B(10,7,12)      =    108.764278    -0.000001     0.031177   108.795454
	   30 B(11,7,12)      =    108.081716     0.000000    -0.019499   108.062217
	   31 D(1,2,3,6)      =   -179.827581    -0.000000     0.088340  -179.739241
	   32 D(2,3,6,7)      =   -121.228178     0.000000    -0.034798  -121.262976
	   33 D(2,3,6,8)      =    116.571198     0.000000    -0.060877   116.510322
	   34 D(2,3,6,9)      =     -0.521802    -0.000000    -0.051952    -0.573754
	   35 D(3,6,7,10)     =    144.463545    -0.000001     0.006791   144.470336
	   36 D(3,6,7,11)     =     27.609209    -0.000001    -0.012355    27.596854
	   37 D(3,6,7,12)     =    -93.983959    -0.000002     0.029257   -93.954702
	   38 D(4,2,3,6)      =     59.214379    -0.000000     0.112799    59.327178
	   39 D(5,2,3,6)      =    -58.668065     0.000000     0.094264   -58.573802
	   40 D(8,6,7,10)     =    -93.963043    -0.000002     0.007271   -93.955772
	   41 D(8,6,7,11)     =    149.182621    -0.000001    -0.011875   149.170746
	   42 D(8,6,7,12)     =     27.589453    -0.000002     0.029737    27.619190
	   43 *D(9,6,7,10)    =     20.000025     0.000000    -0.000000    20.000025
	   44 D(9,6,7,11)     =    -96.854311     0.000000    -0.019146   -96.873458
	   45 D(9,6,7,12)     =    141.552521    -0.000001     0.022466   141.574987
	   46 R(5,8)          =      3.513004     0.000001    -0.002008     3.510996
	 ---------------------------------------------------------------------------

  ==> Convergence Check <==

  Measures of convergence in internal coordinates in au.
  Criteria marked as inactive (o), active & met (*), and active & unmet ( ).
  ---------------------------------------------------------------------------------------------
   Step     Total Energy     Delta E     MAX Force     RMS Force      MAX Disp      RMS Disp   
  ---------------------------------------------------------------------------------------------
    Convergence Criteria    1.00e-06 *    3.00e-04 *             o    1.20e-03 *             o
  ---------------------------------------------------------------------------------------------
     11   -1146.30800129   -4.40e-08 *    1.35e-04 *    4.84e-05 o    3.79e-03      7.90e-04 o  ~
  ---------------------------------------------------------------------------------------------


  **** Optimization is complete! (in 11 steps) ****

  ==> Optimization Summary <==

  Measures of convergence in internal coordinates in au.
  --------------------------------------------------------------------------------------------------------------- ~
   Step         Total Energy             Delta E       MAX Force       RMS Force        MAX Disp        RMS Disp  ~
  --------------------------------------------------------------------------------------------------------------- ~
      1   -1146.305955525901  -1146.305955525901      0.02121068      0.00548143      0.12423587      0.04026990  ~
      2   -1146.306414083368     -0.000458557466      0.01588588      0.00516673      0.03352722      0.01331145  ~
      3   -1146.307857973538     -0.001443890170      0.00312558      0.00096570      0.02570246      0.00558214  ~
      4   -1146.307930248270     -0.000072274732      0.00093302      0.00031706      0.02570130      0.00483856  ~
      5   -1146.307945277360     -0.000015029090      0.00039761      0.00012790      0.04140595      0.00810751  ~
      6   -1146.307958602690     -0.000013325330      0.00059951      0.00019968      0.07976195      0.01625368  ~
      7   -1146.307978657594     -0.000020054904      0.00057057      0.00020390      0.02193152      0.00460783  ~
      8   -1146.307986187538     -0.000007529944      0.00031030      0.00008943      0.06698502      0.01382268  ~
      9   -1146.307996669144     -0.000010481606      0.00012579      0.00005074      0.06792594      0.01382269  ~
     10   -1146.308001242257     -0.000004573112      0.00011805      0.00004742      0.00980158      0.00197338  ~
     11   -1146.308001286277     -0.000000044020      0.00013525      0.00004838      0.00379399      0.00079011  ~
  --------------------------------------------------------------------------------------------------------------- ~

	Writing optimization data to binary file.
	Final energy is  -1146.3080012862770
	Final (previous) structure:
	Cartesian Geometry (in Angstrom)
	    H    -2.6753227441  -0.5810456498   1.2663867204
	    C    -2.0801497851  -0.3800084121   0.3974114131
	    O    -0.8554128821   0.0294094291   0.8049573045
	    F    -1.9805715730  -1.4724523626  -0.3566267409
	    F    -2.6609632773   0.5492214269  -0.3560513811
	    C     0.0663396418   0.3439237219  -0.1711955178
	    C     1.3177771651  -0.5443165892  -0.0182867204
	   CL     0.4949179931   2.0641957052  -0.0620085889
	    H    -0.3005994414   0.2161944562  -1.1732471143
	    F     1.7853393251  -0.8223257048  -1.2220717930
	    F     0.9868998554  -1.6873419618   0.5435718431
	    F     2.2760217585  -0.0053079955   0.6913364843
	Saving final (previous) structure.
			--------------------------
			 OPTKING Finished Execution 
			--------------------------

    Final optimized geometry and variables:
    Molecular point group: c1
    Full point group: C1

    Geometry (in Angstrom), charge = 0, multiplicity = 1:

    H           -2.675322539796    -0.581045605400     1.266386623736
    C           -2.080149626300    -0.380008383084     0.397411382731
    O           -0.855412816819     0.029409426850     0.804957243060
    F           -1.980571421767    -1.472452250141    -0.356626713690
    F           -2.660963074149     0.549221384941    -0.356051353873
    C            0.066339636718     0.343923695676    -0.171195504710
    C            1.317777064464    -0.544316547603    -0.018286719013
    CL           0.494917955354     2.064195547550    -0.062008584157
    H           -0.300599418448     0.216194439702    -1.173247024672
    F            1.785339188746    -0.822325641971    -1.222071699666
    F            0.986899780069    -1.687341832936     0.543571801640
    F            2.276021584673    -0.005307995055     0.691336431461

	Cleaning optimization helper files.


Properties will be evaluated at   0.000000,   0.000000,   0.000000 Bohr

Properties computed using the  density matrix

  Nuclear Dipole Moment: (a.u.)
     X:    -3.6307      Y:     1.0119      Z:     0.8081

  Electronic Dipole Moment: (a.u.)
     X:     2.9989      Y:    -1.1673      Z:    -0.7120

  Dipole Moment: (a.u.)
     X:    -0.6317      Y:    -0.1554      Z:     0.0961     Total:     0.6576

  Dipole Moment: (Debye)
     X:    -1.6057      Y:    -0.3949      Z:     0.2443     Total:     1.6715

  Quadrupole Moment: (Debye Ang)
    XX:   -59.3738     YY:   -63.5303     ZZ:   -58.9846
    XY:     1.5616     XZ:    -3.7450     YZ:    -1.2217

  Traceless Quadrupole Moment: (Debye Ang)
    XX:     1.2558     YY:    -2.9008     ZZ:     1.6450
    XY:     1.5616     XZ:    -3.7450     YZ:    -1.2217

  Mulliken Charges: (a.u.)
   Center  Symbol    Alpha    Beta     Spin     Total
       1     H     0.40075  0.40075  0.00000  0.19851
       2     C     2.56574  2.56574  0.00000  0.86853
       3     O     4.29201  4.29201  0.00000 -0.58402
       4     F     4.68671  4.68671  0.00000 -0.37342
       5     F     4.68547  4.68547  0.00000 -0.37093
       6     C     3.06571  3.06571  0.00000 -0.13143
       7     C     2.42750  2.42750  0.00000  1.14499
       8    CL     8.49822  8.49822  0.00000  0.00357
       9     H     0.36196  0.36196  0.00000  0.27607
      10     F     4.67885  4.67885  0.00000 -0.35770
      11     F     4.67279  4.67279  0.00000 -0.34558
      12     F     4.66429  4.66429  0.00000 -0.32858

   Total alpha = 45.00000, Total beta = 45.00000, Total charge =  0.00000


*** PSI4 exiting successfully. Buy a developer a beer!
