    -----------------------------------------------------------------------
          Psi4: An Open-Source Ab Initio Electronic Structure Package
                              Psi4 (no tag) Driver

                          Git: Rev {detached?}  

    J. M. Turney, A. C. Simmonett, R. M. Parrish, E. G. Hohenstein,
    F. A. Evangelista, J. T. Fermann, B. J. Mintz, L. A. Burns, J. J. Wilke,
    M. L. Abrams, N. J. Russ, M. L. Leininger, C. L. Janssen, E. T. Seidl,
    W. D. Allen, H. F. Schaefer, R. A. King, E. F. Valeev, C. D. Sherrill,
    and T. D. Crawford, WIREs Comput. Mol. Sci. 2, 556-565 (2012)
    (doi: 10.1002/wcms.93)

                         Additional Contributions by
    A. E. DePrince, M. Saitow, U. Bozkaya, A. Yu. Sokolov
    -----------------------------------------------------------------------


    Psi4 started on: Thu Sep  1 22:30:38 2016

    Process ID:   6839
    PSI4DATADIR: /export131/home/mjharvey/miniconda3/share
    Memory level set to 256.000 MB

  ==> Input File <==

--------------------------------------------------------------------------
set {
	reference rhf
	basis 6-31G*
}


set_num_threads( 1 )
memory 2 gb

molecule MOL {
0 1

O	 1.576395	 1.768323	 -0.480365
C	 0.910765	 1.502687	 -1.428780
C	 -0.395961	 0.747984	 -1.401246
O	 1.239521	 1.849479	 -2.666840
C	 -0.823008	 0.326187	 0.001381
H	 -1.146183	 1.380683	 -1.867694
H	 -0.287538	 -0.112857	 -2.055399
C	 -2.149452	 -0.435131	 -0.000098
H	 -0.903805	 1.206966	 0.630579
H	 -0.044894	 -0.288993	 0.442288
C	 -3.368779	 0.488503	 -0.000883
H	 -2.193746	 -1.087250	 -0.871175
H	 -2.195311	 -1.087803	 0.870418
C	 -4.693822	 -0.272754	 -0.001129
H	 -3.325798	 1.139422	 -0.871284
H	 -3.326423	 1.139959	 0.869145
H	 -4.781274	 -0.907928	 -0.878124
H	 -5.538651	 0.408946	 -0.001420
H	 -4.781694	 -0.907783	 0.875984
C	 2.448267	 2.567891	 -2.833489
H	 2.413345	 3.501560	 -2.290745
H	 2.537392	 2.753962	 -3.892408
H	 3.288156	 1.985028	 -2.483687

	symmetry c1
}
set optking {
	frozen_dihedral = ("
		15 11 8 12,
		1 2 3 6,
		9 5 3 6,
		1 2 4 20
	")
}

ee = energy('scf')
oeprop('DIPOLE', 'QUADRUPOLE', 'MULLIKEN_CHARGES')
f=open( 'psi4out.xyz', 'w' )
f.write( "23  " )
f.write( str(ee) + "\n" )
f.write( MOL.save_string_xyz() )
f.close()
--------------------------------------------------------------------------

  Memory set to   2.000 GiB by Python script.

*** tstart() called on cx1-3-16-4.cx1.hpc.ic.ac.uk
*** at Thu Sep  1 22:30:39 2016


         ---------------------------------------------------------
                                   SCF
            by Justin Turney, Rob Parrish, and Andy Simmonett
                              RHF Reference
                        1 Threads,   2000 MiB Core
         ---------------------------------------------------------

  ==> Geometry <==

    Molecular point group: c1
    Full point group: C1

    Geometry (in Angstrom), charge = 0, multiplicity = 1:

       Center              X                  Y                   Z               Mass       
    ------------   -----------------  -----------------  -----------------  -----------------
           O          2.131883504986     0.798555539871     0.518286165793    15.994914619560
           C          1.466253504986     0.532919539871    -0.430128834207    12.000000000000
           C          0.159527504986    -0.221783460129    -0.402594834207    12.000000000000
           O          1.795009504986     0.879711539871    -1.668188834207    15.994914619560
           C         -0.267519495014    -0.643580460129     1.000032165793    12.000000000000
           H         -0.590694495014     0.410915539871    -0.869042834207     1.007825032070
           H          0.267950504986    -1.082624460129    -1.056747834207     1.007825032070
           C         -1.593963495014    -1.404898460129     0.998553165793    12.000000000000
           H         -0.348316495014     0.237198539871     1.629230165793     1.007825032070
           H          0.510594504986    -1.258760460129     1.440939165793     1.007825032070
           C         -2.813290495014    -0.481264460129     0.997768165793    12.000000000000
           H         -1.638257495014    -2.057017460129     0.127476165793     1.007825032070
           H         -1.639822495014    -2.057570460129     1.869069165793     1.007825032070
           C         -4.138333495014    -1.242521460129     0.997522165793    12.000000000000
           H         -2.770309495014     0.169654539871     0.127367165793     1.007825032070
           H         -2.770934495014     0.170191539871     1.867796165793     1.007825032070
           H         -4.225785495014    -1.877695460129     0.120527165793     1.007825032070
           H         -4.983162495014    -0.560821460129     0.997231165793     1.007825032070
           H         -4.226205495014    -1.877550460129     1.874635165793     1.007825032070
           C          3.003755504986     1.598123539871    -1.834837834207    12.000000000000
           H          2.968833504986     2.531792539871    -1.292093834207     1.007825032070
           H          3.092880504986     1.784194539871    -2.893756834207     1.007825032070
           H          3.843644504986     1.015260539871    -1.485035834207     1.007825032070

  Running in c1 symmetry.

  Rotational constants: A =      0.16756  B =      0.01793  C =      0.01703 [cm^-1]
  Rotational constants: A =   5023.30435  B =    537.46133  C =    510.60922 [MHz]
  Nuclear repulsion =  457.108935886290340

  Charge       = 0
  Multiplicity = 1
  Electrons    = 72
  Nalpha       = 36
  Nbeta        = 36

  ==> Algorithm <==

  SCF Algorithm Type is DF.
  DIIS enabled.
  MOM disabled.
  Fractional occupation disabled.
  Guess Type is CORE.
  Energy threshold   = 1.00e-06
  Density threshold  = 1.00e-06
  Integral threshold = 0.00e+00

  ==> Primary Basis <==

  Basis Set: 6-31G*
    Number of shells: 82
    Number of basis function: 163
    Number of Cartesian functions: 163
    Spherical Harmonics?: false
    Max angular momentum: 2

  ==> Pre-Iterations <==

   -------------------------------------------------------
    Irrep   Nso     Nmo     Nalpha   Nbeta   Ndocc  Nsocc
   -------------------------------------------------------
     A        163     163       0       0       0       0
   -------------------------------------------------------
    Total     163     163      36      36      36       0
   -------------------------------------------------------

 OEINTS: Overlap, kinetic, potential, dipole, and quadrupole integrals
         stored in file 35.

  ==> Integral Setup <==

  ==> DFJK: Density-Fitted J/K Matrices <==

    J tasked:                  Yes
    K tasked:                  Yes
    wK tasked:                  No
    OpenMP threads:              1
    Integrals threads:           1
    Memory (MB):              1430
    Algorithm:                Core
    Integral Cache:           NONE
    Schwarz Cutoff:          1E-12
    Fitting Condition:       1E-12

   => Auxiliary Basis Set <=

  Basis Set: 
    Number of shells: 342
    Number of basis function: 1079
    Number of Cartesian functions: 1079
    Spherical Harmonics?: false
    Max angular momentum: 3

  Minimum eigenvalue in the overlap matrix is 2.5861306715E-03.
  Using Symmetric Orthogonalization.
  SCF Guess: Core (One-Electron) Hamiltonian.

  ==> Iterations <==

                           Total Energy        Delta E     RMS |[F,P]|

   @DF-RHF iter   1:  -261.97127881710736   -2.61971e+02   7.04483e-02 
   @DF-RHF iter   2:   -12.34658576553790    2.49625e+02   8.17016e-02 DIIS
   @DF-RHF iter   3:  -223.89434880912091   -2.11548e+02   6.45318e-02 DIIS
   @DF-RHF iter   4:  -270.69720148985624   -4.68029e+01   6.72449e-02 DIIS
   @DF-RHF iter   5:  -401.91387284363390   -1.31217e+02   3.18863e-02 DIIS
   @DF-RHF iter   6:  -422.03115954523724   -2.01173e+01   8.34245e-03 DIIS
   @DF-RHF iter   7:  -422.88496347044946   -8.53804e-01   2.63117e-03 DIIS
   @DF-RHF iter   8:  -422.94995256973726   -6.49891e-02   1.37845e-03 DIIS
   @DF-RHF iter   9:  -422.97227514299954   -2.23226e-02   2.58548e-04 DIIS
   @DF-RHF iter  10:  -422.97341337018526   -1.13823e-03   9.99237e-05 DIIS
   @DF-RHF iter  11:  -422.97356502895201   -1.51659e-04   3.89354e-05 DIIS
   @DF-RHF iter  12:  -422.97359494733058   -2.99184e-05   8.59685e-06 DIIS
   @DF-RHF iter  13:  -422.97359711283929   -2.16551e-06   2.96732e-06 DIIS
   @DF-RHF iter  14:  -422.97359737147093   -2.58632e-07   1.15308e-06 DIIS
   @DF-RHF iter  15:  -422.97359741388999   -4.24191e-08   4.43716e-07 DIIS

  ==> Post-Iterations <==

    Orbital Energies (a.u.)
    -----------------------

    Doubly Occupied:                                                      

       1A    -20.603566     2A    -20.545365     3A    -11.372116  
       4A    -11.280801     5A    -11.235386     6A    -11.218635  
       7A    -11.218141     8A    -11.217135     9A    -11.210547  
      10A     -1.469258    11A     -1.362686    12A     -1.094898  
      13A     -1.042228    14A     -0.987103    15A     -0.932530  
      16A     -0.847860    17A     -0.793505    18A     -0.766164  
      19A     -0.701731    20A     -0.682247    21A     -0.672523  
      22A     -0.631140    23A     -0.627373    24A     -0.598984  
      25A     -0.575007    26A     -0.558177    27A     -0.556163  
      28A     -0.528393    29A     -0.520674    30A     -0.503476  
      31A     -0.493726    32A     -0.470684    33A     -0.465169  
      34A     -0.457752    35A     -0.451307    36A     -0.436740  

    Virtual:                                                              

      37A      0.197929    38A      0.227730    39A      0.248581  
      40A      0.264483    41A      0.266698    42A      0.274018  
      43A      0.304099    44A      0.313282    45A      0.315855  
      46A      0.322019    47A      0.327775    48A      0.333695  
      49A      0.339041    50A      0.346488    51A      0.361180  
      52A      0.385400    53A      0.404789    54A      0.424774  
      55A      0.439673    56A      0.457960    57A      0.481035  
      58A      0.530838    59A      0.575419    60A      0.703894  
      61A      0.725025    62A      0.727883    63A      0.734058  
      64A      0.751374    65A      0.765914    66A      0.779075  
      67A      0.798070    68A      0.799354    69A      0.833255  
      70A      0.858119    71A      0.897002    72A      0.945455  
      73A      0.956195    74A      0.959759    75A      0.982489  
      76A      1.002079    77A      1.014535    78A      1.034342  
      79A      1.096351    80A      1.115345    81A      1.125650  
      82A      1.128836    83A      1.132043    84A      1.139957  
      85A      1.154080    86A      1.169105    87A      1.185295  
      88A      1.188359    89A      1.198529    90A      1.201333  
      91A      1.213772    92A      1.228095    93A      1.237510  
      94A      1.248955    95A      1.261032    96A      1.278580  
      97A      1.286651    98A      1.319248    99A      1.345243  
     100A      1.383529   101A      1.413536   102A      1.478966  
     103A      1.560504   104A      1.647112   105A      1.664945  
     106A      1.679987   107A      1.706206   108A      1.737169  
     109A      1.798016   110A      1.832127   111A      1.876148  
     112A      1.905080   113A      1.945860   114A      2.010167  
     115A      2.022481   116A      2.029044   117A      2.102168  
     118A      2.124380   119A      2.147235   120A      2.187966  
     121A      2.213318   122A      2.216594   123A      2.240174  
     124A      2.272152   125A      2.296427   126A      2.325437  
     127A      2.327918   128A      2.379647   129A      2.386334  
     130A      2.406663   131A      2.444755   132A      2.450400  
     133A      2.505297   134A      2.517223   135A      2.582826  
     136A      2.617267   137A      2.659037   138A      2.667824  
     139A      2.688206   140A      2.718643   141A      2.757992  
     142A      2.793232   143A      2.819543   144A      2.848422  
     145A      2.911428   146A      2.919252   147A      3.022677  
     148A      3.052174   149A      3.067594   150A      3.153568  
     151A      3.163186   152A      3.349705   153A      3.451358  
     154A      3.580901   155A      4.416435   156A      4.546942  
     157A      4.602960   158A      4.639838   159A      4.712129  
     160A      4.776388   161A      4.850093   162A      4.935784  
     163A      5.019519  

    Final Occupation by Irrep:
              A 
    DOCC [    36 ]

  Energy converged.

  @DF-RHF Final Energy:  -422.97359741388999

   => Energetics <=

    Nuclear Repulsion Energy =            457.1089358862903396
    One-Electron Energy =               -1481.9066438371396544
    Two-Electron Energy =                 601.8241105369604611
    DFT Exchange-Correlation Energy =       0.0000000000000000
    Empirical Dispersion Energy =           0.0000000000000000
    PCM Polarization Energy =               0.0000000000000000
    EFP Energy =                            0.0000000000000000
    Total Energy =                       -422.9735974138889105

    Alert: EFP and PCM quantities not currently incorporated into SCF psivars.

Properties will be evaluated at   0.000000,   0.000000,   0.000000 Bohr
  ==> Properties <==


Properties computed using the SCF density matrix

  Nuclear Dipole Moment: (a.u.)
     X:   -11.7085      Y:    -4.1663      Z:     2.2984

  Electronic Dipole Moment: (a.u.)
     X:    11.4524      Y:     4.1107      Z:    -2.9399

  Dipole Moment: (a.u.)
     X:    -0.2561      Y:    -0.0556      Z:    -0.6415     Total:     0.6930

  Dipole Moment: (Debye)
     X:    -0.6509      Y:    -0.1413      Z:    -1.6306     Total:     1.7614


  Saving occupied orbitals to File 180.

*** tstop() called on cx1-3-16-4.cx1.hpc.ic.ac.uk at Thu Sep  1 22:30:59 2016
Module time:
	user time   =      19.70 seconds =       0.33 minutes
	system time =       0.19 seconds =       0.00 minutes
	total time  =         20 seconds =       0.33 minutes
Total time:
	user time   =      19.70 seconds =       0.33 minutes
	system time =       0.19 seconds =       0.00 minutes
	total time  =         20 seconds =       0.33 minutes


Properties will be evaluated at   0.000000,   0.000000,   0.000000 Bohr

Properties computed using the  density matrix

  Nuclear Dipole Moment: (a.u.)
     X:   -11.7085      Y:    -4.1663      Z:     2.2984

  Electronic Dipole Moment: (a.u.)
     X:    11.4524      Y:     4.1107      Z:    -2.9399

  Dipole Moment: (a.u.)
     X:    -0.2561      Y:    -0.0556      Z:    -0.6415     Total:     0.6930

  Dipole Moment: (Debye)
     X:    -0.6509      Y:    -0.1413      Z:    -1.6306     Total:     1.7614

  Quadrupole Moment: (Debye Ang)
    XX:   -56.0729     YY:   -54.7132     ZZ:   -57.2197
    XY:     0.7803     XZ:    -6.5277     YZ:    -2.8544

  Traceless Quadrupole Moment: (Debye Ang)
    XX:    -0.0710     YY:     1.2888     ZZ:    -1.2177
    XY:     0.7803     XZ:    -6.5277     YZ:    -2.8544

  Mulliken Charges: (a.u.)
   Center  Symbol    Alpha    Beta     Spin     Total
       1     O     4.28592  4.28592  0.00000 -0.57185
       2     C     2.60509  2.60509  0.00000  0.78983
       3     C     3.20925  3.20925  0.00000 -0.41851
       4     O     4.30730  4.30730  0.00000 -0.61461
       5     C     3.15490  3.15490  0.00000 -0.30980
       6     H     0.39994  0.39994  0.00000  0.20012
       7     H     0.40048  0.40048  0.00000  0.19904
       8     C     3.15676  3.15676  0.00000 -0.31353
       9     H     0.41100  0.41100  0.00000  0.17800
      10     H     0.40949  0.40949  0.00000  0.18102
      11     C     3.15333  3.15333  0.00000 -0.30665
      12     H     0.42413  0.42413  0.00000  0.15175
      13     H     0.41800  0.41800  0.00000  0.16400
      14     C     3.23929  3.23929  0.00000 -0.47858
      15     H     0.42408  0.42408  0.00000  0.15185
      16     H     0.42048  0.42048  0.00000  0.15904
      17     H     0.42180  0.42180  0.00000  0.15640
      18     H     0.41879  0.41879  0.00000  0.16242
      19     H     0.42090  0.42090  0.00000  0.15820
      20     C     3.09245  3.09245  0.00000 -0.18491
      21     H     0.40906  0.40906  0.00000  0.18188
      22     H     0.40847  0.40847  0.00000  0.18306
      23     H     0.40909  0.40909  0.00000  0.18183

   Total alpha = 36.00000, Total beta = 36.00000, Total charge =  0.00000


*** PSI4 exiting successfully. Buy a developer a beer!
