    -----------------------------------------------------------------------
          Psi4: An Open-Source Ab Initio Electronic Structure Package
                              Psi4 1.0.54 Driver

                          Git: Rev {master} 8d4cec3 dirty

    J. M. Turney, A. C. Simmonett, R. M. Parrish, E. G. Hohenstein,
    F. A. Evangelista, J. T. Fermann, B. J. Mintz, L. A. Burns, J. J. Wilke,
    M. L. Abrams, N. J. Russ, M. L. Leininger, C. L. Janssen, E. T. Seidl,
    W. D. Allen, H. F. Schaefer, R. A. King, E. F. Valeev, C. D. Sherrill,
    and T. D. Crawford, WIREs Comput. Mol. Sci. 2, 556-565 (2012)
    (doi: 10.1002/wcms.93)

                         Additional Contributions by
    A. E. DePrince, U. Bozkaya, A. Yu. Sokolov, D. G. A. Smith, R. Di Remigio,
    R. M. Richard, J. F. Gonthier, H. R. McAlexander, M. Saitow, and
    B. P. Pritchard
    -----------------------------------------------------------------------


    Psi4 started on: Sat Sep 10 16:02:35 2016

    Process ID:  29679
    PSI4DATADIR: /export131/home/mjharvey/miniconda3/share/psi4
    Memory level set to 256.000 MB

  ==> Input File <==

--------------------------------------------------------------------------
set {
	reference rhf
	basis cc-pvtz
}


set_num_threads( 4 )
memory 2 gb

molecule MOL {
0 1

H	 -3.105914	 0.247538	 -0.052757
O	 -2.346257	 -0.289210	 0.080372
C	 -1.183935	 0.486039	 -0.009831
C	 0.062853	 -0.375310	 0.027457
H	 -1.178881	 1.094526	 -0.908634
H	 -1.184406	 1.155156	 0.838676
O	 1.172093	 0.457955	 -0.054438
H	 0.052476	 -1.081302	 -0.804627
H	 0.076323	 -0.955658	 0.947560
C	 2.395478	 -0.199028	 -0.000366
H	 2.505946	 -0.901710	 -0.823354
H	 3.174616	 0.545641	 -0.071768
H	 2.513730	 -0.742241	 0.934223

	symmetry c1
}
set optking {
	frozen_dihedral = ("
		1 2 3 5
	")
}

ee,wfn = optimize('scf', return_wfn=True)
oeprop( wfn, 'DIPOLE', 'QUADRUPOLE', 'MULLIKEN_CHARGES')
f=open( 'psi4out.xyz', 'w' )
f.write( "13  " )
f.write( str(ee) + "\n" )
f.write( MOL.save_string_xyz() )
f.close()
--------------------------------------------------------------------------

  Memory set to   2.000 GiB by Python script.
gradient() will perform analytic gradient computation.

*** tstart() called on cx1-27-2-4
*** at Sat Sep 10 16:02:36 2016


         ---------------------------------------------------------
                                   SCF
            by Justin Turney, Rob Parrish, and Andy Simmonett
                              RHF Reference
                        4 Threads,   2000 MiB Core
         ---------------------------------------------------------

  ==> Geometry <==

    Molecular point group: c1
    Full point group: C1

    Geometry (in Angstrom), charge = 0, multiplicity = 1:

       Center              X                  Y                   Z               Mass       
    ------------   -----------------  -----------------  -----------------  -----------------
           H         -3.097871138613     0.234436102896    -0.061720754259     1.007825032070
           O         -2.338214138613    -0.302311897104     0.071408245741    15.994914619560
           C         -1.175892138613     0.472937102896    -0.018794754259    12.000000000000
           C          0.070895861387    -0.388411897104     0.018493245741    12.000000000000
           H         -1.170838138613     1.081424102896    -0.917597754259     1.007825032070
           H         -1.176363138613     1.142054102896     0.829712245741     1.007825032070
           O          1.180135861387     0.444853102896    -0.063401754259    15.994914619560
           H          0.060518861387    -1.094403897104    -0.813590754259     1.007825032070
           H          0.084365861387    -0.968759897104     0.938596245741     1.007825032070
           C          2.403520861387    -0.212129897104    -0.009329754259    12.000000000000
           H          2.513988861387    -0.914811897104    -0.832317754259     1.007825032070
           H          3.182658861387     0.532539102896    -0.080731754259     1.007825032070
           H          2.521772861387    -0.755342897104     0.925259245741     1.007825032070

  Running in c1 symmetry.

  Rotational constants: A =      0.80914  B =      0.07147  C =      0.06815 [cm^-1]
  Rotational constants: A =  24257.32474  B =   2142.51153  C =   2043.08865 [MHz]
  Nuclear repulsion =  190.080778227445649

  Charge       = 0
  Multiplicity = 1
  Electrons    = 42
  Nalpha       = 21
  Nbeta        = 21

  ==> Algorithm <==

  SCF Algorithm Type is DF.
  DIIS enabled.
  MOM disabled.
  Fractional occupation disabled.
  Guess Type is SAD.
  Energy threshold   = 1.00e-08
  Density threshold  = 1.00e-08
  Integral threshold = 0.00e+00

  ==> Primary Basis <==

  Basis Set: CC-PVTZ
    Number of shells: 98
    Number of basis function: 262
    Number of Cartesian functions: 295
    Spherical Harmonics?: true
    Max angular momentum: 3

  ==> Pre-Iterations <==

   -------------------------------------------------------
    Irrep   Nso     Nmo     Nalpha   Nbeta   Ndocc  Nsocc
   -------------------------------------------------------
     A        262     262       0       0       0       0
   -------------------------------------------------------
    Total     262     262      21      21      21       0
   -------------------------------------------------------

  ==> Integral Setup <==

  ==> DFJK: Density-Fitted J/K Matrices <==

    J tasked:                  Yes
    K tasked:                  Yes
    wK tasked:                  No
    OpenMP threads:              4
    Integrals threads:           4
    Memory (MB):              1430
    Algorithm:                Core
    Integral Cache:           NONE
    Schwarz Cutoff:          1E-12
    Fitting Condition:       1E-12

   => Auxiliary Basis Set <=

  Basis Set: 
    Number of shells: 205
    Number of basis function: 635
    Number of Cartesian functions: 760
    Spherical Harmonics?: true
    Max angular momentum: 4

  Minimum eigenvalue in the overlap matrix is 7.3893537575E-04.
  Using Symmetric Orthogonalization.
  SCF Guess: Superposition of Atomic Densities via on-the-fly atomic UHF.

  ==> Iterations <==

                           Total Energy        Delta E     RMS |[F,P]|

   @DF-RHF iter   0:  -269.85070711987873   -2.69851e+02   1.65791e-02 
   @DF-RHF iter   1:  -267.95330939509347    1.89740e+00   1.49611e-03 
   @DF-RHF iter   2:  -268.04694496724096   -9.36356e-02   5.77797e-04 DIIS
   @DF-RHF iter   3:  -268.05834007715680   -1.13951e-02   2.36685e-04 DIIS
   @DF-RHF iter   4:  -268.06094356473750   -2.60349e-03   6.82912e-05 DIIS
   @DF-RHF iter   5:  -268.06121122090190   -2.67656e-04   2.13628e-05 DIIS
   @DF-RHF iter   6:  -268.06124251576307   -3.12949e-05   5.74804e-06 DIIS
   @DF-RHF iter   7:  -268.06124467110550   -2.15534e-06   1.25461e-06 DIIS
   @DF-RHF iter   8:  -268.06124478668795   -1.15582e-07   3.98343e-07 DIIS
   @DF-RHF iter   9:  -268.06124479661230   -9.92435e-09   1.09578e-07 DIIS
   @DF-RHF iter  10:  -268.06124479764276   -1.03046e-09   2.75247e-08 DIIS
   @DF-RHF iter  11:  -268.06124479770938   -6.66205e-11   1.03829e-08 DIIS
   @DF-RHF iter  12:  -268.06124479771586   -6.48015e-12   3.79707e-09 DIIS

  ==> Post-Iterations <==

    Orbital Energies (a.u.)
    -----------------------

    Doubly Occupied:                                                      

       1A    -20.554317     2A    -20.550183     3A    -11.268598  
       4A    -11.266951     5A    -11.266124     6A     -1.389974  
       7A     -1.367461     8A     -1.019536     9A     -0.912569  
      10A     -0.833019    11A     -0.709874    12A     -0.686322  
      13A     -0.645834    14A     -0.637870    15A     -0.623099  
      16A     -0.555445    17A     -0.540722    18A     -0.498515  
      19A     -0.470854    20A     -0.441762    21A     -0.421761  

    Virtual:                                                              

      22A      0.142937    23A      0.149213    24A      0.188620  
      25A      0.195405    26A      0.203041    27A      0.228544  
      28A      0.234379    29A      0.260150    30A      0.269313  
      31A      0.330296    32A      0.335948    33A      0.391801  
      34A      0.392633    35A      0.418398    36A      0.457564  
      37A      0.499000    38A      0.515258    39A      0.522029  
      40A      0.564293    41A      0.580610    42A      0.588989  
      43A      0.609122    44A      0.635369    45A      0.638269  
      46A      0.644059    47A      0.658249    48A      0.674217  
      49A      0.675023    50A      0.700543    51A      0.703451  
      52A      0.711684    53A      0.746304    54A      0.770616  
      55A      0.819971    56A      0.849173    57A      0.860874  
      58A      0.875923    59A      0.907824    60A      0.947966  
      61A      0.960155    62A      0.964535    63A      0.982460  
      64A      1.002545    65A      1.079102    66A      1.099013  
      67A      1.137816    68A      1.165075    69A      1.180730  
      70A      1.210030    71A      1.217957    72A      1.220928  
      73A      1.235995    74A      1.265854    75A      1.289374  
      76A      1.296393    77A      1.305255    78A      1.350513  
      79A      1.362984    80A      1.372147    81A      1.402340  
      82A      1.413675    83A      1.450861    84A      1.470256  
      85A      1.481812    86A      1.501643    87A      1.505101  
      88A      1.514615    89A      1.550253    90A      1.558171  
      91A      1.596425    92A      1.624207    93A      1.632086  
      94A      1.674924    95A      1.708604    96A      1.739763  
      97A      1.783954    98A      1.882091    99A      1.891226  
     100A      2.031095   101A      2.103974   102A      2.192077  
     103A      2.228244   104A      2.259235   105A      2.325268  
     106A      2.336368   107A      2.337809   108A      2.359714  
     109A      2.424583   110A      2.468113   111A      2.494567  
     112A      2.545098   113A      2.616428   114A      2.633530  
     115A      2.693779   116A      2.730498   117A      2.742871  
     118A      2.781002   119A      2.812509   120A      2.892138  
     121A      2.927901   122A      2.956001   123A      3.034075  
     124A      3.063018   125A      3.077699   126A      3.104858  
     127A      3.127912   128A      3.146713   129A      3.179852  
     130A      3.196812   131A      3.207140   132A      3.242653  
     133A      3.260511   134A      3.274372   135A      3.289451  
     136A      3.307113   137A      3.340650   138A      3.346294  
     139A      3.357792   140A      3.363672   141A      3.424314  
     142A      3.436568   143A      3.441136   144A      3.449762  
     145A      3.465282   146A      3.484556   147A      3.511376  
     148A      3.543729   149A      3.609081   150A      3.614850  
     151A      3.624429   152A      3.648276   153A      3.686410  
     154A      3.740096   155A      3.754265   156A      3.755961  
     157A      3.769394   158A      3.780932   159A      3.797138  
     160A      3.821423   161A      3.840847   162A      3.852370  
     163A      3.872264   164A      3.909547   165A      3.925843  
     166A      3.951031   167A      4.011098   168A      4.021421  
     169A      4.063388   170A      4.078977   171A      4.119023  
     172A      4.135706   173A      4.140318   174A      4.165498  
     175A      4.174438   176A      4.197628   177A      4.203248  
     178A      4.242636   179A      4.271490   180A      4.287970  
     181A      4.298426   182A      4.341647   183A      4.354416  
     184A      4.361275   185A      4.372074   186A      4.409038  
     187A      4.436808   188A      4.468130   189A      4.485700  
     190A      4.526583   191A      4.558603   192A      4.583796  
     193A      4.601439   194A      4.624903   195A      4.656397  
     196A      4.678558   197A      4.733259   198A      4.776833  
     199A      4.787529   200A      4.836896   201A      4.930145  
     202A      4.992477   203A      4.993940   204A      5.007802  
     205A      5.065127   206A      5.096055   207A      5.139097  
     208A      5.178978   209A      5.221999   210A      5.235424  
     211A      5.255821   212A      5.311522   213A      5.334710  
     214A      5.368211   215A      5.400170   216A      5.434797  
     217A      5.442545   218A      5.489857   219A      5.502595  
     220A      5.529807   221A      5.595072   222A      5.609611  
     223A      5.656784   224A      5.740090   225A      5.763085  
     226A      5.838500   227A      5.881241   228A      5.916740  
     229A      5.928966   230A      5.965257   231A      6.025607  
     232A      6.126698   233A      6.192591   234A      6.212537  
     235A      6.261465   236A      6.263858   237A      6.341164  
     238A      6.447178   239A      6.520956   240A      6.647511  
     241A      6.686365   242A      6.739574   243A      6.860511  
     244A      6.961627   245A      7.071145   246A      7.167794  
     247A      7.234924   248A      7.275963   249A      7.319850  
     250A      7.370562   251A      7.440387   252A      7.527576  
     253A      7.554886   254A      7.702087   255A      7.870078  
     256A      7.925033   257A      8.029452   258A     11.309045  
     259A     12.624789   260A     13.435853   261A     13.806426  
     262A     14.197959  

    Final Occupation by Irrep:
              A 
    DOCC [    21 ]

  Energy converged.

  @DF-RHF Final Energy:  -268.06124479771586

   => Energetics <=

    Nuclear Repulsion Energy =            190.0807782274456486
    One-Electron Energy =                -742.9624664077215357
    Two-Electron Energy =                 284.8204433825599722
    DFT Exchange-Correlation Energy =       0.0000000000000000
    Empirical Dispersion Energy =           0.0000000000000000
    PCM Polarization Energy =               0.0000000000000000
    EFP Energy =                            0.0000000000000000
    Total Energy =                       -268.0612447977159150


  Saving occupied orbitals to File 180.

*** tstop() called on cx1-27-2-4 at Sat Sep 10 16:02:40 2016
Module time:
	user time   =      13.89 seconds =       0.23 minutes
	system time =       0.53 seconds =       0.01 minutes
	total time  =          4 seconds =       0.07 minutes
Total time:
	user time   =      13.89 seconds =       0.23 minutes
	system time =       0.53 seconds =       0.01 minutes
	total time  =          4 seconds =       0.07 minutes


Properties will be evaluated at   0.000000,   0.000000,   0.000000 Bohr

Properties computed using the SCF density matrix

  Nuclear Dipole Moment: (a.u.)
     X:     2.7302      Y:    -0.6957      Z:    -0.0116

  Electronic Dipole Moment: (a.u.)
     X:    -2.6715      Y:     0.8306      Z:    -0.0619

  Dipole Moment: (a.u.)
     X:     0.0587      Y:     0.1348      Z:    -0.0735     Total:     0.1644

  Dipole Moment: (Debye)
     X:     0.1492      Y:     0.3427      Z:    -0.1869     Total:     0.4179


*** tstart() called on cx1-27-2-4
*** at Sat Sep 10 16:02:40 2016


         ------------------------------------------------------------
                                   SCF GRAD                          
                          Rob Parrish, Justin Turney,                
                       Andy Simmonett, and Alex Sokolov              
         ------------------------------------------------------------

  ==> Geometry <==

    Molecular point group: c1
    Full point group: C1

    Geometry (in Angstrom), charge = 0, multiplicity = 1:

       Center              X                  Y                   Z               Mass       
    ------------   -----------------  -----------------  -----------------  -----------------
           H         -3.097871138613     0.234436102896    -0.061720754259     1.007825032070
           O         -2.338214138613    -0.302311897104     0.071408245741    15.994914619560
           C         -1.175892138613     0.472937102896    -0.018794754259    12.000000000000
           C          0.070895861387    -0.388411897104     0.018493245741    12.000000000000
           H         -1.170838138613     1.081424102896    -0.917597754259     1.007825032070
           H         -1.176363138613     1.142054102896     0.829712245741     1.007825032070
           O          1.180135861387     0.444853102896    -0.063401754259    15.994914619560
           H          0.060518861387    -1.094403897104    -0.813590754259     1.007825032070
           H          0.084365861387    -0.968759897104     0.938596245741     1.007825032070
           C          2.403520861387    -0.212129897104    -0.009329754259    12.000000000000
           H          2.513988861387    -0.914811897104    -0.832317754259     1.007825032070
           H          3.182658861387     0.532539102896    -0.080731754259     1.007825032070
           H          2.521772861387    -0.755342897104     0.925259245741     1.007825032070

  Nuclear repulsion =  190.080778227445649

  ==> Basis Set <==

  Basis Set: CC-PVTZ
    Number of shells: 98
    Number of basis function: 262
    Number of Cartesian functions: 295
    Spherical Harmonics?: true
    Max angular momentum: 3

  ==> DFJKGrad: Density-Fitted SCF Gradients <==

    Gradient:                    1
    J tasked:                  Yes
    K tasked:                  Yes
    wK tasked:                  No
    OpenMP threads:              4
    Integrals threads:           4
    Memory (MB):              1430
    Schwarz Cutoff:          0E+00
    Fitting Condition:       1E-12

   => Auxiliary Basis Set <=

  Basis Set: 
    Number of shells: 205
    Number of basis function: 635
    Number of Cartesian functions: 760
    Spherical Harmonics?: true
    Max angular momentum: 4


  -Total Gradient:
     Atom            X                  Y                   Z
    ------   -----------------  -----------------  -----------------
       1       -0.002088588998    -0.000183611634    -0.000303930068
       2       -0.003260802407     0.011296532016     0.005856092965
       3        0.005433192653    -0.011536444590    -0.005675227829
       4        0.005917049071     0.007095855683     0.002372682864
       5       -0.001037584245     0.001831367447     0.001416150126
       6       -0.008024478133    -0.005391401230    -0.001317766054
       7        0.001830843172    -0.002400896702    -0.000786381013
       8        0.000825356594    -0.001121130541    -0.001370180416
       9       -0.000304300241    -0.000100345170    -0.000243247627
      10        0.000473388572     0.000687241118     0.000180271770
      11        0.000058544822    -0.000047300241    -0.000108676024
      12        0.000178924284    -0.000133174863    -0.000008976172
      13       -0.000001545143     0.000003308708    -0.000010812520


*** tstop() called on cx1-27-2-4 at Sat Sep 10 16:02:44 2016
Module time:
	user time   =      14.91 seconds =       0.25 minutes
	system time =       0.37 seconds =       0.01 minutes
	total time  =          4 seconds =       0.07 minutes
Total time:
	user time   =      28.89 seconds =       0.48 minutes
	system time =       0.90 seconds =       0.01 minutes
	total time  =          8 seconds =       0.13 minutes

			-----------------------------------------
			 OPTKING 2.0: for geometry optimizations 
			  - R.A. King,  Bethel University        
			-----------------------------------------

	Internal coordinates to be generated automatically.
	Detected frag 1 with atoms:  1 2 3 4 5 6 7 8 9 10 11 12 13
	---Fragment 1 Bond Connectivity---
	 1 : 2
	 2 : 1 3
	 3 : 2 4 5 6
	 4 : 3 7 8 9
	 5 : 3
	 6 : 3
	 7 : 4 10
	 8 : 4
	 9 : 4
	 10 : 7 11 12 13
	 11 : 10
	 12 : 10
	 13 : 10

	Assuming in current code that numbering for constraints corresponds to unified fragment.
	Frozen dihedral atom list: 
	     1     2     3     5
	---Fragment 1 Geometry and Gradient---
	 H          -5.8541280469        0.4430200301       -0.1166353223
	 O          -4.4185843620       -0.5712866922        0.1349420281
	 C          -2.2221141038        0.8937216026       -0.0355169383
	 C           0.1339737620       -0.7339921123        0.0349471698
	 H          -2.2125634279        2.0435953880       -1.7340084557
	 H          -2.2230041648        2.1581694834        1.5679289136
	 O           2.2301335776        0.8406505338       -0.1198119519
	 H           0.1143640739       -2.0681236443       -1.5374637098
	 H           0.1594283730       -1.8306908940        1.7736898538
	 C           4.5419961827       -0.4008674101       -0.0176306804
	 H           4.7507504491       -1.7287439486       -1.5728526111
	 H           6.0143536224        1.0063530595       -0.1525609058
	 H           4.7654600774       -1.4273912119        1.7484865764
	            -0.0020885890       -0.0001836116       -0.0003039301
	            -0.0032608024        0.0112965320        0.0058560930
	             0.0054331927       -0.0115364446       -0.0056752278
	             0.0059170491        0.0070958557        0.0023726829
	            -0.0010375842        0.0018313674        0.0014161501
	            -0.0080244781       -0.0053914012       -0.0013177661
	             0.0018308432       -0.0024008967       -0.0007863810
	             0.0008253566       -0.0011211305       -0.0013701804
	            -0.0003043002       -0.0001003452       -0.0002432476
	             0.0004733886        0.0006872411        0.0001802718
	             0.0000585448       -0.0000473002       -0.0001086760
	             0.0001789243       -0.0001331749       -0.0000089762
	            -0.0000015451        0.0000033087       -0.0000108125

	Previous optimization step data not found.  Starting new optimization.

	---Fragment 1 Intrafragment Coordinates---
	 - Coordinate -           - BOHR/RAD -       - ANG/DEG -
	 R(1,2)           =         1.775639	       0.939628
	 R(2,3)           =         2.645711	       1.400050
	 R(3,4)           =         2.864536	       1.515847
	 R(3,5)           =         2.051140	       1.085416
	 R(3,6)           =         2.042025	       1.080593
	 R(4,7)           =         2.626278	       1.389766
	 R(4,8)           =         2.062224	       1.091282
	 R(4,9)           =         2.055875	       1.087922
	 R(7,10)          =         2.626122	       1.389684
	 R(10,11)         =         2.055614	       1.087784
	 R(10,12)         =         2.041155	       1.080132
	 R(10,13)         =         2.054959	       1.087438
	 B(1,2,3)         =         1.923835	     110.227629
	 B(2,3,4)         =         1.946161	     111.506792
	 B(2,3,5)         =         1.947265	     111.570086
	 B(2,3,6)         =         1.867034	     106.973163
	 B(3,4,7)         =         1.890552	     108.320679
	 B(3,4,8)         =         1.918811	     109.939763
	 B(3,4,9)         =         1.911455	     109.518295
	 B(4,3,5)         =         1.912498	     109.578043
	 B(4,3,6)         =         1.910171	     109.444754
	 B(4,7,10)        =         2.000820	     114.638517
	 B(5,3,6)         =         1.878731	     107.643376
	 B(7,4,8)         =         1.928949	     110.520633
	 B(7,4,9)         =         1.938844	     111.087574
	 B(7,10,11)       =         1.944808	     111.429268
	 B(7,10,12)       =         1.882324	     107.849249
	 B(7,10,13)       =         1.944783	     111.427887
	 B(8,4,9)         =         1.875359	     107.450155
	 B(11,10,12)      =         1.898726	     108.788991
	 B(11,10,13)      =         1.892833	     108.451363
	 B(12,10,13)      =         1.899444	     108.830148
	 D(1,2,3,4)       =        -3.017545	    -172.892588
	*D(1,2,3,5)       =        -0.872664	     -49.999957
	 D(1,2,3,6)       =         1.177726	      67.478752
	 D(2,3,4,7)       =        -3.132841	    -179.498577
	 D(2,3,4,8)       =         1.040949	      59.642003
	 D(2,3,4,9)       =        -1.015794	     -58.200713
	 D(3,4,7,10)      =         3.117099	     178.596619
	 D(4,7,10,11)     =         1.059539	      60.707136
	 D(4,7,10,12)     =        -3.140891	    -179.959822
	 D(4,7,10,13)     =        -1.057271	     -60.577150
	 D(5,3,4,7)       =         0.985714	      56.477232
	 D(5,3,4,8)       =        -1.123681	     -64.382187
	 D(5,3,4,9)       =         3.102761	     177.775097
	 D(6,3,4,7)       =        -1.070644	     -61.343385
	 D(6,3,4,8)       =         3.103146	     177.797195
	 D(6,3,4,9)       =         1.046403	      59.954479
	 D(8,4,7,10)      =        -1.062989	     -60.904793
	 D(9,4,7,10)      =         1.017044	      58.272305

	Current energy   :      -268.0612447977

	Generating empirical Hessian (Schlegel '84) for each fragment.
	Taking RFO optimization step.
	Going to follow RFO solution 1.
	Using RFO vector 1.
	Norm of target step-size    0.20419
	Projected energy change by RFO approximation:        -0.0065556772

	Back-transformation to cartesian coordinates...
	Could not converge backtransformation.
	Using first guess instead.

	Back-transformation to cartesian coordinates to adjust frozen coordinates...
	Successfully converged to displaced geometry.

	--- Internal Coordinate Step in ANG or DEG, aJ/ANG or AJ/DEG ---
	 ---------------------------------------------------------------------------
	   Coordinate                Previous        Force       Change         New 
	   ----------                --------       ------       ------       ------
	    1 R(1,2)          =      0.939628    -0.013402     0.001407     0.941034
	    2 R(2,3)          =      1.400050     0.011162     0.004621     1.404671
	    3 R(3,4)          =      1.515847    -0.042196    -0.008265     1.507583
	    4 R(3,5)          =      1.085416     0.001243     0.000714     1.086130
	    5 R(3,6)          =      1.080593     0.036000     0.007584     1.088177
	    6 R(4,7)          =      1.389766    -0.007720    -0.001034     1.388732
	    7 R(4,8)          =      1.091282    -0.014518    -0.002419     1.088863
	    8 R(4,9)          =      1.087922     0.001285     0.000234     1.088157
	    9 R(7,10)         =      1.389684    -0.003174    -0.000205     1.389479
	   10 R(10,11)        =      1.087784    -0.000978    -0.000001     1.087783
	   11 R(10,12)        =      1.080132    -0.000312    -0.000034     1.080098
	   12 R(10,13)        =      1.087438     0.000092     0.000108     1.087546
	   13 B(1,2,3)        =    110.227629    -0.000181    -0.724073   109.503557
	   14 B(2,3,4)        =    111.506792    -0.001264    -4.604132   106.902660
	   15 B(2,3,5)        =    111.570086     0.000284    -0.383752   111.186334
	   16 B(2,3,6)        =    106.973163     0.000892     5.909885   112.883047
	   17 B(3,4,7)        =    108.320679    -0.000319    -1.172473   107.148206
	   18 B(3,4,8)        =    109.939763     0.000015    -0.047093   109.892670
	   19 B(3,4,9)        =    109.518295     0.000103     0.278216   109.796511
	   20 B(4,3,5)        =    109.578043     0.000378    -0.893044   108.684998
	   21 B(4,3,6)        =    109.444754    -0.000055    -0.336233   109.108522
	   22 B(4,7,10)       =    114.638517    -0.000126    -0.375904   114.262613
	   23 B(5,3,6)        =    107.643376    -0.000198     0.347221   107.990597
	   24 B(7,4,8)        =    110.520633     0.000161     0.702315   111.222948
	   25 B(7,4,9)        =    111.087574     0.000065    -0.007514   111.080060
	   26 B(7,10,11)      =    111.429268     0.000002     0.012037   111.441305
	   27 B(7,10,12)      =    107.849249    -0.000025    -0.119428   107.729822
	   28 B(7,10,13)      =    111.427887     0.000004     0.023336   111.451223
	   29 B(8,4,9)        =    107.450155    -0.000019     0.257293   107.707448
	   30 B(11,10,12)     =    108.788991     0.000011     0.050273   108.839264
	   31 B(11,10,13)     =    108.451363     0.000001     0.017492   108.468854
	   32 B(12,10,13)     =    108.830148     0.000007     0.017262   108.847410
	   33 D(1,2,3,4)      =   -172.892588     0.000051     4.410622  -168.481966
	   34 *D(1,2,3,5)     =    -49.999957    -0.000000    -0.000000   -49.999957
	   35 D(1,2,3,6)      =     67.478752     0.000105     4.064388    71.543140
	   36 D(2,3,4,7)      =   -179.498577    -0.000036    -2.011077  -181.509654
	   37 D(2,3,4,8)      =     59.642003    -0.000037    -2.117784    57.524219
	   38 D(2,3,4,9)      =    -58.200713    -0.000048    -2.570812   -60.771524
	   39 D(3,4,7,10)     =    178.596619     0.000005     0.418080   179.014699
	   40 D(4,7,10,11)    =     60.707136     0.000000    -0.096448    60.610688
	   41 D(4,7,10,12)    =   -179.959822    -0.000000    -0.103090  -180.062913
	   42 D(4,7,10,13)    =    -60.577150    -0.000001    -0.143564   -60.720714
	   43 D(5,3,4,7)      =     56.477232     0.000021     1.913673    58.390905
	   44 D(5,3,4,8)      =    -64.382187     0.000019     1.806966   -62.575222
	   45 D(5,3,4,9)      =    177.775097     0.000008     1.353938   179.129035
	   46 D(6,3,4,7)      =    -61.343385     0.000032     2.203646   -59.139739
	   47 D(6,3,4,8)      =    177.797195     0.000030     2.096939   179.894134
	   48 D(6,3,4,9)      =     59.954479     0.000020     1.643911    61.598390
	   49 D(8,4,7,10)     =    -60.904793    -0.000015     0.040095   -60.864698
	   50 D(9,4,7,10)     =     58.272305     0.000014     0.821878    59.094183
	 ---------------------------------------------------------------------------
	Successfully symmetrized geometry.

  ==> Convergence Check <==

  Measures of convergence in internal coordinates in au.
  Criteria marked as inactive (o), active & met (*), and active & unmet ( ).
  --------------------------------------------------------------------------------------------- ~
   Step     Total Energy     Delta E     MAX Force     RMS Force      MAX Disp      RMS Disp    ~
  --------------------------------------------------------------------------------------------- ~
    Convergence Criteria    1.00e-06 *    3.00e-04 *             o    1.20e-03 *             o  ~
  --------------------------------------------------------------------------------------------- ~
      1    -268.06124480   -2.68e+02      1.66e-02      3.52e-03 o    1.03e-01      2.86e-02 o  ~
  ---------------------------------------------------------------------------------------------

	Writing optimization data to binary file.
	Structure for next step:
	Cartesian Geometry (in Angstrom)
	    H    -3.0620936492   0.1543116941  -0.1295726150
	    O    -2.2847108488  -0.3406823579   0.0606972750
	    C    -1.1653234580   0.5063936677   0.0103625732
	    C     0.0552177936  -0.3781706405   0.0354681223
	    H    -1.1544319714   1.0884299450  -0.9065855128
	    H    -1.1206888500   1.1988915301   0.8485651787
	    O     1.1648168929   0.4526286606  -0.0490308015
	    H     0.0226133841  -1.0782542574  -0.7978635916
	    H     0.0704450051  -0.9591566965   0.9554182244
	    C     2.3824605349  -0.2158902065  -0.0161910387
	    H     2.4770683046  -0.9108802518  -0.8476413761
	    H     3.1659718135   0.5239724409  -0.0891658244
	    H     2.5073342469  -0.7695221903   0.9115235809
			--------------------------
			 OPTKING Finished Execution 
			--------------------------

    Structure for next step:
    Molecular point group: c1
    Full point group: C1

    Geometry (in Angstrom), charge = 0, multiplicity = 1:

    H           -3.065835932957     0.154568470009    -0.135969850426
    O           -2.288453132579    -0.340425581945     0.054300039591
    C           -1.169065741753     0.506650443611     0.003965337753
    C            0.051475509788    -0.377913864555     0.029070886825
    H           -1.158174255154     1.088686720957    -0.912982748206
    H           -1.124431133810     1.199148305977     0.842167943277
    O            1.161074609104     0.452885436550    -0.055428036908
    H            0.018871100308    -1.077997481467    -0.804260827001
    H            0.066702721329    -0.958899920597     0.949020988939
    C            2.378718251147    -0.215633430572    -0.022588274198
    H            2.473326020825    -0.910623475890    -0.854038611520
    H            3.162229529690     0.524229216846    -0.095563059839
    H            2.503591963135    -0.769265414364     0.905126345500

gradient() will perform analytic gradient computation.

*** tstart() called on cx1-27-2-4
*** at Sat Sep 10 16:02:45 2016


         ---------------------------------------------------------
                                   SCF
            by Justin Turney, Rob Parrish, and Andy Simmonett
                              RHF Reference
                        4 Threads,   2000 MiB Core
         ---------------------------------------------------------

  ==> Geometry <==

    Molecular point group: c1
    Full point group: C1

    Geometry (in Angstrom), charge = 0, multiplicity = 1:

       Center              X                  Y                   Z               Mass       
    ------------   -----------------  -----------------  -----------------  -----------------
           H         -3.065835932957     0.154568470009    -0.135969850426     1.007825032070
           O         -2.288453132579    -0.340425581945     0.054300039591    15.994914619560
           C         -1.169065741753     0.506650443611     0.003965337753    12.000000000000
           C          0.051475509788    -0.377913864555     0.029070886825    12.000000000000
           H         -1.158174255154     1.088686720957    -0.912982748206     1.007825032070
           H         -1.124431133810     1.199148305977     0.842167943277     1.007825032070
           O          1.161074609104     0.452885436550    -0.055428036908    15.994914619560
           H          0.018871100308    -1.077997481467    -0.804260827001     1.007825032070
           H          0.066702721329    -0.958899920597     0.949020988939     1.007825032070
           C          2.378718251147    -0.215633430572    -0.022588274198    12.000000000000
           H          2.473326020825    -0.910623475890    -0.854038611520     1.007825032070
           H          3.162229529690     0.524229216846    -0.095563059839     1.007825032070
           H          2.503591963135    -0.769265414364     0.905126345500     1.007825032070

  Running in c1 symmetry.

  Rotational constants: A =      0.77631  B =      0.07358  C =      0.06984 [cm^-1]
  Rotational constants: A =  23273.17005  B =   2205.84884  C =   2093.71752 [MHz]
  Nuclear repulsion =  191.026544206443816

  Charge       = 0
  Multiplicity = 1
  Electrons    = 42
  Nalpha       = 21
  Nbeta        = 21

  ==> Algorithm <==

  SCF Algorithm Type is DF.
  DIIS enabled.
  MOM disabled.
  Fractional occupation disabled.
  Guess Type is READ.
  Energy threshold   = 1.00e-08
  Density threshold  = 1.00e-08
  Integral threshold = 0.00e+00

  ==> Primary Basis <==

  Basis Set: CC-PVTZ
    Number of shells: 98
    Number of basis function: 262
    Number of Cartesian functions: 295
    Spherical Harmonics?: true
    Max angular momentum: 3

  ==> Pre-Iterations <==

   -------------------------------------------------------
    Irrep   Nso     Nmo     Nalpha   Nbeta   Ndocc  Nsocc
   -------------------------------------------------------
     A        262     262       0       0       0       0
   -------------------------------------------------------
    Total     262     262      21      21      21       0
   -------------------------------------------------------

  ==> Integral Setup <==

  ==> DFJK: Density-Fitted J/K Matrices <==

    J tasked:                  Yes
    K tasked:                  Yes
    wK tasked:                  No
    OpenMP threads:              4
    Integrals threads:           4
    Memory (MB):              1430
    Algorithm:                Core
    Integral Cache:           NONE
    Schwarz Cutoff:          1E-12
    Fitting Condition:       1E-12

   => Auxiliary Basis Set <=

  Basis Set: 
    Number of shells: 205
    Number of basis function: 635
    Number of Cartesian functions: 760
    Spherical Harmonics?: true
    Max angular momentum: 4

  Minimum eigenvalue in the overlap matrix is 7.0119988879E-04.
  Using Symmetric Orthogonalization.
  SCF Guess: Reading in previously saved MOs, projecting if necessary.

  Using orbitals from previous SCF, no projection.
  Recomputing DOCC and SOCC from number of alpha and beta electrons from previous calculation.
              A 
    DOCC [    21 ]

  ==> Iterations <==

                           Total Energy        Delta E     RMS |[F,P]|

   @DF-RHF iter   0:  -268.05841691127961   -2.68058e+02   4.59978e-04 
   @DF-RHF iter   1:  -268.06211415664148   -3.69725e-03   6.97821e-05 
   @DF-RHF iter   2:  -268.06239061131038   -2.76455e-04   2.80188e-05 DIIS
   @DF-RHF iter   3:  -268.06243942804213   -4.88167e-05   1.42642e-05 DIIS
   @DF-RHF iter   4:  -268.06244888429126   -9.45625e-06   3.12114e-06 DIIS
   @DF-RHF iter   5:  -268.06244974339916   -8.59108e-07   9.48570e-07 DIIS
   @DF-RHF iter   6:  -268.06244982601925   -8.26201e-08   2.74186e-07 DIIS
   @DF-RHF iter   7:  -268.06244983113976   -5.12051e-09   8.88973e-08 DIIS
   @DF-RHF iter   8:  -268.06244983156432   -4.24563e-10   2.69456e-08 DIIS
   @DF-RHF iter   9:  -268.06244983160155   -3.72324e-11   8.61087e-09 DIIS

  ==> Post-Iterations <==

    Orbital Energies (a.u.)
    -----------------------

    Doubly Occupied:                                                      

       1A    -20.552581     2A    -20.552471     3A    -11.267184  
       4A    -11.264586     5A    -11.264256     6A     -1.389728  
       7A     -1.367001     8A     -1.020389     9A     -0.911028  
      10A     -0.831313    11A     -0.711399    12A     -0.686790  
      13A     -0.644172    14A     -0.633981    15A     -0.621104  
      16A     -0.554470    17A     -0.538208    18A     -0.497384  
      19A     -0.472432    20A     -0.445461    21A     -0.421301  

    Virtual:                                                              

      22A      0.143755    23A      0.149853    24A      0.188680  
      25A      0.195460    26A      0.201286    27A      0.229029  
      28A      0.235110    29A      0.263159    30A      0.271327  
      31A      0.325973    32A      0.335211    33A      0.392773  
      34A      0.396705    35A      0.414510    36A      0.463748  
      37A      0.496540    38A      0.520630    39A      0.523624  
      40A      0.561028    41A      0.581744    42A      0.585765  
      43A      0.611672    44A      0.636613    45A      0.639768  
      46A      0.644768    47A      0.657148    48A      0.669171  
      49A      0.676991    50A      0.697007    51A      0.705074  
      52A      0.713422    53A      0.752395    54A      0.773594  
      55A      0.815574    56A      0.847470    57A      0.862222  
      58A      0.870896    59A      0.914179    60A      0.947888  
      61A      0.953602    62A      0.972023    63A      0.995526  
      64A      1.005663    65A      1.081121    66A      1.120310  
      67A      1.139874    68A      1.169346    69A      1.182482  
      70A      1.206710    71A      1.217568    72A      1.223391  
      73A      1.239020    74A      1.272834    75A      1.294268  
      76A      1.300631    77A      1.305658    78A      1.347038  
      79A      1.361855    80A      1.366902    81A      1.401101  
      82A      1.412931    83A      1.444889    84A      1.456633  
      85A      1.482600    86A      1.497059    87A      1.506607  
      88A      1.509949    89A      1.547719    90A      1.555265  
      91A      1.598784    92A      1.624529    93A      1.629693  
      94A      1.664758    95A      1.710477    96A      1.731497  
      97A      1.787074    98A      1.885527    99A      1.905853  
     100A      2.061592   101A      2.107902   102A      2.194827  
     103A      2.230787   104A      2.256998   105A      2.304546  
     106A      2.322633   107A      2.331622   108A      2.367619  
     109A      2.424213   110A      2.475315   111A      2.496194  
     112A      2.549958   113A      2.613822   114A      2.638618  
     115A      2.695787   116A      2.729417   117A      2.746388  
     118A      2.801117   119A      2.805487   120A      2.907596  
     121A      2.924356   122A      2.968188   123A      3.031119  
     124A      3.063459   125A      3.089314   126A      3.106704  
     127A      3.132803   128A      3.144231   129A      3.179611  
     130A      3.197910   131A      3.210999   132A      3.245864  
     133A      3.262288   134A      3.265856   135A      3.291443  
     136A      3.310151   137A      3.345193   138A      3.352229  
     139A      3.361431   140A      3.371850   141A      3.418739  
     142A      3.427188   143A      3.442969   144A      3.461999  
     145A      3.467474   146A      3.483155   147A      3.513221  
     148A      3.549651   149A      3.607338   150A      3.613149  
     151A      3.625112   152A      3.665153   153A      3.687470  
     154A      3.737649   155A      3.752035   156A      3.760826  
     157A      3.777206   158A      3.788426   159A      3.807615  
     160A      3.818824   161A      3.829897   162A      3.842192  
     163A      3.872029   164A      3.909490   165A      3.934987  
     166A      3.944917   167A      4.006256   168A      4.043000  
     169A      4.067605   170A      4.082248   171A      4.126462  
     172A      4.139252   173A      4.150255   174A      4.162348  
     175A      4.164848   176A      4.184653   177A      4.206015  
     178A      4.237385   179A      4.272200   180A      4.283640  
     181A      4.296578   182A      4.341200   183A      4.363185  
     184A      4.367887   185A      4.383446   186A      4.407055  
     187A      4.419663   188A      4.471560   189A      4.474998  
     190A      4.529569   191A      4.562837   192A      4.594880  
     193A      4.610501   194A      4.638843   195A      4.656381  
     196A      4.686229   197A      4.724351   198A      4.764649  
     199A      4.781738   200A      4.836504   201A      4.931852  
     202A      4.983696   203A      4.996757   204A      5.010767  
     205A      5.064976   206A      5.103680   207A      5.140403  
     208A      5.181879   209A      5.213035   210A      5.242966  
     211A      5.251493   212A      5.316609   213A      5.347435  
     214A      5.371744   215A      5.399174   216A      5.433292  
     217A      5.439985   218A      5.487361   219A      5.491278  
     220A      5.535363   221A      5.599131   222A      5.611352  
     223A      5.657614   224A      5.707673   225A      5.771227  
     226A      5.809097   227A      5.870157   228A      5.921498  
     229A      5.944018   230A      5.968575   231A      6.010532  
     232A      6.131981   233A      6.195400   234A      6.212247  
     235A      6.260522   236A      6.282045   237A      6.341336  
     238A      6.462576   239A      6.516141   240A      6.656740  
     241A      6.668938   242A      6.734976   243A      6.869844  
     244A      6.966976   245A      7.065168   246A      7.163156  
     247A      7.234431   248A      7.275126   249A      7.328301  
     250A      7.372300   251A      7.423339   252A      7.525219  
     253A      7.554887   254A      7.705494   255A      7.874846  
     256A      7.926244   257A      8.033110   258A     11.352215  
     259A     12.704817   260A     13.399662   261A     13.842818  
     262A     14.213438  

    Final Occupation by Irrep:
              A 
    DOCC [    21 ]

  Energy converged.

  @DF-RHF Final Energy:  -268.06244983160155

   => Energetics <=

    Nuclear Repulsion Energy =            191.0265442064438162
    One-Electron Energy =                -744.8835094498634817
    Two-Electron Energy =                 285.7945154118182813
    DFT Exchange-Correlation Energy =       0.0000000000000000
    Empirical Dispersion Energy =           0.0000000000000000
    PCM Polarization Energy =               0.0000000000000000
    EFP Energy =                            0.0000000000000000
    Total Energy =                       -268.0624498316013273


  Saving occupied orbitals to File 180.

*** tstop() called on cx1-27-2-4 at Sat Sep 10 16:02:48 2016
Module time:
	user time   =      11.17 seconds =       0.19 minutes
	system time =       0.29 seconds =       0.00 minutes
	total time  =          3 seconds =       0.05 minutes
Total time:
	user time   =      41.87 seconds =       0.70 minutes
	system time =       1.27 seconds =       0.02 minutes
	total time  =         12 seconds =       0.20 minutes


Properties will be evaluated at   0.000000,   0.000000,   0.000000 Bohr

Properties computed using the SCF density matrix

  Nuclear Dipole Moment: (a.u.)
     X:     2.6910      Y:    -0.7027      Z:    -0.0998

  Electronic Dipole Moment: (a.u.)
     X:    -2.6768      Y:     0.8347      Z:    -0.0065

  Dipole Moment: (a.u.)
     X:     0.0142      Y:     0.1320      Z:    -0.1063     Total:     0.1701

  Dipole Moment: (Debye)
     X:     0.0361      Y:     0.3356      Z:    -0.2703     Total:     0.4324


*** tstart() called on cx1-27-2-4
*** at Sat Sep 10 16:02:48 2016


         ------------------------------------------------------------
                                   SCF GRAD                          
                          Rob Parrish, Justin Turney,                
                       Andy Simmonett, and Alex Sokolov              
         ------------------------------------------------------------

  ==> Geometry <==

    Molecular point group: c1
    Full point group: C1

    Geometry (in Angstrom), charge = 0, multiplicity = 1:

       Center              X                  Y                   Z               Mass       
    ------------   -----------------  -----------------  -----------------  -----------------
           H         -3.065835932957     0.154568470009    -0.135969850426     1.007825032070
           O         -2.288453132579    -0.340425581945     0.054300039591    15.994914619560
           C         -1.169065741753     0.506650443611     0.003965337753    12.000000000000
           C          0.051475509788    -0.377913864555     0.029070886825    12.000000000000
           H         -1.158174255154     1.088686720957    -0.912982748206     1.007825032070
           H         -1.124431133810     1.199148305977     0.842167943277     1.007825032070
           O          1.161074609104     0.452885436550    -0.055428036908    15.994914619560
           H          0.018871100308    -1.077997481467    -0.804260827001     1.007825032070
           H          0.066702721329    -0.958899920597     0.949020988939     1.007825032070
           C          2.378718251147    -0.215633430572    -0.022588274198    12.000000000000
           H          2.473326020825    -0.910623475890    -0.854038611520     1.007825032070
           H          3.162229529690     0.524229216846    -0.095563059839     1.007825032070
           H          2.503591963135    -0.769265414364     0.905126345500     1.007825032070

  Nuclear repulsion =  191.026544206443816

  ==> Basis Set <==

  Basis Set: CC-PVTZ
    Number of shells: 98
    Number of basis function: 262
    Number of Cartesian functions: 295
    Spherical Harmonics?: true
    Max angular momentum: 3

  ==> DFJKGrad: Density-Fitted SCF Gradients <==

    Gradient:                    1
    J tasked:                  Yes
    K tasked:                  Yes
    wK tasked:                  No
    OpenMP threads:              4
    Integrals threads:           4
    Memory (MB):              1430
    Schwarz Cutoff:          0E+00
    Fitting Condition:       1E-12

   => Auxiliary Basis Set <=

  Basis Set: 
    Number of shells: 205
    Number of basis function: 635
    Number of Cartesian functions: 760
    Spherical Harmonics?: true
    Max angular momentum: 4


  -Total Gradient:
     Atom            X                  Y                   Z
    ------   -----------------  -----------------  -----------------
       1       -0.001095554260     0.002299996695    -0.001455484034
       2        0.001655139041    -0.006976192151    -0.000780730988
       3        0.000801730542     0.003664908638     0.003203348221
       4       -0.000549575033    -0.000892947849    -0.000428871471
       5        0.000501402364    -0.000219830681    -0.000714978860
       6        0.003178013558     0.002223070862     0.000634391213
       7       -0.003669834037     0.001477756030    -0.000233590615
       8        0.000050946983    -0.000900467330    -0.000409065641
       9       -0.000061953079     0.000058796235     0.000060042076
      10       -0.000432780614    -0.000864044538     0.000223490105
      11        0.000008154648    -0.000066091681    -0.000113765277
      12       -0.000406656173     0.000192845932    -0.000001529426
      13        0.000020966057     0.000002199838     0.000016744697


*** tstop() called on cx1-27-2-4 at Sat Sep 10 16:02:52 2016
Module time:
	user time   =      14.45 seconds =       0.24 minutes
	system time =       0.37 seconds =       0.01 minutes
	total time  =          4 seconds =       0.07 minutes
Total time:
	user time   =      56.42 seconds =       0.94 minutes
	system time =       1.64 seconds =       0.03 minutes
	total time  =         16 seconds =       0.27 minutes

			-----------------------------------------
			 OPTKING 2.0: for geometry optimizations 
			  - R.A. King,  Bethel University        
			-----------------------------------------

	Previous internal coordinate definitions found.
	---Fragment 1 Geometry and Gradient---
	 H          -5.7935902816        0.2920920771       -0.2569457796
	 O          -4.3245496885       -0.6433111185        0.1026122038
	 C          -2.2092140833        0.9574305835        0.0074934024
	 C           0.0972746160       -0.7141537058        0.0549360145
	 H          -2.1886321564        2.0573197471       -1.7252873582
	 H          -2.1248668982        2.2660618910        1.5914667707
	 O           2.1941130311        0.8558294447       -0.1047438098
	 H           0.0356612114       -2.0371200119       -1.5198327024
	 H           0.1260498756       -1.8120582388        1.7933897635
	 C           4.4951260420       -0.4074881289       -0.0426856520
	 H           4.6739088167       -1.7208289796       -1.6138990827
	 H           5.9757477804        0.9906496507       -0.1805880115
	 H           4.7311031588       -1.4537009566        1.7104409087
	            -0.0010955543        0.0022999967       -0.0014554840
	             0.0016551390       -0.0069761922       -0.0007807310
	             0.0008017305        0.0036649086        0.0032033482
	            -0.0005495750       -0.0008929478       -0.0004288715
	             0.0005014024       -0.0002198307       -0.0007149789
	             0.0031780136        0.0022230709        0.0006343912
	            -0.0036698340        0.0014777560       -0.0002335906
	             0.0000509470       -0.0009004673       -0.0004090656
	            -0.0000619531        0.0000587962        0.0000600421
	            -0.0004327806       -0.0008640445        0.0002234901
	             0.0000081546       -0.0000660917       -0.0001137653
	            -0.0004066562        0.0001928459       -0.0000015294
	             0.0000209661        0.0000021998        0.0000167447

	---Fragment 1 Intrafragment Coordinates---
	 - Coordinate -           - BOHR/RAD -       - ANG/DEG -
	 R(1,2)           =         1.778297	       0.941034
	 R(2,3)           =         2.654443	       1.404671
	 R(3,4)           =         2.848918	       1.507583
	 R(3,5)           =         2.052488	       1.086130
	 R(3,6)           =         2.056356	       1.088177
	 R(4,7)           =         2.624324	       1.388732
	 R(4,8)           =         2.057652	       1.088863
	 R(4,9)           =         2.056318	       1.088157
	 R(7,10)          =         2.625735	       1.389479
	 R(10,11)         =         2.055612	       1.087783
	 R(10,12)         =         2.041090	       1.080098
	 R(10,13)         =         2.055164	       1.087546
	 B(1,2,3)         =         1.911198	     109.503557
	 B(2,3,4)         =         1.865803	     106.902660
	 B(2,3,5)         =         1.940568	     111.186334
	 B(2,3,6)         =         1.970181	     112.883047
	 B(3,4,7)         =         1.870089	     107.148206
	 B(3,4,8)         =         1.917989	     109.892670
	 B(3,4,9)         =         1.916311	     109.796511
	 B(4,3,5)         =         1.896911	     108.684998
	 B(4,3,6)         =         1.904303	     109.108522
	 B(4,7,10)        =         1.994259	     114.262613
	 B(5,3,6)         =         1.884791	     107.990597
	 B(7,4,8)         =         1.941207	     111.222948
	 B(7,4,9)         =         1.938713	     111.080060
	 B(7,10,11)       =         1.945018	     111.441305
	 B(7,10,12)       =         1.880240	     107.729822
	 B(7,10,13)       =         1.945191	     111.451223
	 B(8,4,9)         =         1.879850	     107.707448
	 B(11,10,12)      =         1.899604	     108.839264
	 B(11,10,13)      =         1.893139	     108.468854
	 B(12,10,13)      =         1.899746	     108.847410
	 D(1,2,3,4)       =        -2.940565	    -168.481966
	*D(1,2,3,5)       =        -0.872664	     -49.999957
	 D(1,2,3,6)       =         1.248663	      71.543140
	 D(2,3,4,7)       =         3.115244	     178.490346
	 D(2,3,4,8)       =         1.003987	      57.524219
	 D(2,3,4,9)       =        -1.060663	     -60.771524
	 D(3,4,7,10)      =         3.124396	     179.014699
	 D(4,7,10,11)     =         1.057856	      60.610688
	 D(4,7,10,12)     =         3.140495	     179.937087
	 D(4,7,10,13)     =        -1.059776	     -60.720714
	 D(5,3,4,7)       =         1.019114	      58.390905
	 D(5,3,4,8)       =        -1.092144	     -62.575222
	 D(5,3,4,9)       =         3.126391	     179.129035
	 D(6,3,4,7)       =        -1.032183	     -59.139739
	 D(6,3,4,8)       =         3.139745	     179.894134
	 D(6,3,4,9)       =         1.075095	      61.598390
	 D(8,4,7,10)      =        -1.062289	     -60.864698
	 D(9,4,7,10)      =         1.031388	      59.094183

	Current energy   :      -268.0624498316

	Energy change for the previous step:
		Projected    :        -0.0065556772
		Actual       :        -0.0012050339
	Energy ratio indicates iffy step: Trust radius decreased to 1.250e-01.


	Performing BFGS update.
	Previous computed or guess Hessian on step 1.
	Steps to be used in Hessian update: 1
	Taking RFO optimization step.
	Going to follow RFO solution 1.
	Using RFO vector 1.
	Norm of target step-size    0.10690
	Projected energy change by RFO approximation:        -0.0002367849

	Back-transformation to cartesian coordinates...
	Could not converge backtransformation.
	Using first guess instead.

	Back-transformation to cartesian coordinates to adjust frozen coordinates...
	Successfully converged to displaced geometry.

	--- Internal Coordinate Step in ANG or DEG, aJ/ANG or AJ/DEG ---
	 ---------------------------------------------------------------------------
	   Coordinate                Previous        Force       Change         New 
	   ----------                --------       ------       ------       ------
	    1 R(1,2)          =      0.941034    -0.019848    -0.002005     0.939029
	    2 R(2,3)          =      1.404671    -0.018899    -0.002000     1.402671
	    3 R(3,4)          =      1.507583     0.028949     0.004003     1.511586
	    4 R(3,5)          =      1.086130    -0.004044    -0.000474     1.085656
	    5 R(3,6)          =      1.088177    -0.016755    -0.002196     1.085981
	    6 R(4,7)          =      1.388732     0.025777     0.002623     1.391355
	    7 R(4,8)          =      1.088863    -0.007337    -0.001060     1.087802
	    8 R(4,9)          =      1.088157    -0.000152     0.000060     1.088217
	    9 R(7,10)         =      1.389479     0.002912     0.000220     1.389699
	   10 R(10,11)        =      1.087783    -0.001070    -0.000142     1.087641
	   11 R(10,12)        =      1.080098     0.001341     0.000262     1.080360
	   12 R(10,13)        =      1.087546    -0.000128     0.000058     1.087604
	   13 B(1,2,3)        =    109.503557     0.000197     0.631223   110.134780
	   14 B(2,3,4)        =    106.902660     0.000323     0.726215   107.628875
	   15 B(2,3,5)        =    111.186334    -0.000039     0.383827   111.570161
	   16 B(2,3,6)        =    112.883047    -0.000307    -1.589678   111.293370
	   17 B(3,4,7)        =    107.148206     0.000367     0.927695   108.075901
	   18 B(3,4,8)        =    109.892670    -0.000114    -0.319036   109.573634
	   19 B(3,4,9)        =    109.796511    -0.000072    -0.110288   109.686223
	   20 B(4,3,5)        =    108.684998    -0.000053     0.655250   109.340248
	   21 B(4,3,6)        =    109.108522     0.000030    -0.004877   109.103645
	   22 B(4,7,10)       =    114.262613     0.000141     0.289788   114.552401
	   23 B(5,3,6)        =    107.990597     0.000054    -0.119033   107.871564
	   24 B(7,4,8)        =    111.222948    -0.000108    -0.194091   111.028857
	   25 B(7,4,9)        =    111.080060    -0.000123    -0.221260   110.858800
	   26 B(7,10,11)      =    111.441305    -0.000008    -0.035445   111.405860
	   27 B(7,10,12)      =    107.729822     0.000051     0.180990   107.910812
	   28 B(7,10,13)      =    111.451223    -0.000011    -0.045451   111.405772
	   29 B(8,4,9)        =    107.707448     0.000045    -0.096054   107.611394
	   30 B(11,10,12)     =    108.839264    -0.000014    -0.030284   108.808981
	   31 B(11,10,13)     =    108.468854    -0.000005    -0.040835   108.428019
	   32 B(12,10,13)     =    108.847410    -0.000013    -0.028488   108.818921
	   33 D(1,2,3,4)      =   -168.481966    -0.000025    -1.470953  -169.952918
	   34 *D(1,2,3,5)     =    -49.999957     0.000000     0.000000   -49.999957
	   35 D(1,2,3,6)      =     71.543140    -0.000041    -0.995695    70.547445
	   36 D(2,3,4,7)      =    178.490346     0.000022     2.533017   181.023364
	   37 D(2,3,4,8)      =     57.524219     0.000016     2.390012    59.914232
	   38 D(2,3,4,9)      =    -60.771524     0.000029     2.764057   -58.007467
	   39 D(3,4,7,10)     =    179.014699     0.000004     0.320626   179.335326
	   40 D(4,7,10,11)    =     60.610688    -0.000002    -0.109084    60.501605
	   41 D(4,7,10,12)    =    179.937087    -0.000000    -0.052887   179.884200
	   42 D(4,7,10,13)    =    -60.720714     0.000002    -0.000354   -60.721067
	   43 D(5,3,4,7)      =     58.390905    -0.000003     1.276046    59.666952
	   44 D(5,3,4,8)      =    -62.575222    -0.000009     1.133041   -61.442180
	   45 D(5,3,4,9)      =    179.129035     0.000005     1.507086   180.636121
	   46 D(6,3,4,7)      =    -59.139739    -0.000014     1.047441   -58.092298
	   47 D(6,3,4,8)      =    179.894134    -0.000020     0.904436   180.798570
	   48 D(6,3,4,9)      =     61.598390    -0.000007     1.278481    62.876871
	   49 D(8,4,7,10)     =    -60.864698     0.000010     0.400834   -60.463865
	   50 D(9,4,7,10)     =     59.094183    -0.000012     0.004250    59.098433
	 ---------------------------------------------------------------------------
	Successfully symmetrized geometry.

  ==> Convergence Check <==

  Measures of convergence in internal coordinates in au.
  Criteria marked as inactive (o), active & met (*), and active & unmet ( ).
  ---------------------------------------------------------------------------------------------
   Step     Total Energy     Delta E     MAX Force     RMS Force      MAX Disp      RMS Disp   
  ---------------------------------------------------------------------------------------------
    Convergence Criteria    1.00e-06 *    3.00e-04 *             o    1.20e-03 *             o
  ---------------------------------------------------------------------------------------------
      2    -268.06244983   -1.21e-03      4.83e-03      1.63e-03 o    4.82e-02      1.51e-02 o  ~
  ---------------------------------------------------------------------------------------------

	Writing optimization data to binary file.
	Structure for next step:
	Cartesian Geometry (in Angstrom)
	    H    -3.0805794859   0.1544193015  -0.0916960969
	    O    -2.2966267690  -0.3339707802   0.0776220181
	    C    -1.1760197386   0.5046774718  -0.0140028278
	    C     0.0553111488  -0.3715153170   0.0176483826
	    H    -1.1833055264   1.0814926106  -0.9337206144
	    H    -1.1369169329   1.2028029873   0.8169276772
	    O     1.1738726558   0.4532395463  -0.0492035738
	    H     0.0308877556  -1.0648167301  -0.8202363554
	    H     0.0625030815  -0.9607868533   0.9324835573
	    C     2.3897634649  -0.2188311335  -0.0146512233
	    H     2.4874344323  -0.9060046382  -0.8520372706
	    H     3.1781534125   0.5174053058  -0.0744429548
	    H     2.5055520104  -0.7827023466   0.9081294155
			--------------------------
			 OPTKING Finished Execution 
			--------------------------

    Structure for next step:
    Molecular point group: c1
    Full point group: C1

    Geometry (in Angstrom), charge = 0, multiplicity = 1:

    H           -3.082636485741     0.152900050143    -0.094417814544
    O           -2.298683768862    -0.335490031636     0.074900300490
    C           -1.178076738495     0.503158220434    -0.016724545357
    C            0.053254148909    -0.373034568396     0.014926664995
    H           -1.185362526318     1.079973359227    -0.936442332012
    H           -1.138973932748     1.201283735898     0.814205959631
    O            1.171815655925     0.451720294942    -0.051925291390
    H            0.028830755771    -1.066335981554    -0.822958072950
    H            0.060446081656    -0.962306104661     0.929761839669
    C            2.387706465010    -0.220350384887    -0.017372940871
    H            2.485377432424    -0.907523889638    -0.854758988152
    H            3.176096412677     0.515886054387    -0.077164672389
    H            2.503495010549    -0.784221597965     0.905407697933

gradient() will perform analytic gradient computation.

*** tstart() called on cx1-27-2-4
*** at Sat Sep 10 16:02:52 2016


         ---------------------------------------------------------
                                   SCF
            by Justin Turney, Rob Parrish, and Andy Simmonett
                              RHF Reference
                        4 Threads,   2000 MiB Core
         ---------------------------------------------------------

  ==> Geometry <==

    Molecular point group: c1
    Full point group: C1

    Geometry (in Angstrom), charge = 0, multiplicity = 1:

       Center              X                  Y                   Z               Mass       
    ------------   -----------------  -----------------  -----------------  -----------------
           H         -3.082636485741     0.152900050143    -0.094417814544     1.007825032070
           O         -2.298683768862    -0.335490031636     0.074900300490    15.994914619560
           C         -1.178076738495     0.503158220434    -0.016724545357    12.000000000000
           C          0.053254148909    -0.373034568396     0.014926664995    12.000000000000
           H         -1.185362526318     1.079973359227    -0.936442332012     1.007825032070
           H         -1.138973932748     1.201283735898     0.814205959631     1.007825032070
           O          1.171815655925     0.451720294942    -0.051925291390    15.994914619560
           H          0.028830755771    -1.066335981554    -0.822958072950     1.007825032070
           H          0.060446081656    -0.962306104661     0.929761839669     1.007825032070
           C          2.387706465010    -0.220350384887    -0.017372940871    12.000000000000
           H          2.485377432424    -0.907523889638    -0.854758988152     1.007825032070
           H          3.176096412677     0.515886054387    -0.077164672389     1.007825032070
           H          2.503495010549    -0.784221597965     0.905407697933     1.007825032070

  Running in c1 symmetry.

  Rotational constants: A =      0.78170  B =      0.07286  C =      0.06922 [cm^-1]
  Rotational constants: A =  23434.91058  B =   2184.38565  C =   2075.24205 [MHz]
  Nuclear repulsion =  190.627330145442528

  Charge       = 0
  Multiplicity = 1
  Electrons    = 42
  Nalpha       = 21
  Nbeta        = 21

  ==> Algorithm <==

  SCF Algorithm Type is DF.
  DIIS enabled.
  MOM disabled.
  Fractional occupation disabled.
  Guess Type is READ.
  Energy threshold   = 1.00e-08
  Density threshold  = 1.00e-08
  Integral threshold = 0.00e+00

  ==> Primary Basis <==

  Basis Set: CC-PVTZ
    Number of shells: 98
    Number of basis function: 262
    Number of Cartesian functions: 295
    Spherical Harmonics?: true
    Max angular momentum: 3

  ==> Pre-Iterations <==

   -------------------------------------------------------
    Irrep   Nso     Nmo     Nalpha   Nbeta   Ndocc  Nsocc
   -------------------------------------------------------
     A        262     262       0       0       0       0
   -------------------------------------------------------
    Total     262     262      21      21      21       0
   -------------------------------------------------------

  ==> Integral Setup <==

  ==> DFJK: Density-Fitted J/K Matrices <==

    J tasked:                  Yes
    K tasked:                  Yes
    wK tasked:                  No
    OpenMP threads:              4
    Integrals threads:           4
    Memory (MB):              1430
    Algorithm:                Core
    Integral Cache:           NONE
    Schwarz Cutoff:          1E-12
    Fitting Condition:       1E-12

   => Auxiliary Basis Set <=

  Basis Set: 
    Number of shells: 205
    Number of basis function: 635
    Number of Cartesian functions: 760
    Spherical Harmonics?: true
    Max angular momentum: 4

  Minimum eigenvalue in the overlap matrix is 7.0719746974E-04.
  Using Symmetric Orthogonalization.
  SCF Guess: Reading in previously saved MOs, projecting if necessary.

  Using orbitals from previous SCF, no projection.
  Recomputing DOCC and SOCC from number of alpha and beta electrons from previous calculation.
              A 
    DOCC [    21 ]

  ==> Iterations <==

                           Total Energy        Delta E     RMS |[F,P]|

   @DF-RHF iter   0:  -268.06284429676145   -2.68063e+02   2.12502e-04 
   @DF-RHF iter   1:  -268.06265731223925    1.86985e-04   3.19870e-05 
   @DF-RHF iter   2:  -268.06272143222748   -6.41200e-05   1.20236e-05 DIIS
   @DF-RHF iter   3:  -268.06273299899840   -1.15668e-05   4.26820e-06 DIIS
   @DF-RHF iter   4:  -268.06273385250404   -8.53506e-07   1.27096e-06 DIIS
   @DF-RHF iter   5:  -268.06273396756922   -1.15065e-07   4.04554e-07 DIIS
   @DF-RHF iter   6:  -268.06273398115059   -1.35814e-08   1.13568e-07 DIIS
   @DF-RHF iter   7:  -268.06273398207111   -9.20522e-10   2.73620e-08 DIIS
   @DF-RHF iter   8:  -268.06273398213079   -5.96856e-11   7.18059e-09 DIIS

  ==> Post-Iterations <==

    Orbital Energies (a.u.)
    -----------------------

    Doubly Occupied:                                                      

       1A    -20.552521     2A    -20.552094     3A    -11.267648  
       4A    -11.265380     5A    -11.264873     6A     -1.388456  
       7A     -1.367736     8A     -1.019708     9A     -0.911760  
      10A     -0.831802    11A     -0.711821    12A     -0.685984  
      13A     -0.643998    14A     -0.634804    15A     -0.621407  
      16A     -0.555273    17A     -0.538902    18A     -0.497707  
      19A     -0.471513    20A     -0.444853    21A     -0.421055  

    Virtual:                                                              

      22A      0.143645    23A      0.149753    24A      0.188813  
      25A      0.195547    26A      0.201591    27A      0.229083  
      28A      0.234846    29A      0.262518    30A      0.271081  
      31A      0.326467    32A      0.335759    33A      0.392792  
      34A      0.395934    35A      0.415220    36A      0.461686  
      37A      0.497099    38A      0.519424    39A      0.522642  
      40A      0.562615    41A      0.582065    42A      0.586965  
      43A      0.611153    44A      0.636092    45A      0.639530  
      46A      0.644706    47A      0.658088    48A      0.670520  
      49A      0.676033    50A      0.698718    51A      0.704404  
      52A      0.712885    53A      0.751252    54A      0.773853  
      55A      0.814795    56A      0.846727    57A      0.861912  
      58A      0.870868    59A      0.915122    60A      0.948508  
      61A      0.954097    62A      0.972024    63A      0.990107  
      64A      1.004527    65A      1.080973    66A      1.114049  
      67A      1.139423    68A      1.167586    69A      1.182722  
      70A      1.208864    71A      1.216331    72A      1.222694  
      73A      1.234245    74A      1.270524    75A      1.292388  
      76A      1.302345    77A      1.306732    78A      1.348043  
      79A      1.360510    80A      1.368435    81A      1.401407  
      82A      1.413505    83A      1.447605    84A      1.462700  
      85A      1.478108    86A      1.499671    87A      1.505785  
      88A      1.511886    89A      1.549277    90A      1.555099  
      91A      1.597259    92A      1.623634    93A      1.629927  
      94A      1.668429    95A      1.708182    96A      1.733284  
      97A      1.786340    98A      1.887309    99A      1.900327  
     100A      2.051217   101A      2.108247   102A      2.192575  
     103A      2.229195   104A      2.259629   105A      2.311531  
     106A      2.328150   107A      2.332861   108A      2.363402  
     109A      2.421729   110A      2.474106   111A      2.496530  
     112A      2.546929   113A      2.615330   114A      2.637175  
     115A      2.693561   116A      2.729278   117A      2.744901  
     118A      2.795477   119A      2.806983   120A      2.904052  
     121A      2.923876   122A      2.963863   123A      3.030336  
     124A      3.063896   125A      3.085349   126A      3.106146  
     127A      3.131601   128A      3.145869   129A      3.179681  
     130A      3.196320   131A      3.210627   132A      3.246758  
     133A      3.262343   134A      3.268821   135A      3.291010  
     136A      3.309044   137A      3.343242   138A      3.352015  
     139A      3.361072   140A      3.366313   141A      3.425629  
     142A      3.429527   143A      3.441261   144A      3.456829  
     145A      3.466130   146A      3.481505   147A      3.510098  
     148A      3.546816   149A      3.607318   150A      3.612384  
     151A      3.625429   152A      3.662633   153A      3.688223  
     154A      3.739189   155A      3.752854   156A      3.758721  
     157A      3.777915   158A      3.783419   159A      3.805292  
     160A      3.819179   161A      3.833588   162A      3.842821  
     163A      3.870932   164A      3.907947   165A      3.930814  
     166A      3.945520   167A      4.006192   168A      4.039365  
     169A      4.063324   170A      4.082035   171A      4.124297  
     172A      4.137661   173A      4.150554   174A      4.160374  
     175A      4.167530   176A      4.189535   177A      4.200186  
     178A      4.238611   179A      4.271484   180A      4.287294  
     181A      4.295762   182A      4.341344   183A      4.359619  
     184A      4.362350   185A      4.379222   186A      4.408035  
     187A      4.424811   188A      4.468197   189A      4.479864  
     190A      4.528692   191A      4.562657   192A      4.592239  
     193A      4.608302   194A      4.634501   195A      4.655609  
     196A      4.683661   197A      4.727771   198A      4.767324  
     199A      4.786204   200A      4.836291   201A      4.931853  
     202A      4.986678   203A      4.996341   204A      5.009511  
     205A      5.064448   206A      5.098636   207A      5.140809  
     208A      5.187238   209A      5.215798   210A      5.242935  
     211A      5.251423   212A      5.314887   213A      5.345817  
     214A      5.370916   215A      5.398041   216A      5.432364  
     217A      5.436866   218A      5.487979   219A      5.492489  
     220A      5.535325   221A      5.597718   222A      5.610080  
     223A      5.658489   224A      5.716606   225A      5.771128  
     226A      5.820652   227A      5.871839   228A      5.920311  
     229A      5.937168   230A      5.966363   231A      6.007106  
     232A      6.129478   233A      6.194763   234A      6.209673  
     235A      6.260019   236A      6.275584   237A      6.341794  
     238A      6.460309   239A      6.514211   240A      6.653055  
     241A      6.675367   242A      6.735409   243A      6.862624  
     244A      6.962708   245A      7.070052   246A      7.167740  
     247A      7.234639   248A      7.280159   249A      7.327496  
     250A      7.370683   251A      7.428500   252A      7.522321  
     253A      7.555414   254A      7.705986   255A      7.871546  
     256A      7.925557   257A      8.040204   258A     11.316871  
     259A     12.702479   260A     13.421353   261A     13.817721  
     262A     14.204655  

    Final Occupation by Irrep:
              A 
    DOCC [    21 ]

  Energy converged.

  @DF-RHF Final Energy:  -268.06273398213079

   => Energetics <=

    Nuclear Repulsion Energy =            190.6273301454425280
    One-Electron Energy =                -744.0815472709950882
    Two-Electron Energy =                 285.3914831434217376
    DFT Exchange-Correlation Energy =       0.0000000000000000
    Empirical Dispersion Energy =           0.0000000000000000
    PCM Polarization Energy =               0.0000000000000000
    EFP Energy =                            0.0000000000000000
    Total Energy =                       -268.0627339821307942


  Saving occupied orbitals to File 180.

*** tstop() called on cx1-27-2-4 at Sat Sep 10 16:02:56 2016
Module time:
	user time   =      10.38 seconds =       0.17 minutes
	system time =       0.27 seconds =       0.00 minutes
	total time  =          4 seconds =       0.07 minutes
Total time:
	user time   =      67.84 seconds =       1.13 minutes
	system time =       1.94 seconds =       0.03 minutes
	total time  =         20 seconds =       0.33 minutes


Properties will be evaluated at   0.000000,   0.000000,   0.000000 Bohr

Properties computed using the SCF density matrix

  Nuclear Dipole Moment: (a.u.)
     X:     2.6638      Y:    -0.7216      Z:    -0.1277

  Electronic Dipole Moment: (a.u.)
     X:    -2.6608      Y:     0.8466      Z:     0.0142

  Dipole Moment: (a.u.)
     X:     0.0030      Y:     0.1250      Z:    -0.1135     Total:     0.1689

  Dipole Moment: (Debye)
     X:     0.0077      Y:     0.3177      Z:    -0.2886     Total:     0.4293


*** tstart() called on cx1-27-2-4
*** at Sat Sep 10 16:02:56 2016


         ------------------------------------------------------------
                                   SCF GRAD                          
                          Rob Parrish, Justin Turney,                
                       Andy Simmonett, and Alex Sokolov              
         ------------------------------------------------------------

  ==> Geometry <==

    Molecular point group: c1
    Full point group: C1

    Geometry (in Angstrom), charge = 0, multiplicity = 1:

       Center              X                  Y                   Z               Mass       
    ------------   -----------------  -----------------  -----------------  -----------------
           H         -3.082636485741     0.152900050143    -0.094417814544     1.007825032070
           O         -2.298683768862    -0.335490031636     0.074900300490    15.994914619560
           C         -1.178076738495     0.503158220434    -0.016724545357    12.000000000000
           C          0.053254148909    -0.373034568396     0.014926664995    12.000000000000
           H         -1.185362526318     1.079973359227    -0.936442332012     1.007825032070
           H         -1.138973932748     1.201283735898     0.814205959631     1.007825032070
           O          1.171815655925     0.451720294942    -0.051925291390    15.994914619560
           H          0.028830755771    -1.066335981554    -0.822958072950     1.007825032070
           H          0.060446081656    -0.962306104661     0.929761839669     1.007825032070
           C          2.387706465010    -0.220350384887    -0.017372940871    12.000000000000
           H          2.485377432424    -0.907523889638    -0.854758988152     1.007825032070
           H          3.176096412677     0.515886054387    -0.077164672389     1.007825032070
           H          2.503495010549    -0.784221597965     0.905407697933     1.007825032070

  Nuclear repulsion =  190.627330145442528

  ==> Basis Set <==

  Basis Set: CC-PVTZ
    Number of shells: 98
    Number of basis function: 262
    Number of Cartesian functions: 295
    Spherical Harmonics?: true
    Max angular momentum: 3

  ==> DFJKGrad: Density-Fitted SCF Gradients <==

    Gradient:                    1
    J tasked:                  Yes
    K tasked:                  Yes
    wK tasked:                  No
    OpenMP threads:              4
    Integrals threads:           4
    Memory (MB):              1430
    Schwarz Cutoff:          0E+00
    Fitting Condition:       1E-12

   => Auxiliary Basis Set <=

  Basis Set: 
    Number of shells: 205
    Number of basis function: 635
    Number of Cartesian functions: 760
    Spherical Harmonics?: true
    Max angular momentum: 4


  -Total Gradient:
     Atom            X                  Y                   Z
    ------   -----------------  -----------------  -----------------
       1       -0.000205536406     0.000078114586    -0.000646758538
       2       -0.001040993124    -0.000809344649     0.001056142508
       3        0.000375983927    -0.000115997199    -0.001067902493
       4       -0.000321490983     0.000462996899    -0.000038736359
       5        0.000082473892     0.000628918093     0.000190314057
       6        0.000407443529     0.000088000929     0.000138900279
       7       -0.000033395200    -0.000191717019     0.000113389517
       8       -0.000180592360    -0.000057492946     0.000136745845
       9        0.000398187853    -0.000263862860     0.000058456768
      10        0.000459696646     0.000215896337     0.000070162626
      11       -0.000081949059    -0.000001875815    -0.000014258488
      12        0.000183331912    -0.000027310278    -0.000007995623
      13       -0.000043160633    -0.000006326078     0.000011539902


*** tstop() called on cx1-27-2-4 at Sat Sep 10 16:03:00 2016
Module time:
	user time   =      14.67 seconds =       0.24 minutes
	system time =       0.33 seconds =       0.01 minutes
	total time  =          4 seconds =       0.07 minutes
Total time:
	user time   =      82.62 seconds =       1.38 minutes
	system time =       2.27 seconds =       0.04 minutes
	total time  =         24 seconds =       0.40 minutes

			-----------------------------------------
			 OPTKING 2.0: for geometry optimizations 
			  - R.A. King,  Bethel University        
			-----------------------------------------

	Previous internal coordinate definitions found.
	---Fragment 1 Geometry and Gradient---
	 H          -5.8253387253        0.2889392205       -0.1784238116
	 O          -4.3438827893       -0.6339842801        0.1415410552
	 C          -2.2262423993        0.9508312381       -0.0316048104
	 C           0.1006357569       -0.7049331724        0.0282073089
	 H          -2.2400105429        2.0408538798       -1.7696195467
	 H          -2.1523488054        2.2700972687        1.5386262795
	 O           2.2144106679        0.8536276461       -0.0981245801
	 H           0.0544822326       -2.0150829708       -1.5551653767
	 H           0.1142265401       -1.8184949938        1.7569952458
	 C           4.5121113046       -0.4164018807       -0.0328301004
[...]


*** tstart() called on cx1-27-2-4
*** at Sat Sep 10 16:03:10 2016


         ------------------------------------------------------------
                                   SCF GRAD                          
                          Rob Parrish, Justin Turney,                
                       Andy Simmonett, and Alex Sokolov              
         ------------------------------------------------------------

  ==> Geometry <==

    Molecular point group: c1
    Full point group: C1

    Geometry (in Angstrom), charge = 0, multiplicity = 1:

       Center              X                  Y                   Z               Mass       
    ------------   -----------------  -----------------  -----------------  -----------------
           H         -3.081239254329     0.148346447696    -0.098569508751     1.007825032070
           O         -2.295920768055    -0.336403342732     0.073126569443    15.994914619560
           C         -1.178395699906     0.503828349946    -0.018892136709    12.000000000000
           C          0.053121859378    -0.371314276184     0.016518555292    12.000000000000
           H         -1.187793441237     1.076881073707    -0.940738397960     1.007825032070
           H         -1.144022992911     1.204714204819     0.809553796223     1.007825032070
           O          1.171877042039     0.452882396656    -0.047506884587    15.994914619560
           H          0.032149134357    -1.064720167977    -0.821399680113     1.007825032070
           H          0.054397824440    -0.958758822096     0.932194465725     1.007825032070
           C          2.385695441671    -0.222458238537    -0.018816823110    12.000000000000
           H          2.481708973864    -0.903625104979    -0.861272648210     1.007825032070
           H          3.175236123890     0.512752881111    -0.073766591592     1.007825032070
           H          2.501329188193    -0.793247863737     0.899706090715     1.007825032070

  Nuclear repulsion =  190.713520794599390

  ==> Basis Set <==

  Basis Set: CC-PVTZ
    Number of shells: 98
    Number of basis function: 262
    Number of Cartesian functions: 295
    Spherical Harmonics?: true
    Max angular momentum: 3

  ==> DFJKGrad: Density-Fitted SCF Gradients <==

    Gradient:                    1
    J tasked:                  Yes
    K tasked:                  Yes
    wK tasked:                  No
    OpenMP threads:              4
    Integrals threads:           4
    Memory (MB):              1430
    Schwarz Cutoff:          0E+00
    Fitting Condition:       1E-12

   => Auxiliary Basis Set <=

  Basis Set: 
    Number of shells: 205
    Number of basis function: 635
    Number of Cartesian functions: 760
    Spherical Harmonics?: true
    Max angular momentum: 4


  -Total Gradient:
     Atom            X                  Y                   Z
    ------   -----------------  -----------------  -----------------
       1        0.000046134062    -0.000142706068    -0.000582871512
       2       -0.000164367164     0.000278792292     0.000778129277
       3        0.000409160647    -0.000514543440    -0.000414225063
       4       -0.000035065560    -0.000018802728     0.000011850129
       5       -0.000260666429     0.000359428862     0.000247322341
       6       -0.000004511698    -0.000019629735    -0.000012544469
       7        0.000031851506     0.000024511305    -0.000016913130
       8       -0.000005507438     0.000010638137    -0.000006680259
       9       -0.000016760585     0.000016552127    -0.000007000463
      10        0.000006304982     0.000006619507     0.000007093364
      11       -0.000005021623     0.000002795346     0.000003604950
      12        0.000004059100    -0.000004230580    -0.000002866297
      13       -0.000005609800     0.000000574974    -0.000004898868


*** tstop() called on cx1-27-2-4 at Sat Sep 10 16:03:14 2016
Module time:
	user time   =      14.24 seconds =       0.24 minutes
	system time =       0.35 seconds =       0.01 minutes
	total time  =          4 seconds =       0.07 minutes
Total time:
	user time   =     132.67 seconds =       2.21 minutes
	system time =       3.59 seconds =       0.06 minutes
	total time  =         38 seconds =       0.63 minutes

			-----------------------------------------
			 OPTKING 2.0: for geometry optimizations 
			  - R.A. King,  Bethel University        
			-----------------------------------------

	Previous internal coordinate definitions found.
	---Fragment 1 Geometry and Gradient---
	 H          -5.8226983406        0.2803341589       -0.1862693766
	 O          -4.3386614744       -0.6357101880        0.1381891893
	 C          -2.2268451490        0.9520975994       -0.0357009644
	 C           0.1003857659       -0.7016822912        0.0312155456
	 H          -2.2446043064        2.0350103070       -1.7777379348
	 H          -2.1618901463        2.2765799155        1.5298349647
	 O           2.2145266709        0.8558237001       -0.0897750013
	 H           0.0607530593       -2.0120295256       -1.5522204411
	 H           0.1027969904       -1.8117916012        1.7615922428
	 C           4.5083110212       -0.4203851468       -0.0355586424
	 H           4.6897503021       -1.7076039752       -1.6275694309
	 H           6.0003266814        0.9689625191       -0.1393986559
	 H           4.7268271339       -1.4990212180        1.7001981115
	             0.0000461341       -0.0001427061       -0.0005828715
	            -0.0001643672        0.0002787923        0.0007781293
	             0.0004091606       -0.0005145434       -0.0004142251
	            -0.0000350656       -0.0000188027        0.0000118501
	            -0.0002606664        0.0003594289        0.0002473223
	            -0.0000045117       -0.0000196297       -0.0000125445
	             0.0000318515        0.0000245113       -0.0000169131
	            -0.0000055074        0.0000106381       -0.0000066803
	            -0.0000167606        0.0000165521       -0.0000070005
	             0.0000063050        0.0000066195        0.0000070934
	            -0.0000050216        0.0000027953        0.0000036049
	             0.0000040591       -0.0000042306       -0.0000028663
	            -0.0000056098        0.0000005750       -0.0000048989

	---Fragment 1 Intrafragment Coordinates---
	 - Coordinate -           - BOHR/RAD -       - ANG/DEG -
	 R(1,2)           =         1.773915	       0.938716
	 R(2,3)           =         2.647856	       1.401185
	 R(3,4)           =         2.855778	       1.511213
	 R(3,5)           =         2.051270	       1.085485
	 R(3,6)           =         2.051676	       1.085700
	 R(4,7)           =         2.628698	       1.391047
	 R(4,8)           =         2.055687	       1.087823
	 R(4,9)           =         2.055858	       1.087913
	 R(7,10)          =         2.625470	       1.389339
	 R(10,11)         =         2.055323	       1.087630
	 R(10,12)         =         2.041367	       1.080245
	 R(10,13)         =         2.055251	       1.087592
	 B(1,2,3)         =         1.923625	     110.215601
	 B(2,3,4)         =         1.876689	     107.526378
	 B(2,3,5)         =         1.944902	     111.434676
	 B(2,3,6)         =         1.941482	     111.238741
	 B(3,4,7)         =         1.887259	     108.131993
	 B(3,4,8)         =         1.912797	     109.595191
	 B(3,4,9)         =         1.910679	     109.473848
	 B(4,3,5)         =         1.909935	     109.431209
	 B(4,3,6)         =         1.907274	     109.278752
	 B(4,7,10)        =         1.997301	     114.436940
	 B(5,3,6)         =         1.883348	     107.907914
	 B(7,4,8)         =         1.936630	     110.960707
	 B(7,4,9)         =         1.936634	     110.960944
	 B(7,10,11)       =         1.945030	     111.442037
	 B(7,10,12)       =         1.882493	     107.858905
	 B(7,10,13)       =         1.944899	     111.434500
	 B(8,4,9)         =         1.879844	     107.707155
	 B(11,10,12)      =         1.898981	     108.803604
	 B(11,10,13)      =         1.892408	     108.427013
	 B(12,10,13)      =         1.899104	     108.810664
	 D(1,2,3,4)       =        -2.965646	    -169.918991
	*D(1,2,3,5)       =        -0.872664	     -49.999957
	 D(1,2,3,6)       =         1.229822	      70.463595
	 D(2,3,4,7)       =        -3.121378	    -178.841811
	 D(2,3,4,8)       =         1.048678	      60.084809
	 D(2,3,4,9)       =        -1.009506	     -57.840424
	 D(3,4,7,10)      =         3.137717	     179.777959
	 D(4,7,10,11)     =         1.058130	      60.626373
	 D(4,7,10,12)     =         3.141435	     179.990962
	 D(4,7,10,13)     =        -1.058372	     -60.640245
	 D(5,3,4,7)       =         1.046753	      59.974543
	 D(5,3,4,8)       =        -1.066376	     -61.098837
	 D(5,3,4,9)       =        -3.124559	    -179.024070
	 D(6,3,4,7)       =        -1.011999	     -57.983262
	 D(6,3,4,8)       =        -3.125128	    -179.056642
	 D(6,3,4,9)       =         1.099874	      63.018125
	 D(8,4,7,10)      =        -1.047201	     -60.000170
	 D(9,4,7,10)      =         1.042048	      59.704963

	Current energy   :      -268.0627424111

	Energy change for the previous step:
		Projected    :        -0.0000000380
		Actual       :        -0.0000009571
	Energy ratio indicates good step: Trust radius increased to 1.000e+00.


	Performing BFGS update.
	Previous computed or guess Hessian on step 1.
	Steps to be used in Hessian update: 4 3
	Taking RFO optimization step.
	Going to follow RFO solution 1.
	Using RFO vector 1.
	Norm of target step-size    0.00206
	Projected energy change by RFO approximation:        -0.0000001543

	Back-transformation to cartesian coordinates...
	Could not converge backtransformation.
	Using first guess instead.

	Back-transformation to cartesian coordinates to adjust frozen coordinates...
	Successfully converged to displaced geometry.

	--- Internal Coordinate Step in ANG or DEG, aJ/ANG or AJ/DEG ---
	 ---------------------------------------------------------------------------
	   Coordinate                Previous        Force       Change         New 
	   ----------                --------       ------       ------       ------
	    1 R(1,2)          =      0.938716     0.000047     0.000005     0.938721
	    2 R(2,3)          =      1.401185    -0.000210    -0.000034     1.401151
	    3 R(3,4)          =      1.511213     0.000360     0.000068     1.511281
	    4 R(3,5)          =      1.085485     0.000149     0.000028     1.085513
	    5 R(3,6)          =      1.085700     0.000184     0.000031     1.085731
	    6 R(4,7)          =      1.391047    -0.000362    -0.000052     1.390995
	    7 R(4,8)          =      1.087823     0.000013     0.000003     1.087826
	    8 R(4,9)          =      1.087913     0.000122     0.000019     1.087932
	    9 R(7,10)         =      1.389339     0.000024     0.000001     1.389340
	   10 R(10,11)        =      1.087630     0.000041     0.000007     1.087637
	   11 R(10,12)        =      1.080245    -0.000002    -0.000000     1.080245
	   12 R(10,13)        =      1.087592     0.000041     0.000007     1.087599
	   13 B(1,2,3)        =    110.215601    -0.000002    -0.007018   110.208584
	   14 B(2,3,4)        =    107.526378    -0.000002    -0.004599   107.521779
	   15 B(2,3,5)        =    111.434676     0.000001     0.005192   111.439868
	   16 B(2,3,6)        =    111.238741     0.000001    -0.000675   111.238066
	   17 B(3,4,7)        =    108.131993    -0.000000     0.000395   108.132389
	   18 B(3,4,8)        =    109.595191     0.000001     0.004846   109.600037
	   19 B(3,4,9)        =    109.473848     0.000002     0.005461   109.479309
	   20 B(4,3,5)        =    109.431209     0.000001     0.010198   109.441407
	   21 B(4,3,6)        =    109.278752    -0.000000    -0.003781   109.274971
	   22 B(4,7,10)       =    114.436940     0.000001     0.001743   114.438683
	   23 B(5,3,6)        =    107.907914    -0.000001    -0.006153   107.901761
	   24 B(7,4,8)        =    110.960707     0.000000     0.001876   110.962583
	   25 B(7,4,9)        =    110.960944    -0.000001    -0.007142   110.953802
	   26 B(7,10,11)      =    111.442037     0.000001     0.003438   111.445475
	   27 B(7,10,12)      =    107.858905    -0.000001    -0.004657   107.854248
	   28 B(7,10,13)      =    111.434500     0.000000     0.002476   111.436976
	   29 B(8,4,9)        =    107.707155    -0.000001    -0.005191   107.701964
	   30 B(11,10,12)     =    108.803604     0.000000    -0.000088   108.803516
	   31 B(11,10,13)     =    108.427013    -0.000000     0.001008   108.428020
	   32 B(12,10,13)     =    108.810664    -0.000000    -0.002381   108.808284
	   33 D(1,2,3,4)      =   -169.918991    -0.000000    -0.012646  -169.931638
	   34 *D(1,2,3,5)     =    -49.999957    -0.000000    -0.000000   -49.999957
	   35 D(1,2,3,6)      =     70.463595    -0.000000    -0.004752    70.458844
	   36 D(2,3,4,7)      =   -178.841811     0.000000     0.043764  -178.798047
	   37 D(2,3,4,8)      =     60.084809     0.000000     0.038344    60.123153
	   38 D(2,3,4,9)      =    -57.840424     0.000000     0.038568   -57.801857
	   39 D(3,4,7,10)     =    179.777959     0.000000     0.021462   179.799421
	   40 D(4,7,10,11)    =     60.626373     0.000000     0.009278    60.635650
	   41 D(4,7,10,12)    =    179.990962     0.000000     0.009038   180.000000
	   42 D(4,7,10,13)    =    -60.640245    -0.000000     0.003859   -60.636385
	   43 D(5,3,4,7)      =     59.974543     0.000000     0.034316    60.008859
	   44 D(5,3,4,8)      =    -61.098837    -0.000000     0.028896   -61.069941
	   45 D(5,3,4,9)      =   -179.024070    -0.000000     0.029119  -178.994951
	   46 D(6,3,4,7)      =    -57.983262     0.000000     0.038028   -57.945234
	   47 D(6,3,4,8)      =   -179.056642    -0.000000     0.032608  -179.024034
	   48 D(6,3,4,9)      =     63.018125    -0.000000     0.032831    63.050956
	   49 D(8,4,7,10)     =    -60.000170     0.000000     0.028796   -59.971374
	   50 D(9,4,7,10)     =     59.704963    -0.000000     0.018795    59.723758
	 ---------------------------------------------------------------------------
	Successfully symmetrized geometry.

  ==> Convergence Check <==

  Measures of convergence in internal coordinates in au.
  Criteria marked as inactive (o), active & met (*), and active & unmet ( ).
  ---------------------------------------------------------------------------------------------
   Step     Total Energy     Delta E     MAX Force     RMS Force      MAX Disp      RMS Disp   
  ---------------------------------------------------------------------------------------------
    Convergence Criteria    1.00e-06 *    3.00e-04 *             o    1.20e-03 *             o
  ---------------------------------------------------------------------------------------------
      5    -268.06274241   -9.57e-07 *    4.40e-05 *    1.33e-05 o    7.64e-04 *    2.91e-04 o  ~
  ---------------------------------------------------------------------------------------------


  **** Optimization is complete! (in 5 steps) ****

  ==> Optimization Summary <==

  Measures of convergence in internal coordinates in au.
  --------------------------------------------------------------------------------------------------------------- ~
   Step         Total Energy             Delta E       MAX Force       RMS Force        MAX Disp        RMS Disp  ~
  --------------------------------------------------------------------------------------------------------------- ~
      1    -268.061244797716   -268.061244797716      0.01661485      0.00351964      0.10314695      0.02863163  ~
      2    -268.062449831602     -0.001205033886      0.00482756      0.00162879      0.04824190      0.01513693  ~
      3    -268.062733982131     -0.000284150529      0.00145981      0.00029327      0.00912675      0.00282569  ~
      4    -268.062741454013     -0.000007471882      0.00033583      0.00009631      0.00150290      0.00067248  ~
      5    -268.062742411081     -0.000000957068      0.00004398      0.00001329      0.00076383      0.00029093  ~
  --------------------------------------------------------------------------------------------------------------- ~

	Writing optimization data to binary file.
	Final energy is   -268.0627424110809
	Final (previous) structure:
	Cartesian Geometry (in Angstrom)
	    H    -3.0812392543   0.1483464477  -0.0985695088
	    O    -2.2959207681  -0.3364033427   0.0731265694
	    C    -1.1783956999   0.5038283499  -0.0188921367
	    C     0.0531218594  -0.3713142762   0.0165185553
	    H    -1.1877934412   1.0768810737  -0.9407383980
	    H    -1.1440229929   1.2047142048   0.8095537962
	    O     1.1718770420   0.4528823967  -0.0475068846
	    H     0.0321491344  -1.0647201680  -0.8213996801
	    H     0.0543978244  -0.9587588221   0.9321944657
	    C     2.3856954417  -0.2224582385  -0.0188168231
	    H     2.4817089739  -0.9036251050  -0.8612726482
	    H     3.1752361239   0.5127528811  -0.0737665916
	    H     2.5013291882  -0.7932478637   0.8997060907
	Saving final (previous) structure.
			--------------------------
			 OPTKING Finished Execution 
			--------------------------

    Final optimized geometry and variables:
    Molecular point group: c1
    Full point group: C1

    Geometry (in Angstrom), charge = 0, multiplicity = 1:

    H           -3.081239254329     0.148346447696    -0.098569508751
    O           -2.295920768055    -0.336403342732     0.073126569443
    C           -1.178395699906     0.503828349946    -0.018892136709
    C            0.053121859378    -0.371314276184     0.016518555292
    H           -1.187793441237     1.076881073707    -0.940738397960
    H           -1.144022992911     1.204714204819     0.809553796223
    O            1.171877042039     0.452882396656    -0.047506884587
    H            0.032149134357    -1.064720167977    -0.821399680113
    H            0.054397824440    -0.958758822096     0.932194465725
    C            2.385695441671    -0.222458238537    -0.018816823110
    H            2.481708973864    -0.903625104979    -0.861272648210
    H            3.175236123890     0.512752881111    -0.073766591592
    H            2.501329188193    -0.793247863737     0.899706090715

	Cleaning optimization helper files.


Properties will be evaluated at   0.000000,   0.000000,   0.000000 Bohr

Properties computed using the  density matrix

  Nuclear Dipole Moment: (a.u.)
     X:     2.6493      Y:    -0.7285      Z:    -0.1445

  Electronic Dipole Moment: (a.u.)
     X:    -2.6512      Y:     0.8508      Z:     0.0266

  Dipole Moment: (a.u.)
     X:    -0.0019      Y:     0.1223      Z:    -0.1180     Total:     0.1700

  Dipole Moment: (Debye)
     X:    -0.0048      Y:     0.3110      Z:    -0.2999     Total:     0.4320

  Quadrupole Moment: (Debye Ang)
    XX:   -25.5581     YY:   -32.7294     ZZ:   -31.5546
    XY:    -5.4146     XZ:     1.2257     YZ:     0.0849

  Traceless Quadrupole Moment: (Debye Ang)
    XX:     4.3893     YY:    -2.7820     ZZ:    -1.6072
    XY:    -5.4146     XZ:     1.2257     YZ:     0.0849

  Mulliken Charges: (a.u.)
   Center  Symbol    Alpha    Beta     Spin     Total
       1     H     0.39410  0.39410  0.00000  0.21180
       2     O     4.19842  4.19842  0.00000 -0.39684
       3     C     2.96470  2.96470  0.00000  0.07060
       4     C     2.96463  2.96463  0.00000  0.07074
       5     H     0.47084  0.47084  0.00000  0.05833
       6     H     0.47052  0.47052  0.00000  0.05896
       7     O     4.17633  4.17633  0.00000 -0.35265
       8     H     0.47091  0.47091  0.00000  0.05818
       9     H     0.47022  0.47022  0.00000  0.05955
      10     C     3.03126  3.03126  0.00000 -0.06253
      11     H     0.47065  0.47065  0.00000  0.05871
      12     H     0.44698  0.44698  0.00000  0.10603
      13     H     0.47044  0.47044  0.00000  0.05912

   Total alpha = 21.00000, Total beta = 21.00000, Total charge = -0.00000


*** Psi4 exiting successfully. Buy a developer a beer!
