    -----------------------------------------------------------------------
          Psi4: An Open-Source Ab Initio Electronic Structure Package
                              Psi4 (no tag) Driver

                          Git: Rev {detached?}  

    J. M. Turney, A. C. Simmonett, R. M. Parrish, E. G. Hohenstein,
    F. A. Evangelista, J. T. Fermann, B. J. Mintz, L. A. Burns, J. J. Wilke,
    M. L. Abrams, N. J. Russ, M. L. Leininger, C. L. Janssen, E. T. Seidl,
    W. D. Allen, H. F. Schaefer, R. A. King, E. F. Valeev, C. D. Sherrill,
    and T. D. Crawford, WIREs Comput. Mol. Sci. 2, 556-565 (2012)
    (doi: 10.1002/wcms.93)

                         Additional Contributions by
    A. E. DePrince, M. Saitow, U. Bozkaya, A. Yu. Sokolov
    -----------------------------------------------------------------------


    Psi4 started on: Fri Sep  2 12:22:57 2016

    Process ID:  28175
    PSI4DATADIR: /export131/home/mjharvey/miniconda3/share
    Memory level set to 256.000 MB

  ==> Input File <==

--------------------------------------------------------------------------
set {
	reference rhf
	basis 6-31G*
}


set_num_threads( 4 )
memory 2 gb

molecule MOL {
0 1

O	 -0.873217	 -1.376257	 -0.795926
C	 -0.630097	 -0.247328	 -0.462589
C	 -1.729221	 0.798614	 -0.458241
N	 0.623947	 0.147590	 -0.102813
H	 -1.494639	 1.624466	 -1.120830
H	 -2.633583	 0.317550	 -0.798467
H	 -1.893286	 1.200729	 0.535724
C	 1.665360	 -0.855771	 0.000151
C	 0.926333	 1.419683	 0.515724
H	 2.465253	 -0.618490	 -0.692587
H	 1.257730	 -1.821716	 -0.242189
H	 2.081488	 -0.891645	 1.004627
H	 1.919972	 1.731708	 0.216791
H	 0.235921	 2.187041	 0.203593
H	 0.906928	 1.357960	 1.602290

	symmetry c1
}
set optking {
	frozen_dihedral = ("
		2 4 8 10
	")
}

ee = optimize('scf')
oeprop('DIPOLE', 'QUADRUPOLE', 'MULLIKEN_CHARGES')
f=open( 'psi4out.xyz', 'w' )
f.write( "15  " )
f.write( str(ee) + "\n" )
f.write( MOL.save_string_xyz() )
f.close()
--------------------------------------------------------------------------

  Memory set to   2.000 GiB by Python script.
gradient() will perform analytic gradient computation.

*** tstart() called on cx1-5-5-2.cx1.hpc.ic.ac.uk
*** at Fri Sep  2 12:22:57 2016


         ---------------------------------------------------------
                                   SCF
            by Justin Turney, Rob Parrish, and Andy Simmonett
                              RHF Reference
                        4 Threads,   2000 MiB Core
         ---------------------------------------------------------

  ==> Geometry <==

    Molecular point group: c1
    Full point group: C1

    Geometry (in Angstrom), charge = 0, multiplicity = 1:

       Center              X                  Y                   Z               Mass       
    ------------   -----------------  -----------------  -----------------  -----------------
           O         -0.878117709552    -1.359757217863    -0.585569269403    15.994914619560
           C         -0.634997709552    -0.230828217863    -0.252232269403    12.000000000000
           C         -1.734121709552     0.815113782137    -0.247884269403    12.000000000000
           N          0.619046290448     0.164089782137     0.107543730597    14.003074004780
           H         -1.499539709552     1.640965782137    -0.910473269403     1.007825032070
           H         -2.638483709552     0.334049782137    -0.588110269403     1.007825032070
           H         -1.898186709552     1.217228782137     0.746080730597     1.007825032070
           C          1.660459290448    -0.839271217863     0.210507730597    12.000000000000
           C          0.921432290448     1.436182782137     0.726080730597    12.000000000000
           H          2.460352290448    -0.601990217863    -0.482230269403     1.007825032070
           H          1.252829290448    -1.805216217863    -0.031832269403     1.007825032070
           H          2.076587290448    -0.875145217863     1.214983730597     1.007825032070
           H          1.915071290448     1.748207782137     0.427147730597     1.007825032070
           H          0.231020290448     2.203540782137     0.413949730597     1.007825032070
           H          0.902027290448     1.374459782137     1.812646730597     1.007825032070

  Running in c1 symmetry.

  Rotational constants: A =      0.16619  B =      0.11514  C =      0.07082 [cm^-1]
  Rotational constants: A =   4982.34346  B =   3451.88985  C =   2123.13008 [MHz]
  Nuclear repulsion =  252.407209244644207

  Charge       = 0
  Multiplicity = 1
  Electrons    = 48
  Nalpha       = 24
  Nbeta        = 24

  ==> Algorithm <==

  SCF Algorithm Type is DF.
  DIIS enabled.
  MOM disabled.
  Fractional occupation disabled.
  Guess Type is CORE.
  Energy threshold   = 1.00e-08
  Density threshold  = 1.00e-08
  Integral threshold = 0.00e+00

  ==> Primary Basis <==

  Basis Set: 6-31G*
    Number of shells: 54
    Number of basis function: 108
    Number of Cartesian functions: 108
    Spherical Harmonics?: false
    Max angular momentum: 2

  ==> Pre-Iterations <==

   -------------------------------------------------------
    Irrep   Nso     Nmo     Nalpha   Nbeta   Ndocc  Nsocc
   -------------------------------------------------------
     A        108     108       0       0       0       0
   -------------------------------------------------------
    Total     108     108      24      24      24       0
   -------------------------------------------------------

 OEINTS: Overlap, kinetic, potential, dipole, and quadrupole integrals
         stored in file 35.

  ==> Integral Setup <==

  ==> DFJK: Density-Fitted J/K Matrices <==

    J tasked:                  Yes
    K tasked:                  Yes
    wK tasked:                  No
    OpenMP threads:              4
    Integrals threads:           4
    Memory (MB):              1430
    Algorithm:                Core
    Integral Cache:           NONE
    Schwarz Cutoff:          1E-12
    Fitting Condition:       1E-12

   => Auxiliary Basis Set <=

  Basis Set: 
    Number of shells: 225
    Number of basis function: 711
    Number of Cartesian functions: 711
    Spherical Harmonics?: false
    Max angular momentum: 3

  Minimum eigenvalue in the overlap matrix is 3.6745718488E-03.
  Using Symmetric Orthogonalization.
  SCF Guess: Core (One-Electron) Hamiltonian.

  ==> Iterations <==

                           Total Energy        Delta E     RMS |[F,P]|

   @DF-RHF iter   1:  -204.52232568526080   -2.04522e+02   8.85115e-02 
   @DF-RHF iter   2:  -225.97948544754070   -2.14572e+01   4.75543e-02 DIIS
   @DF-RHF iter   3:  -223.73131188700160    2.24817e+00   7.70626e-02 DIIS
   @DF-RHF iter   4:  -262.97032529270615   -3.92390e+01   5.53873e-02 DIIS
   @DF-RHF iter   5:  -273.39623501179091   -1.04259e+01   4.16527e-02 DIIS
   @DF-RHF iter   6:  -280.19546233776197   -6.79923e+00   2.95433e-02 DIIS
   @DF-RHF iter   7:  -281.66757567252085   -1.47211e+00   2.32922e-02 DIIS
   @DF-RHF iter   8:  -285.27715211562480   -3.60958e+00   1.03877e-02 DIIS
   @DF-RHF iter   9:  -285.92673207461729   -6.49580e-01   3.54911e-03 DIIS
   @DF-RHF iter  10:  -286.01492708721145   -8.81950e-02   1.36915e-03 DIIS
   @DF-RHF iter  11:  -286.02729084926824   -1.23638e-02   4.91816e-04 DIIS
   @DF-RHF iter  12:  -286.02872349789362   -1.43265e-03   1.49415e-04 DIIS
   @DF-RHF iter  13:  -286.02910886543788   -3.85368e-04   7.39072e-05 DIIS
   @DF-RHF iter  14:  -286.02918259689085   -7.37315e-05   2.72725e-05 DIIS
   @DF-RHF iter  15:  -286.02919467368730   -1.20768e-05   6.35867e-06 DIIS
   @DF-RHF iter  16:  -286.02919535803068   -6.84343e-07   1.53959e-06 DIIS
   @DF-RHF iter  17:  -286.02919538832822   -3.02975e-08   4.55928e-07 DIIS
   @DF-RHF iter  18:  -286.02919539093756   -2.60934e-09   1.16764e-07 DIIS
   @DF-RHF iter  19:  -286.02919539114572   -2.08161e-10   4.09452e-08 DIIS
   @DF-RHF iter  20:  -286.02919539118017   -3.44471e-11   1.98042e-08 DIIS
   @DF-RHF iter  21:  -286.02919539118926   -9.09495e-12   7.47400e-09 DIIS

  ==> Post-Iterations <==

    Orbital Energies (a.u.)
    -----------------------

    Doubly Occupied:                                                      

       1A    -20.513728     2A    -15.583806     3A    -11.341682  
       4A    -11.266547     5A    -11.246731     6A    -11.228347  
       7A     -1.384109     8A     -1.243539     9A     -1.014186  
      10A     -0.972646    11A     -0.918924    12A     -0.737763  
      13A     -0.681428    14A     -0.659041    15A     -0.651270  
      16A     -0.589516    17A     -0.575472    18A     -0.566491  
      19A     -0.563263    20A     -0.546357    21A     -0.528920  
      22A     -0.503637    23A     -0.409628    24A     -0.366279  

    Virtual:                                                              

      25A      0.205904    26A      0.223227    27A      0.262750  
      28A      0.290152    29A      0.298271    30A      0.308911  
      31A      0.317568    32A      0.324839    33A      0.336311  
      34A      0.353486    35A      0.377261    36A      0.388898  
      37A      0.444057    38A      0.506672    39A      0.581858  
      40A      0.696265    41A      0.708500    42A      0.741276  
      43A      0.758333    44A      0.777414    45A      0.805615  
      46A      0.873800    47A      0.909730    48A      0.927380  
      49A      0.944170    50A      0.956560    51A      0.998658  
      52A      1.056285    53A      1.091454    54A      1.112474  
      55A      1.132226    56A      1.147170    57A      1.152945  
      58A      1.158396    59A      1.182037    60A      1.200938  
      61A      1.224323    62A      1.240156    63A      1.256350  
      64A      1.284343    65A      1.308465    66A      1.360604  
      67A      1.423916    68A      1.551056    69A      1.584708  
      70A      1.634641    71A      1.658518    72A      1.702807  
      73A      1.757851    74A      1.803584    75A      1.934985  
      76A      2.048712    77A      2.086773    78A      2.089515  
      79A      2.180209    80A      2.200748    81A      2.231256  
      82A      2.283635    83A      2.309329    84A      2.331745  
      85A      2.391052    86A      2.430928    87A      2.440154  
      88A      2.520308    89A      2.559724    90A      2.608191  
      91A      2.633112    92A      2.647186    93A      2.703342  
      94A      2.750463    95A      2.854696    96A      2.918188  
      97A      2.963517    98A      3.032882    99A      3.065516  
     100A      3.329009   101A      3.395394   102A      3.586347  
     103A      4.437163   104A      4.457421   105A      4.605895  
     106A      4.711391   107A      4.767139   108A      4.937643  

    Final Occupation by Irrep:
              A 
    DOCC [    24 ]

  Energy converged.

  @DF-RHF Final Energy:  -286.02919539118926

   => Energetics <=

    Nuclear Repulsion Energy =            252.4072092446442070
    One-Electron Energy =                -888.6861870186937722
    Two-Electron Energy =                 350.2497823828603032
    DFT Exchange-Correlation Energy =       0.0000000000000000
    Empirical Dispersion Energy =           0.0000000000000000
    PCM Polarization Energy =               0.0000000000000000
    EFP Energy =                            0.0000000000000000
    Total Energy =                       -286.0291953911892051

    Alert: EFP and PCM quantities not currently incorporated into SCF psivars.

Properties will be evaluated at   0.000000,   0.000000,   0.000000 Bohr
  ==> Properties <==


Properties computed using the SCF density matrix

  Nuclear Dipole Moment: (a.u.)
     X:     2.6205      Y:     4.9017      Z:     2.4363

  Electronic Dipole Moment: (a.u.)
     X:    -2.0677      Y:    -3.5939      Z:    -1.8580

  Dipole Moment: (a.u.)
     X:     0.5527      Y:     1.3078      Z:     0.5783     Total:     1.5331

  Dipole Moment: (Debye)
     X:     1.4049      Y:     3.3241      Z:     1.4699     Total:     3.8967


  Saving occupied orbitals to File 180.

*** tstop() called on cx1-5-5-2.cx1.hpc.ic.ac.uk at Fri Sep  2 12:23:01 2016
Module time:
	user time   =      11.60 seconds =       0.19 minutes
	system time =       0.12 seconds =       0.00 minutes
	total time  =          4 seconds =       0.07 minutes
Total time:
	user time   =      11.60 seconds =       0.19 minutes
	system time =       0.12 seconds =       0.00 minutes
	total time  =          4 seconds =       0.07 minutes

*** tstart() called on cx1-5-5-2.cx1.hpc.ic.ac.uk
*** at Fri Sep  2 12:23:01 2016


         ------------------------------------------------------------
                                   SCF GRAD                          
                          Rob Parrish, Justin Turney,                
                       Andy Simmonett, and Alex Sokolov              
         ------------------------------------------------------------

  ==> Geometry <==

    Molecular point group: c1
    Full point group: C1

    Geometry (in Angstrom), charge = 0, multiplicity = 1:

       Center              X                  Y                   Z               Mass       
    ------------   -----------------  -----------------  -----------------  -----------------
           O         -0.878117709552    -1.359757217863    -0.585569269403    15.994914619560
           C         -0.634997709552    -0.230828217863    -0.252232269403    12.000000000000
           C         -1.734121709552     0.815113782137    -0.247884269403    12.000000000000
           N          0.619046290448     0.164089782137     0.107543730597    14.003074004780
           H         -1.499539709552     1.640965782137    -0.910473269403     1.007825032070
           H         -2.638483709552     0.334049782137    -0.588110269403     1.007825032070
           H         -1.898186709552     1.217228782137     0.746080730597     1.007825032070
           C          1.660459290448    -0.839271217863     0.210507730597    12.000000000000
           C          0.921432290448     1.436182782137     0.726080730597    12.000000000000
           H          2.460352290448    -0.601990217863    -0.482230269403     1.007825032070
           H          1.252829290448    -1.805216217863    -0.031832269403     1.007825032070
           H          2.076587290448    -0.875145217863     1.214983730597     1.007825032070
           H          1.915071290448     1.748207782137     0.427147730597     1.007825032070
           H          0.231020290448     2.203540782137     0.413949730597     1.007825032070
           H          0.902027290448     1.374459782137     1.812646730597     1.007825032070

  Nuclear repulsion =  252.407209244644207

  ==> Basis Set <==

  Basis Set: 6-31G*
    Number of shells: 54
    Number of basis function: 108
    Number of Cartesian functions: 108
    Spherical Harmonics?: false
    Max angular momentum: 2

  ==> DFJKGrad: Density-Fitted SCF Gradients <==

    Gradient:                    1
    J tasked:                  Yes
    K tasked:                  Yes
    wK tasked:                  No
    OpenMP threads:              4
    Integrals threads:           4
    Memory (MB):              1430
    Schwarz Cutoff:          0E+00
    Fitting Condition:       1E-12

   => Auxiliary Basis Set <=

  Basis Set: 
    Number of shells: 225
    Number of basis function: 711
    Number of Cartesian functions: 711
    Spherical Harmonics?: false
    Max angular momentum: 3


  -Total Gradient:
     Atom            X                  Y                   Z
    ------   -----------------  -----------------  -----------------
       1        0.000924552906    -0.000064200851     0.000728448179
       2       -0.000117323973    -0.000192233816     0.000013896814
       3        0.000010351067     0.000073959428    -0.000163442309
       4        0.002726488199     0.001528786299    -0.004880235819
       5       -0.000003872806     0.000036587122     0.000029371126
       6       -0.000011520282    -0.000008937973    -0.000005971615
       7       -0.000004242177    -0.000028068155    -0.000002570393
       8       -0.001802746894    -0.000138728640     0.001642871723
       9       -0.000510302263    -0.000574389480     0.001358597626
      10       -0.002090334637     0.001144287873    -0.000273435348
      11       -0.000355229735    -0.000400397490     0.000852702197
      12        0.001674851838    -0.001534738780     0.000264921096
      13       -0.000255650601    -0.000052026906     0.000125923022
      14       -0.000213160446    -0.000105646741     0.000137104746
      15        0.000028139805     0.000315748112     0.000171818957


*** tstop() called on cx1-5-5-2.cx1.hpc.ic.ac.uk at Fri Sep  2 12:23:05 2016
Module time:
	user time   =      13.92 seconds =       0.23 minutes
	system time =       0.17 seconds =       0.00 minutes
	total time  =          4 seconds =       0.07 minutes
Total time:
	user time   =      25.54 seconds =       0.43 minutes
	system time =       0.29 seconds =       0.00 minutes
	total time  =          8 seconds =       0.13 minutes
CURRENT ENERGY: -286.0291953912

			-----------------------------------------
			 OPTKING 2.0: for geometry optimizations 
			  - R.A. King,  Bethel University        
			-----------------------------------------

	Internal coordinates to be generated automatically.
	Detected frag with atoms:  1 2 3 4 5 6 7 8 9 10 11 12 13 14 15
	---Fragment 1 Bond Connectivity---
	 1 : 2
	 2 : 1 3 4
	 3 : 2 5 6 7
	 4 : 2 8 9
	 5 : 3
	 6 : 3
	 7 : 3
	 8 : 4 10 11 12
	 9 : 4 13 14 15
	 10 : 8
	 11 : 8
	 12 : 8
	 13 : 9
	 14 : 9
	 15 : 9

	Assuming in current code that numbering for constraints corresponds to unified fragment.
	Frozen dihedral atom list: 
	     2     4     8    10
	---Fragment 1 Geometry and Gradient---
	 O          -1.6594019835       -2.5695687490       -1.1065655510
	 C          -1.1999717661       -0.4362021155       -0.4766499110
	 C          -3.2770151121        1.5403418154       -0.4684333818
	 N           1.1698279525        0.3100847494        0.2032281981
	 H          -2.8337193764        3.1009759217       -1.7205451305
	 H          -4.9860116171        0.6312626030       -1.1113673451
	 H          -3.5870530301        2.3002290393        1.4098882539
	 C           3.1378133138       -1.5859927530        0.3978019597
	 C           1.7412546789        2.7139921350        1.3720937312
	 H           4.6493920194       -1.1375966464       -0.9112831422
	 H           2.3675042502       -3.4113642624       -0.0601542714
	 H           3.9241812700       -1.6537847883        2.2959865067
	 H           3.6189602639        3.3036339316        0.8071922291
	 H           0.4365650801        4.1640886009        0.7822516236
	 H           1.7045845433        2.5973525689        3.4254058965
	             0.0009245529       -0.0000642009        0.0007284482
	            -0.0001173240       -0.0001922338        0.0000138968
	             0.0000103511        0.0000739594       -0.0001634423
	             0.0027264882        0.0015287863       -0.0048802358
	            -0.0000038728        0.0000365871        0.0000293711
	            -0.0000115203       -0.0000089380       -0.0000059716
	            -0.0000042422       -0.0000280682       -0.0000025704
	            -0.0018027469       -0.0001387286        0.0016428717
	            -0.0005103023       -0.0005743895        0.0013585976
	            -0.0020903346        0.0011442879       -0.0002734353
	            -0.0003552297       -0.0004003975        0.0008527022
	             0.0016748518       -0.0015347388        0.0002649211
	            -0.0002556506       -0.0000520269        0.0001259230
	            -0.0002131604       -0.0001056467        0.0001371047
	             0.0000281398        0.0003157481        0.0001718190

	Previous optimization step data not found.  Starting new optimization.

	---Fragment 1 Intrafragment Coordinates---
	 - Coordinate -           - BOHR/RAD -       - ANG/DEG -
	 R(1,2)           =         2.271370	       1.201957
	 R(2,3)           =         2.867212	       1.517263
	 R(2,4)           =         2.575874	       1.363094
	 R(3,5)           =         2.049359	       1.084474
	 R(3,6)           =         2.039720	       1.079373
	 R(3,7)           =         2.049791	       1.084703
	 R(4,8)           =         2.739696	       1.449785
	 R(4,9)           =         2.733413	       1.446460
	 R(8,10)          =         2.049301	       1.084443
	 R(8,11)          =         2.033490	       1.076077
	 R(8,12)          =         2.055742	       1.087852
	 R(9,13)          =         2.047576	       1.083531
	 R(9,14)          =         2.037869	       1.078394
	 R(9,15)          =         2.056949	       1.088491
	 B(1,2,3)         =         2.096411	     120.115497
	 B(1,2,4)         =         2.131055	     122.100450
	 B(2,3,5)         =         1.946058	     111.500918
	 B(2,3,6)         =         1.874243	     107.386234
	 B(2,3,7)         =         1.947387	     111.577036
	 B(2,4,8)         =         2.070415	     118.626054
	 B(2,4,9)         =         2.165171	     124.055185
	 B(3,2,4)         =         2.055537	     117.773581
	 B(4,8,10)        =         1.910325	     109.453582
	 B(4,8,11)        =         1.910430	     109.459598
	 B(4,8,12)        =         1.942469	     111.295263
	 B(4,9,13)        =         1.903913	     109.086187
	 B(4,9,14)        =         1.947853	     111.603755
	 B(4,9,15)        =         1.953326	     111.917356
	 B(5,3,6)         =         1.905039	     109.150715
	 B(5,3,7)         =         1.886281	     108.075957
	 B(6,3,7)         =         1.904276	     109.106998
	 B(8,4,9)         =         2.013198	     115.347747
	 B(10,8,11)       =         1.909181	     109.387990
	 B(10,8,12)       =         1.891149	     108.354842
	 B(11,8,12)       =         1.899957	     108.859504
	 B(13,9,14)       =         1.877946	     107.598364
	 B(13,9,15)       =         1.883968	     107.943433
	 B(14,9,15)       =         1.894274	     108.533878
	 D(1,2,3,5)       =        -2.099076	    -120.268187
	 D(1,2,3,6)       =        -0.012956	      -0.742309
	 D(1,2,3,7)       =         2.073006	     118.774499
	 D(1,2,4,8)       =        -0.103033	      -5.903345
	 D(1,2,4,9)       =        -2.952406	    -169.160427
	*D(2,4,8,10)      =         2.094395	     119.999988
	 D(2,4,8,11)      =         0.002090	       0.119770
	 D(2,4,8,12)      =        -2.098874	    -120.256603
	 D(2,4,9,13)      =        -2.600670	    -149.007443
	 D(2,4,9,14)      =        -0.527938	     -30.248604
	 D(2,4,9,15)      =         1.598924	      91.611618
	 D(3,2,4,8)       =         3.059099	     175.273463
	 D(3,2,4,9)       =         0.209725	      12.016381
	 D(4,2,3,5)       =         1.022403	      58.579358
	 D(4,2,3,6)       =         3.108523	     178.105236
	 D(4,2,3,7)       =        -1.088701	     -62.377957
	 D(8,4,9,13)      =         0.824510	      47.240971
	 D(8,4,9,14)      =         2.897243	     165.999810
	 D(8,4,9,15)      =        -1.259080	     -72.139968
	 D(9,4,8,10)      =        -1.314466	     -75.313367
	 D(9,4,8,11)      =         2.876415	     164.806415
	 D(9,4,8,12)      =         0.775451	      44.430042

	Current energy   :      -286.0291953912

	Generating empirical Hessian (Schlegel '84) for each fragment.
	Taking RFO optimization step.
	Going to follow RFO solution 1.
	Using RFO vector 1.
	Norm of target step-size    0.20548
	Projected energy change by RFO approximation:         0.0012471941

	Back-transformation to cartesian coordinates...
	Successfully converged to displaced geometry.

	Back-transformation to cartesian coordinates to adjust frozen coordinates...
	Successfully converged to displaced geometry.

	--- Internal Coordinate Step in ANG or DEG, aJ/ANG or AJ/DEG ---
	 ---------------------------------------------------------------------------
	   Coordinate                Previous        Force       Change         New 
	   ----------                --------       ------       ------       ------
	    1 R(1,2)          =      1.201957     0.002708     0.000167     1.202125
	    2 R(2,3)          =      1.517263    -0.000470    -0.000098     1.517165
	    3 R(2,4)          =      1.363094     0.006916     0.000848     1.363942
	    4 R(3,5)          =      1.084474    -0.000075    -0.000014     1.084461
	    5 R(3,6)          =      1.079373    -0.000128    -0.000023     1.079351
	    6 R(3,7)          =      1.084703     0.000100     0.000018     1.084721
	    7 R(4,8)          =      1.449785     0.008474     0.001420     1.451205
	    8 R(4,9)          =      1.446460    -0.001664    -0.000276     1.446184
	    9 R(8,10)         =      1.084443     0.009201     0.001664     1.086107
	   10 R(8,11)         =      1.076077    -0.002488    -0.000437     1.075639
	   11 R(8,12)         =      1.087852    -0.007711    -0.001410     1.086442
	   12 R(9,13)         =      1.083531     0.002341     0.000422     1.083953
	   13 R(9,14)         =      1.078394    -0.000178    -0.000032     1.078362
	   14 R(9,15)         =      1.088491    -0.001261    -0.000231     1.088260
	   15 B(1,2,3)        =    120.115497    -0.000058    -0.179905   119.935592
	   16 B(1,2,4)        =    122.100450     0.000116     0.341468   122.441918
	   17 B(2,3,5)        =    111.500918    -0.000004    -0.020529   111.480390
	   18 B(2,3,6)        =    107.386234     0.000000     0.000970   107.387204
	   19 B(2,3,7)        =    111.577036     0.000003     0.015634   111.592671
	   20 B(2,4,8)        =    118.626054     0.000179     0.892671   119.518725
	   21 B(2,4,9)        =    124.055185    -0.000015     0.288187   124.343372
	   22 B(3,2,4)        =    117.773581    -0.000058    -0.181173   117.592408
	   23 B(4,8,10)       =    109.453582     0.000272     1.369553   110.823135
	   24 B(4,8,11)       =    109.459598     0.000002    -0.026398   109.433200
	   25 B(4,8,12)       =    111.295263    -0.000274    -1.342544   109.952720
	   26 B(4,9,13)       =    109.086187    -0.000005    -0.046631   109.039555
	   27 B(4,9,14)       =    111.603755     0.000020     0.109294   111.713050
	   28 B(4,9,15)       =    111.917356    -0.000035    -0.158495   111.758860
	   29 B(5,3,6)        =    109.150715    -0.000000    -0.008654   109.142061
	   30 B(5,3,7)        =    108.075957     0.000001     0.005632   108.081589
	   31 B(6,3,7)        =    109.106998     0.000000     0.006868   109.113866
	   32 B(8,4,9)        =    115.347747    -0.000149    -0.162725   115.185022
	   33 B(10,8,11)      =    109.387990    -0.000105    -0.369683   109.018307
	   34 B(10,8,12)      =    108.354842     0.000006     0.094559   108.449401
	   35 B(11,8,12)      =    108.859504     0.000098     0.272972   109.132475
	   36 B(13,9,14)      =    107.598364    -0.000008    -0.047547   107.550816
	   37 B(13,9,15)      =    107.943433     0.000013     0.028036   107.971469
	   38 B(14,9,15)      =    108.533878     0.000017     0.116774   108.650652
	   39 D(1,2,3,5)      =   -120.268187     0.000002     0.742759  -119.525427
	   40 D(1,2,3,6)      =     -0.742309     0.000001     0.720828    -0.021481
	   41 D(1,2,3,7)      =    118.774499     0.000001     0.738974   119.513473
	   42 D(1,2,4,8)      =     -5.903345    -0.000002     1.044625    -4.858721
	   43 D(1,2,4,9)      =   -169.160427    -0.000011    -3.973897  -173.134324
	   44 *D(2,4,8,10)    =    119.999988     0.000000     0.000000   119.999988
	   45 D(2,4,8,11)     =      0.119770    -0.000009    -0.377263    -0.257493
	   46 D(2,4,8,12)     =   -120.256603     0.000003     0.142605  -120.113997
	   47 D(2,4,9,13)     =   -149.007443     0.000009     1.910649  -147.096794
	   48 D(2,4,9,14)     =    -30.248604     0.000008     1.888719   -28.359885
	   49 D(2,4,9,15)     =     91.611618     0.000011     2.004786    93.616404
	   50 D(3,2,4,8)      =    175.273463     0.000001     1.866267   177.139730
	   51 D(3,2,4,9)      =     12.016381    -0.000009    -3.152254     8.864127
	   52 D(4,2,3,5)      =     58.579358    -0.000000    -0.050979    58.528379
	   53 D(4,2,3,6)      =    178.105236    -0.000001    -0.072911   178.032325
	   54 D(4,2,3,7)      =    -62.377957    -0.000001    -0.054764   -62.432721
	   55 D(8,4,9,13)     =     47.240971    -0.000012    -3.069525    44.171446
	   56 D(8,4,9,14)     =    165.999810    -0.000012    -3.091456   162.908354
	   57 D(8,4,9,15)     =    -72.139968    -0.000010    -2.975388   -75.115356
	   58 D(9,4,8,10)     =    -75.313367     0.000012     4.628620   -70.684748
	   59 D(9,4,8,11)     =    164.806415     0.000003     4.251357   169.057772
	   60 D(9,4,8,12)     =     44.430042     0.000015     4.771225    49.201267
	 ---------------------------------------------------------------------------

  ==> Convergence Check <==

  Measures of convergence in internal coordinates in au.
  Criteria marked as inactive (o), active & met (*), and active & unmet ( ).
  --------------------------------------------------------------------------------------------- ~
   Step     Total Energy     Delta E     MAX Force     RMS Force      MAX Disp      RMS Disp    ~
  --------------------------------------------------------------------------------------------- ~
    Convergence Criteria    1.00e-06 *    3.00e-04 *             o    1.20e-03 *             o  ~
  --------------------------------------------------------------------------------------------- ~
      1    -286.02919539   -2.86e+02      3.59e-03      9.23e-04 o    8.33e-02      2.65e-02 o  ~
  ---------------------------------------------------------------------------------------------

	Writing optimization data to binary file.
	Structure for next step:
	Cartesian Geometry (in Angstrom)
	    O    -0.8924323116  -1.3570936465  -0.6057650347
	    C    -0.6458305888  -0.2383851886  -0.2413706807
	    C    -1.7377587650   0.8149304105  -0.2384809191
	    N     0.6054241714   0.1477389974   0.1402147295
	    H    -1.4882843783   1.6473168644  -0.8872879616
	    H    -2.6405288912   0.3446280554  -0.5973957312
	    H    -1.9128729122   1.2056346839   0.7581658648
	    C     1.6671395360  -0.8389076864   0.2129055217
	    C     0.9212228639   1.4353132439   0.7180318547
	    H     2.4809480629  -0.5805196517  -0.4583464960
	    H     1.2787240530  -1.8035174154  -0.0621604227
	    H     2.0588010069  -0.8881788444   1.2250960378
	    H     1.9175903131   1.7276767107   0.4070184408
	    H     0.2387159235   2.2005879315   0.3842596839
	    H     0.9045204834   1.4044066662   1.8057242672
			--------------------------
			 OPTKING Finished Execution 
			--------------------------

    Structure for next step:
    Molecular point group: c1
    Full point group: C1

    Geometry (in Angstrom), charge = 0, multiplicity = 1:

    O           -0.886925258045    -1.354070538171    -0.609009910721
    C           -0.640323554078    -0.235362165707    -0.244615584544
    C           -1.732251646893     0.817953353006    -0.241725823230
    N            0.610931110512     0.150761990827     0.136969796463
    H           -1.482777279264     1.650339743382    -0.890532816151
    H           -2.635021704184     0.347651033845    -0.600640607893
    H           -1.907365780730     1.208657596523     0.754920884593
    C            1.672646394079    -0.835884617557     0.209660583133
    C            0.926729778906     1.438336139024     0.714786877527
    H            2.486454858805    -0.577496602631    -0.461591383320
    H            1.284230940667    -1.800494272988    -0.065405340240
    H            2.064307835007    -0.885155771799     1.221851021887
    H            1.923097152059     1.730699583469     0.403773487375
    H            0.244222890599     2.203610768229     0.381014732244
    H            0.910027399664     1.407429563665     1.802479207005

gradient() will perform analytic gradient computation.

*** tstart() called on cx1-5-5-2.cx1.hpc.ic.ac.uk
*** at Fri Sep  2 12:23:06 2016


         ---------------------------------------------------------
                                   SCF
            by Justin Turney, Rob Parrish, and Andy Simmonett
                              RHF Reference
                        4 Threads,   2000 MiB Core
         ---------------------------------------------------------

  ==> Geometry <==

    Molecular point group: c1
    Full point group: C1

    Geometry (in Angstrom), charge = 0, multiplicity = 1:

       Center              X                  Y                   Z               Mass       
    ------------   -----------------  -----------------  -----------------  -----------------
           O         -0.886925258045    -1.354070538171    -0.609009910721    15.994914619560
           C         -0.640323554078    -0.235362165707    -0.244615584544    12.000000000000
           C         -1.732251646893     0.817953353006    -0.241725823230    12.000000000000
           N          0.610931110512     0.150761990827     0.136969796463    14.003074004780
           H         -1.482777279264     1.650339743382    -0.890532816151     1.007825032070
           H         -2.635021704184     0.347651033845    -0.600640607893     1.007825032070
           H         -1.907365780730     1.208657596523     0.754920884593     1.007825032070
           C          1.672646394079    -0.835884617557     0.209660583133    12.000000000000
           C          0.926729778906     1.438336139024     0.714786877527    12.000000000000
           H          2.486454858805    -0.577496602631    -0.461591383320     1.007825032070
           H          1.284230940667    -1.800494272988    -0.065405340240     1.007825032070
           H          2.064307835007    -0.885155771799     1.221851021887     1.007825032070
           H          1.923097152059     1.730699583469     0.403773487375     1.007825032070
           H          0.244222890599     2.203610768229     0.381014732244     1.007825032070
           H          0.910027399664     1.407429563665     1.802479207005     1.007825032070

  Running in c1 symmetry.

  Rotational constants: A =      0.16646  B =      0.11443  C =      0.07052 [cm^-1]
  Rotational constants: A =   4990.33763  B =   3430.40120  C =   2114.26662 [MHz]
  Nuclear repulsion =  252.148429070800006

  Charge       = 0
  Multiplicity = 1
  Electrons    = 48
  Nalpha       = 24
  Nbeta        = 24

  ==> Algorithm <==

  SCF Algorithm Type is DF.
  DIIS enabled.
  MOM disabled.
  Fractional occupation disabled.
  Guess Type is READ.
  Energy threshold   = 1.00e-08
  Density threshold  = 1.00e-08
  Integral threshold = 0.00e+00

  ==> Primary Basis <==

  Basis Set: 6-31G*
    Number of shells: 54
    Number of basis function: 108
    Number of Cartesian functions: 108
    Spherical Harmonics?: false
    Max angular momentum: 2

  ==> Pre-Iterations <==

   -------------------------------------------------------
    Irrep   Nso     Nmo     Nalpha   Nbeta   Ndocc  Nsocc
   -------------------------------------------------------
     A        108     108       0       0       0       0
   -------------------------------------------------------
    Total     108     108      24      24      24       0
   -------------------------------------------------------

 OEINTS: Overlap, kinetic, potential, dipole, and quadrupole integrals
         stored in file 35.

  ==> Integral Setup <==

  ==> DFJK: Density-Fitted J/K Matrices <==

    J tasked:                  Yes
    K tasked:                  Yes
    wK tasked:                  No
    OpenMP threads:              4
    Integrals threads:           4
    Memory (MB):              1430
    Algorithm:                Core
    Integral Cache:           NONE
    Schwarz Cutoff:          1E-12
    Fitting Condition:       1E-12

   => Auxiliary Basis Set <=

  Basis Set: 
    Number of shells: 225
    Number of basis function: 711
    Number of Cartesian functions: 711
    Spherical Harmonics?: false
    Max angular momentum: 3

  Minimum eigenvalue in the overlap matrix is 3.6632097543E-03.
  Using Symmetric Orthogonalization.
  SCF Guess: Reading in previously saved MOs, projecting if necessary.

  Using orbitals from previous SCF, no projection.
  Recomputing DOCC and SOCC from number of alpha and beta electrons from previous calculation.
              A 
    DOCC [    24 ]

  ==> Iterations <==

                           Total Energy        Delta E     RMS |[F,P]|

   @DF-RHF iter   0:  -286.02756439446114   -2.86028e+02   8.84217e-04 
   @DF-RHF iter   1:  -286.02930142980688   -1.73704e-03   1.18234e-04 
   @DF-RHF iter   2:  -286.02945431393061   -1.52884e-04   3.93430e-05 DIIS
   @DF-RHF iter   3:  -286.02947597345917   -2.16595e-05   9.04121e-06 DIIS
   @DF-RHF iter   4:  -286.02947662059557   -6.47136e-07   3.30326e-06 DIIS
   @DF-RHF iter   5:  -286.02947677517193   -1.54576e-07   1.38076e-06 DIIS
   @DF-RHF iter   6:  -286.02947679812576   -2.29538e-08   5.18492e-07 DIIS
   @DF-RHF iter   7:  -286.02947680241243   -4.28668e-09   1.53673e-07 DIIS
   @DF-RHF iter   8:  -286.02947680270120   -2.88765e-10   4.99525e-08 DIIS
   @DF-RHF iter   9:  -286.02947680273678   -3.55840e-11   1.82210e-08 DIIS
   @DF-RHF iter  10:  -286.02947680274485   -8.07177e-12   7.28372e-09 DIIS

  ==> Post-Iterations <==

    Orbital Energies (a.u.)
    -----------------------

    Doubly Occupied:                                                      

       1A    -20.513215     2A    -15.584227     3A    -11.341865  
       4A    -11.266555     5A    -11.248183     6A    -11.227960  
       7A     -1.382971     8A     -1.243291     9A     -1.013997  
      10A     -0.972523    11A     -0.919665    12A     -0.737975  
      13A     -0.680745    14A     -0.659207    15A     -0.650721  
      16A     -0.589176    17A     -0.575462    18A     -0.567045  
      19A     -0.562790    20A     -0.547095    21A     -0.529604  
      22A     -0.503780    23A     -0.409062    24A     -0.365653  

    Virtual:                                                              

      25A      0.206919    26A      0.222893    27A      0.261724  
      28A      0.289253    29A      0.297770    30A      0.308195  
      31A      0.318097    32A      0.325898    33A      0.337030  
      34A      0.352622    35A      0.378574    36A      0.388265  
      37A      0.444271    38A      0.505780    39A      0.582772  
      40A      0.696295    41A      0.707159    42A      0.741453  
      43A      0.757554    44A      0.773873    45A      0.802833  
      46A      0.875099    47A      0.909579    48A      0.930291  
      49A      0.943146    50A      0.956458    51A      0.998929  
      52A      1.056527    53A      1.091773    54A      1.112318  
      55A      1.131988    56A      1.148056    57A      1.151930  
      58A      1.159333    59A      1.182475    60A      1.202034  
      61A      1.223545    62A      1.238320    63A      1.256888  
      64A      1.284278    65A      1.307291    66A      1.359072  
      67A      1.422129    68A      1.548943    69A      1.597786  
      70A      1.637536    71A      1.662703    72A      1.701592  
      73A      1.757693    74A      1.794618    75A      1.934213  
      76A      2.047536    77A      2.086994    78A      2.089705  
      79A      2.183283    80A      2.200055    81A      2.230921  
      82A      2.284008    83A      2.306674    84A      2.335189  
      85A      2.390326    86A      2.432062    87A      2.436703  
      88A      2.526167    89A      2.557990    90A      2.609766  
      91A      2.631464    92A      2.643994    93A      2.704732  
      94A      2.749179    95A      2.859004    96A      2.906200  
      97A      2.959548    98A      3.033005    99A      3.067198  
     100A      3.330741   101A      3.396083   102A      3.587937  
     103A      4.431351   104A      4.458318   105A      4.605461  
     106A      4.711502   107A      4.769522   108A      4.938984  

    Final Occupation by Irrep:
              A 
    DOCC [    24 ]

  Energy converged.

  @DF-RHF Final Energy:  -286.02947680274485

   => Energetics <=

    Nuclear Repulsion Energy =            252.1484290708000060
    One-Electron Energy =                -888.1702769490095761
    Two-Electron Energy =                 349.9923710754648027
    DFT Exchange-Correlation Energy =       0.0000000000000000
    Empirical Dispersion Energy =           0.0000000000000000
    PCM Polarization Energy =               0.0000000000000000
    EFP Energy =                            0.0000000000000000
    Total Energy =                       -286.0294768027447390

    Alert: EFP and PCM quantities not currently incorporated into SCF psivars.

Properties will be evaluated at   0.000000,   0.000000,   0.000000 Bohr
  ==> Properties <==


Properties computed using the SCF density matrix

  Nuclear Dipole Moment: (a.u.)
     X:     2.7006      Y:     4.9478      Z:     2.3834

  Electronic Dipole Moment: (a.u.)
     X:    -2.1185      Y:    -3.6351      Z:    -1.8103

  Dipole Moment: (a.u.)
     X:     0.5821      Y:     1.3127      Z:     0.5731     Total:     1.5461

  Dipole Moment: (Debye)
     X:     1.4795      Y:     3.3366      Z:     1.4566     Total:     3.9298


  Saving occupied orbitals to File 180.

*** tstop() called on cx1-5-5-2.cx1.hpc.ic.ac.uk at Fri Sep  2 12:23:11 2016
Module time:
	user time   =      12.07 seconds =       0.20 minutes
	system time =       0.19 seconds =       0.00 minutes
	total time  =          5 seconds =       0.08 minutes
Total time:
	user time   =      38.79 seconds =       0.65 minutes
	system time =       0.50 seconds =       0.01 minutes
	total time  =         14 seconds =       0.23 minutes

*** tstart() called on cx1-5-5-2.cx1.hpc.ic.ac.uk
*** at Fri Sep  2 12:23:11 2016


         ------------------------------------------------------------
                                   SCF GRAD                          
                          Rob Parrish, Justin Turney,                
                       Andy Simmonett, and Alex Sokolov              
         ------------------------------------------------------------

  ==> Geometry <==

    Molecular point group: c1
    Full point group: C1

    Geometry (in Angstrom), charge = 0, multiplicity = 1:

       Center              X                  Y                   Z               Mass       
    ------------   -----------------  -----------------  -----------------  -----------------
           O         -0.886925258045    -1.354070538171    -0.609009910721    15.994914619560
           C         -0.640323554078    -0.235362165707    -0.244615584544    12.000000000000
           C         -1.732251646893     0.817953353006    -0.241725823230    12.000000000000
           N          0.610931110512     0.150761990827     0.136969796463    14.003074004780
           H         -1.482777279264     1.650339743382    -0.890532816151     1.007825032070
           H         -2.635021704184     0.347651033845    -0.600640607893     1.007825032070
           H         -1.907365780730     1.208657596523     0.754920884593     1.007825032070
           C          1.672646394079    -0.835884617557     0.209660583133    12.000000000000
           C          0.926729778906     1.438336139024     0.714786877527    12.000000000000
           H          2.486454858805    -0.577496602631    -0.461591383320     1.007825032070
           H          1.284230940667    -1.800494272988    -0.065405340240     1.007825032070
           H          2.064307835007    -0.885155771799     1.221851021887     1.007825032070
           H          1.923097152059     1.730699583469     0.403773487375     1.007825032070
           H          0.244222890599     2.203610768229     0.381014732244     1.007825032070
           H          0.910027399664     1.407429563665     1.802479207005     1.007825032070

  Nuclear repulsion =  252.148429070799949

  ==> Basis Set <==

  Basis Set: 6-31G*
    Number of shells: 54
    Number of basis function: 108
    Number of Cartesian functions: 108
    Spherical Harmonics?: false
    Max angular momentum: 2

  ==> DFJKGrad: Density-Fitted SCF Gradients <==

    Gradient:                    1
    J tasked:                  Yes
    K tasked:                  Yes
    wK tasked:                  No
    OpenMP threads:              4
    Integrals threads:           4
    Memory (MB):              1430
    Schwarz Cutoff:          0E+00
    Fitting Condition:       1E-12

   => Auxiliary Basis Set <=

  Basis Set: 
    Number of shells: 225
    Number of basis function: 711
    Number of Cartesian functions: 711
    Spherical Harmonics?: false
    Max angular momentum: 3


  -Total Gradient:
     Atom            X                  Y                   Z
    ------   -----------------  -----------------  -----------------
       1       -0.000893339186     0.000413959709    -0.001165906183
       2       -0.002021719394    -0.001295637833     0.002963746787
       3        0.000296662521     0.000013508845    -0.001264518702
       4        0.001257842964     0.001502217039    -0.000165737469
       5        0.000169454082     0.000216554521     0.000109171297
       6       -0.000041254151     0.000041537854    -0.000056642952
       7       -0.000028193998    -0.000299461565    -0.000032873666
       8        0.001553418402     0.000093388482    -0.000860042700
       9       -0.000359539626    -0.000121274118     0.000582316355
      10        0.000324304854    -0.001063515782    -0.000342959467
      11        0.000345542326     0.000237380941     0.000337854619
      12       -0.000513740919     0.000480939220     0.000084941858
      13        0.000055965282    -0.000023816078    -0.000002765234
      14       -0.000079391568    -0.000055718303    -0.000264088193
      15       -0.000066011589    -0.000140062930     0.000077503649


*** tstop() called on cx1-5-5-2.cx1.hpc.ic.ac.uk at Fri Sep  2 12:23:15 2016
Module time:
	user time   =      14.24 seconds =       0.24 minutes
	system time =       0.16 seconds =       0.00 minutes
	total time  =          4 seconds =       0.07 minutes
Total time:
	user time   =      53.05 seconds =       0.88 minutes
	system time =       0.66 seconds =       0.01 minutes
	total time  =         18 seconds =       0.30 minutes
CURRENT ENERGY: -286.0294768027

			-----------------------------------------
			 OPTKING 2.0: for geometry optimizations 
			  - R.A. King,  Bethel University        
			-----------------------------------------

	Previous internal coordinate definitions found.
	---Fragment 1 Geometry and Gradient---
	 O          -1.6760458380       -2.5588224818       -1.1508619435
	 C          -1.2100361536       -0.4447700352       -0.4622564626
	 C          -3.2734812059        1.5457078267       -0.4567956052
	 N           1.1544924849        0.2848988739        0.2588354038
	 H          -2.8020429739        3.1186901412       -1.6828631349
	 H          -4.9794693751        0.6569652438       -1.1350462532
	 H          -3.6043989608        2.2840318459        1.4265937239
	 C           3.1608436020       -1.5795930059        0.3962010830
	 C           1.7512654813        2.7180613898        1.3507514419
	 H           4.6987187249       -1.0913104216       -0.8722812998
	 H           2.4268447692       -3.4024410798       -0.1235981807
	 H           3.9009764621       -1.6727019936        2.3089638066
	 H           3.6341269443        3.2705482311        0.7630213109
	 H           0.4615143786        4.1642208554        0.7200134965
	 H           1.7197025588        2.6596564267        3.4061920615
	            -0.0008933392        0.0004139597       -0.0011659062
	            -0.0020217194       -0.0012956378        0.0029637468
	             0.0002966625        0.0000135088       -0.0012645187
	             0.0012578430        0.0015022170       -0.0001657375
	             0.0001694541        0.0002165545        0.0001091713
	            -0.0000412542        0.0000415379       -0.0000566430
	            -0.0000281940       -0.0002994616       -0.0000328737
	             0.0015534184        0.0000933885       -0.0008600427
	            -0.0003595396       -0.0001212741        0.0005823164
	             0.0003243049       -0.0010635158       -0.0003429595
	             0.0003455423        0.0002373809        0.0003378546
	            -0.0005137409        0.0004809392        0.0000849419
	             0.0000559653       -0.0000238161       -0.0000027652
	            -0.0000793916       -0.0000557183       -0.0002640882
	            -0.0000660116       -0.0001400629        0.0000775036

	---Fragment 1 Intrafragment Coordinates---
	 - Coordinate -           - BOHR/RAD -       - ANG/DEG -
	 R(1,2)           =         2.271687	       1.202125
	 R(2,3)           =         2.867026	       1.517165
	 R(2,4)           =         2.577477	       1.363942
	 R(3,5)           =         2.049334	       1.084461
	 R(3,6)           =         2.039677	       1.079351
	 R(3,7)           =         2.049825	       1.084721
	 R(4,8)           =         2.742379	       1.451205
	 R(4,9)           =         2.732892	       1.446184
	 R(8,10)          =         2.052444	       1.086107
	 R(8,11)          =         2.032663	       1.075639
	 R(8,12)          =         2.053077	       1.086442
	 R(9,13)          =         2.048374	       1.083953
	 R(9,14)          =         2.037809	       1.078362
	 R(9,15)          =         2.056512	       1.088260
	 B(1,2,3)         =         2.093271	     119.935592
	 B(1,2,4)         =         2.137015	     122.441918
	 B(2,3,5)         =         1.945700	     111.480390
	 B(2,3,6)         =         1.874260	     107.387204
	 B(2,3,7)         =         1.947660	     111.592671
	 B(2,4,8)         =         2.085995	     119.518725
	 B(2,4,9)         =         2.170201	     124.343372
	 B(3,2,4)         =         2.052375	     117.592408
	 B(4,8,10)        =         1.934229	     110.823135
	 B(4,8,11)        =         1.909970	     109.433200
	 B(4,8,12)        =         1.919037	     109.952720
	 B(4,9,13)        =         1.903099	     109.039555
	 B(4,9,14)        =         1.949761	     111.713050
	 B(4,9,15)        =         1.950560	     111.758860
	 B(5,3,6)         =         1.904888	     109.142061
	 B(5,3,7)         =         1.886380	     108.081589
	 B(6,3,7)         =         1.904396	     109.113866
	 B(8,4,9)         =         2.010358	     115.185022
	 B(10,8,11)       =         1.902728	     109.018307
	 B(10,8,12)       =         1.892799	     108.449401
	 B(11,8,12)       =         1.904721	     109.132475
	 B(13,9,14)       =         1.877116	     107.550816
	 B(13,9,15)       =         1.884458	     107.971469
	 B(14,9,15)       =         1.896312	     108.650652
	 D(1,2,3,5)       =        -2.086112	    -119.525427
	 D(1,2,3,6)       =        -0.000375	      -0.021481
	 D(1,2,3,7)       =         2.085904	     119.513473
	 D(1,2,4,8)       =        -0.084801	      -4.858721
	 D(1,2,4,9)       =        -3.021764	    -173.134324
	*D(2,4,8,10)      =         2.094395	     119.999988
	 D(2,4,8,11)      =        -0.004494	      -0.257493
	 D(2,4,8,12)      =        -2.096385	    -120.113997
	 D(2,4,9,13)      =        -2.567323	    -147.096794
	 D(2,4,9,14)      =        -0.494973	     -28.359885
	 D(2,4,9,15)      =         1.633914	      93.616404
	 D(3,2,4,8)       =         3.091672	     177.139730
	 D(3,2,4,9)       =         0.154708	       8.864127
	 D(4,2,3,5)       =         1.021513	      58.528379
	 D(4,2,3,6)       =         3.107250	     178.032325
	 D(4,2,3,7)       =        -1.089657	     -62.432721
	 D(8,4,9,13)      =         0.770937	      44.171446
	 D(8,4,9,14)      =         2.843287	     162.908354
	 D(8,4,9,15)      =        -1.311010	     -75.115356
	 D(9,4,8,10)      =        -1.233682	     -70.684748
	 D(9,4,8,11)      =         2.950615	     169.057772
	 D(9,4,8,12)      =         0.858724	      49.201267

	Current energy   :      -286.0294768027

	Energy change for the previous step:
		Projected    :         0.0012471941
		Actual       :        -0.0002814116

	Performing BFGS update.
	Previous computed or guess Hessian on step 1.
	Steps to be used in Hessian update: 1
	Taking RFO optimization step.
	Going to follow RFO solution 1.
	Using RFO vector 1.
	Norm of target step-size    0.26546
	Projected energy change by RFO approximation:         0.0003050920

	Back-transformation to cartesian coordinates...
	Successfully converged to displaced geometry.

	Back-transformation to cartesian coordinates to adjust frozen coordinates...
	Successfully converged to displaced geometry.

	--- Internal Coordinate Step in ANG or DEG, aJ/ANG or AJ/DEG ---
	 ---------------------------------------------------------------------------
	   Coordinate                Previous        Force       Change         New 
	   ----------                --------       ------       ------       ------
	    1 R(1,2)          =      1.202125    -0.001248     0.000036     1.202161
	    2 R(2,3)          =      1.517165     0.002531     0.000409     1.517573
	    3 R(2,4)          =      1.363942    -0.019881    -0.001632     1.362310
	    4 R(3,5)          =      1.084461    -0.001152    -0.000193     1.084267
	    5 R(3,6)          =      1.079351    -0.000290    -0.000060     1.079291
	    6 R(3,7)          =      1.084721     0.001100     0.000188     1.084909
	    7 R(4,8)          =      1.451205    -0.011393    -0.000805     1.450400
	    8 R(4,9)          =      1.446184     0.002015     0.000124     1.446308
	    9 R(8,10)         =      1.086107    -0.001664     0.000775     1.086881
	   10 R(8,11)         =      1.075639     0.003494     0.000271     1.075911
	   11 R(8,12)         =      1.086442     0.001054    -0.000712     1.085730
	   12 R(9,13)         =      1.083953    -0.000377     0.000204     1.084157
	   13 R(9,14)         =      1.078362    -0.000762    -0.000140     1.078223
	   14 R(9,15)         =      1.088260    -0.000679    -0.000255     1.088004
	   15 B(1,2,3)        =    119.935592     0.000071     0.048037   119.983629
	   16 B(1,2,4)        =    122.441918    -0.000126    -0.146057   122.295861
	   17 B(2,3,5)        =    111.480390    -0.000002    -0.030388   111.450002
	   18 B(2,3,6)        =    107.387204    -0.000010    -0.049566   107.337638
	   19 B(2,3,7)        =    111.592671     0.000021     0.116174   111.708845
	   20 B(2,4,8)        =    119.518725    -0.000114     0.215049   119.733773
	   21 B(2,4,9)        =    124.343372     0.000095     0.429921   124.773293
	   22 B(3,2,4)        =    117.592408     0.000058     0.015452   117.607860
	   23 B(4,8,10)       =    110.823135    -0.000122     0.283133   111.106268
	   24 B(4,8,11)       =    109.433200    -0.000019    -0.116467   109.316733
	   25 B(4,8,12)       =    109.952720     0.000103    -0.318944   109.633776
	   26 B(4,9,13)       =    109.039555    -0.000003    -0.040469   108.999086
	   27 B(4,9,14)       =    111.713050     0.000022     0.164392   111.877442
	   28 B(4,9,15)       =    111.758860     0.000010    -0.062636   111.696224
	   29 B(5,3,6)        =    109.142061    -0.000005    -0.067685   109.074376
	   30 B(5,3,7)        =    108.081589    -0.000006    -0.003173   108.078417
	   31 B(6,3,7)        =    109.113866     0.000001     0.032070   109.145936
	   32 B(8,4,9)        =    115.185022     0.000021    -0.084406   115.100616
	   33 B(10,8,11)      =    109.018307     0.000050    -0.204825   108.813481
	   34 B(10,8,12)      =    108.449401    -0.000003     0.092786   108.542187
	   35 B(11,8,12)      =    109.132475    -0.000008     0.269310   109.401785
	   36 B(13,9,14)      =    107.550816    -0.000006    -0.043753   107.507063
	   37 B(13,9,15)      =    107.971469    -0.000007    -0.022819   107.948651
	   38 B(14,9,15)      =    108.650652    -0.000018    -0.000195   108.650457
	   39 D(1,2,3,5)      =   -119.525427    -0.000005     0.240126  -119.285301
	   40 D(1,2,3,6)      =     -0.021481    -0.000008     0.108670     0.087189
	   41 D(1,2,3,7)      =    119.513473    -0.000006     0.184457   119.697930
	   42 D(1,2,4,8)      =     -4.858721     0.000009     4.043693    -0.815028
	   43 D(1,2,4,9)      =   -173.134324     0.000007    -0.126425  -173.260748
	   44 *D(2,4,8,10)    =    119.999988    -0.000000     0.000000   119.999988
	   45 D(2,4,8,11)     =     -0.257493     0.000006     0.151620    -0.105873
	   46 D(2,4,8,12)     =   -120.113997    -0.000003     0.088499  -120.025498
	   47 D(2,4,9,13)     =   -147.096794     0.000000     2.212009  -144.884785
	   48 D(2,4,9,14)     =    -28.359885     0.000001     2.232382   -26.127504
	   49 D(2,4,9,15)     =     93.616404     0.000001     2.305342    95.921747
	   50 D(3,2,4,8)      =    177.139730    -0.000010    -1.817945   175.321786
	   51 D(3,2,4,9)      =      8.864127    -0.000013    -5.988062     2.876065
	   52 D(4,2,3,5)      =     58.528379     0.000014     5.956298    64.484677
	   53 D(4,2,3,6)      =    178.032325     0.000011     5.824842   183.857167
	   54 D(4,2,3,7)      =    -62.432721     0.000012     5.900630   -56.532091
	   55 D(8,4,9,13)     =     44.171446     0.000001    -1.814186    42.357260
	   56 D(8,4,9,14)     =    162.908354     0.000002    -1.793812   161.114542
	   57 D(8,4,9,15)     =    -75.115356     0.000002    -1.720852   -76.836208
	   58 D(9,4,8,10)     =    -70.684748     0.000005     3.835972   -66.848775
	   59 D(9,4,8,11)     =    169.057772     0.000011     3.987592   173.045364
	   60 D(9,4,8,12)     =     49.201267     0.000001     3.924471    53.125738
	 ---------------------------------------------------------------------------

  ==> Convergence Check <==

  Measures of convergence in internal coordinates in au.
  Criteria marked as inactive (o), active & met (*), and active & unmet ( ).
  ---------------------------------------------------------------------------------------------
   Step     Total Energy     Delta E     MAX Force     RMS Force      MAX Disp      RMS Disp   
  ---------------------------------------------------------------------------------------------
    Convergence Criteria    1.00e-06 *    3.00e-04 *             o    1.20e-03 *             o
  ---------------------------------------------------------------------------------------------
      2    -286.02947680   -2.81e-04      2.41e-03      6.50e-04 o    1.05e-01      3.43e-02 o  ~
  ---------------------------------------------------------------------------------------------

	Writing optimization data to binary file.
	Structure for next step:
	Cartesian Geometry (in Angstrom)
	    O    -0.8793200256  -1.3487413390  -0.6310763260
	    C    -0.6308672934  -0.2247727870  -0.2844383847
	    C    -1.7347929246   0.8154257795  -0.2358127234
	    N     0.6059933895   0.1465368322   0.1493739240
	    H    -1.5278528930   1.6447030585  -0.9029789242
	    H    -2.6472833055   0.3308590071  -0.5479421552
	    H    -1.8674709984   1.2133099483   0.7647432312
	    C     1.6692454069  -0.8374788756   0.2191393403
	    C     0.9301686537   1.4407322562   0.7077420183
	    H     2.5057043096  -0.5555110608  -0.4150073311
	    H     1.2931722679  -1.7915001926  -0.1064307202
	    H     2.0237958248  -0.9195744959   1.2420586634
	    H     1.9346235471   1.7142017281   0.4049539009
	    H     0.2635027498   2.2100364161   0.3523665952
	    H     0.8993646452   1.4287499301   1.7952442076
			--------------------------
			 OPTKING Finished Execution 
			--------------------------

    Structure for next step:
    Molecular point group: c1
    Full point group: C1

    Geometry (in Angstrom), charge = 0, multiplicity = 1:

    O           -0.880769861594    -1.350146952968    -0.625155601339
    C           -0.632317148325    -0.226178486730    -0.278517686499
    C           -1.736242695250     0.814020000331    -0.229892028927
    N            0.604543440109     0.145131104123     0.155294589122
    H           -1.529302679432     1.643297215996    -0.897058178794
    H           -2.648733006433     0.329453264894    -0.542021436859
    H           -1.868920758892     1.211904138709     0.770663849308
    C            1.667795376307    -0.838884528533     0.225060000082
    C            0.928718679547     1.439326429249     0.713662640744
    H            2.504254215124    -0.556916735356    -0.409086622964
    H            1.291722266069    -1.792905772721    -0.100510035586
    H            2.022345767161    -0.920980142622     1.247979245011
    H            1.933173496216     1.712795880285     0.410874546457
    H            0.262052826531     2.208630530357     0.358287244742
    H            0.897914673462     1.427344104100     1.801164747015

gradient() will perform analytic gradient computation.

*** tstart() called on cx1-5-5-2.cx1.hpc.ic.ac.uk
*** at Fri Sep  2 12:23:15 2016


         ---------------------------------------------------------
                                   SCF
            by Justin Turney, Rob Parrish, and Andy Simmonett
                              RHF Reference
                        4 Threads,   2000 MiB Core
         ---------------------------------------------------------

  ==> Geometry <==

    Molecular point group: c1
    Full point group: C1

    Geometry (in Angstrom), charge = 0, multiplicity = 1:

       Center              X                  Y                   Z               Mass       
    ------------   -----------------  -----------------  -----------------  -----------------
           O         -0.880769861594    -1.350146952968    -0.625155601339    15.994914619560
           C         -0.632317148325    -0.226178486730    -0.278517686499    12.000000000000
           C         -1.736242695250     0.814020000331    -0.229892028927    12.000000000000
           N          0.604543440109     0.145131104123     0.155294589122    14.003074004780
           H         -1.529302679432     1.643297215996    -0.897058178794     1.007825032070
           H         -2.648733006433     0.329453264894    -0.542021436859     1.007825032070
           H         -1.868920758892     1.211904138709     0.770663849308     1.007825032070
           C          1.667795376307    -0.838884528533     0.225060000082    12.000000000000
           C          0.928718679547     1.439326429249     0.713662640744    12.000000000000
           H          2.504254215124    -0.556916735356    -0.409086622964     1.007825032070
           H          1.291722266069    -1.792905772721    -0.100510035586     1.007825032070
           H          2.022345767161    -0.920980142622     1.247979245011     1.007825032070
           H          1.933173496216     1.712795880285     0.410874546457     1.007825032070
           H          0.262052826531     2.208630530357     0.358287244742     1.007825032070
           H          0.897914673462     1.427344104100     1.801164747015     1.007825032070

  Running in c1 symmetry.

  Rotational constants: A =      0.16651  B =      0.11443  C =      0.07052 [cm^-1]
  Rotational constants: A =   4991.87177  B =   3430.46609  C =   2114.03414 [MHz]
  Nuclear repulsion =  252.175033135724874

  Charge       = 0
  Multiplicity = 1
  Electrons    = 48
  Nalpha       = 24
  Nbeta        = 24

  ==> Algorithm <==

  SCF Algorithm Type is DF.
  DIIS enabled.
  MOM disabled.
  Fractional occupation disabled.
  Guess Type is READ.
  Energy threshold   = 1.00e-08
  Density threshold  = 1.00e-08
  Integral threshold = 0.00e+00

  ==> Primary Basis <==

  Basis Set: 6-31G*
    Number of shells: 54
    Number of basis function: 108
    Number of Cartesian functions: 108
    Spherical Harmonics?: false
    Max angular momentum: 2

  ==> Pre-Iterations <==

   -------------------------------------------------------
    Irrep   Nso     Nmo     Nalpha   Nbeta   Ndocc  Nsocc
   -------------------------------------------------------
     A        108     108       0       0       0       0
   -------------------------------------------------------
    Total     108     108      24      24      24       0
   -------------------------------------------------------

 OEINTS: Overlap, kinetic, potential, dipole, and quadrupole integrals
         stored in file 35.

  ==> Integral Setup <==

  ==> DFJK: Density-Fitted J/K Matrices <==

    J tasked:                  Yes
    K tasked:                  Yes
    wK tasked:                  No
    OpenMP threads:              4
    Integrals threads:           4
    Memory (MB):              1430
    Algorithm:                Core
    Integral Cache:           NONE
    Schwarz Cutoff:          1E-12
    Fitting Condition:       1E-12

   => Auxiliary Basis Set <=

  Basis Set: 
    Number of shells: 225
    Number of basis function: 711
    Number of Cartesian functions: 711
    Spherical Harmonics?: false
    Max angular momentum: 3

  Minimum eigenvalue in the overlap matrix is 3.6660043757E-03.
  Using Symmetric Orthogonalization.
  SCF Guess: Reading in previously saved MOs, projecting if necessary.

  Using orbitals from previous SCF, no projection.
  Recomputing DOCC and SOCC from number of alpha and beta electrons from previous calculation.
              A 
    DOCC [    24 ]

  ==> Iterations <==

                           Total Energy        Delta E     RMS |[F,P]|

   @DF-RHF iter   0:  -286.02462206283678   -2.86025e+02   7.83241e-04 
   @DF-RHF iter   1:  -286.02896825847222   -4.34620e-03   1.44266e-04 
   @DF-RHF iter   2:  -286.02920266295098   -2.34404e-04   4.94544e-05 DIIS
   @DF-RHF iter   3:  -286.02923658216525   -3.39192e-05   1.18118e-05 DIIS
   @DF-RHF iter   4:  -286.02923757163535   -9.89470e-07   3.32074e-06 DIIS
   @DF-RHF iter   5:  -286.02923767699394   -1.05359e-07   1.32637e-06 DIIS
   @DF-RHF iter   6:  -286.02923770282621   -2.58323e-08   5.53919e-07 DIIS
   @DF-RHF iter   7:  -286.02923771012320   -7.29699e-09   2.55696e-07 DIIS
   @DF-RHF iter   8:  -286.02923771177677   -1.65358e-09   7.10685e-08 DIIS
   @DF-RHF iter   9:  -286.02923771189103   -1.14255e-10   2.15484e-08 DIIS
   @DF-RHF iter  10:  -286.02923771189990   -8.86757e-12   7.68283e-09 DIIS

  ==> Post-Iterations <==

    Orbital Energies (a.u.)
    -----------------------

    Doubly Occupied:                                                      

       1A    -20.512530     2A    -15.584086     3A    -11.341774  
       4A    -11.266717     5A    -11.248131     6A    -11.228002  
       7A     -1.382763     8A     -1.243258     9A     -1.013919  
      10A     -0.972652    11A     -0.920076    12A     -0.738040  
      13A     -0.680642    14A     -0.659344    15A     -0.650601  
      16A     -0.589071    17A     -0.575028    18A     -0.567358  
      19A     -0.562816    20A     -0.546930    21A     -0.529588  
      22A     -0.503990    23A     -0.408767    24A     -0.365010  

    Virtual:                                                              

      25A      0.208204    26A      0.221291    27A      0.260771  
      28A      0.290215    29A      0.296714    30A      0.308318  
      31A      0.318265    32A      0.326329    33A      0.339498  
      34A      0.352319    35A      0.375305    36A      0.389939  
      37A      0.445230    38A      0.504972    39A      0.582475  
      40A      0.696216    41A      0.706216    42A      0.741185  
      43A      0.758422    44A      0.771855    45A      0.802042  
      46A      0.877065    47A      0.904695    48A      0.932498  
      49A      0.944116    50A      0.960936    51A      0.999336  
      52A      1.056907    53A      1.092447    54A      1.111524  
      55A      1.131777    56A      1.150055    57A      1.151094  
      58A      1.159298    59A      1.180063    60A      1.201872  
      61A      1.224988    62A      1.237884    63A      1.258136  
      64A      1.283399    65A      1.306385    66A      1.359501  
      67A      1.422652    68A      1.542820    69A      1.618384  
      70A      1.642912    71A      1.672050    72A      1.681113  
      73A      1.758416    74A      1.793992    75A      1.931598  
      76A      2.045421    77A      2.087319    78A      2.090232  
      79A      2.184689    80A      2.202514    81A      2.229199  
      82A      2.282092    83A      2.304780    84A      2.336456  
      85A      2.396762    86A      2.432971    87A      2.433308  
      88A      2.531602    89A      2.556798    90A      2.608163  
      91A      2.630806    92A      2.644652    93A      2.716772  
      94A      2.739859    95A      2.874562    96A      2.886599  
      97A      2.960740    98A      3.038518    99A      3.061622  
     100A      3.332957   101A      3.396516   102A      3.591144  
     103A      4.428994   104A      4.458973   105A      4.603627  
     106A      4.712198   107A      4.766057   108A      4.938830  

    Final Occupation by Irrep:
              A 
    DOCC [    24 ]

  Energy converged.

  @DF-RHF Final Energy:  -286.02923771189990

   => Energetics <=

    Nuclear Repulsion Energy =            252.1750331357248740
    One-Electron Energy =                -888.2263521962013328
    Two-Electron Energy =                 350.0220813485764211
    DFT Exchange-Correlation Energy =       0.0000000000000000
    Empirical Dispersion Energy =           0.0000000000000000
    PCM Polarization Energy =               0.0000000000000000
    EFP Energy =                            0.0000000000000000
    Total Energy =                       -286.0292377119000093

    Alert: EFP and PCM quantities not currently incorporated into SCF psivars.

Properties will be evaluated at   0.000000,   0.000000,   0.000000 Bohr
  ==> Properties <==


Properties computed using the SCF density matrix

  Nuclear Dipole Moment: (a.u.)
     X:     2.6794      Y:     4.9266      Z:     2.4717

  Electronic Dipole Moment: (a.u.)
     X:    -2.0918      Y:    -3.6030      Z:    -1.9176

  Dipole Moment: (a.u.)
     X:     0.5876      Y:     1.3236      Z:     0.5542     Total:     1.5506

  Dipole Moment: (Debye)
     X:     1.4936      Y:     3.3643      Z:     1.4086     Total:     3.9413


  Saving occupied orbitals to File 180.

*** tstop() called on cx1-5-5-2.cx1.hpc.ic.ac.uk at Fri Sep  2 12:23:19 2016
Module time:
	user time   =      11.35 seconds =       0.19 minutes
	system time =       0.14 seconds =       0.00 minutes
	total time  =          4 seconds =       0.07 minutes
Total time:
	user time   =      65.00 seconds =       1.08 minutes
	system time =       0.81 seconds =       0.01 minutes
	total time  =         22 seconds =       0.37 minutes

*** tstart() called on cx1-5-5-2.cx1.hpc.ic.ac.uk
*** at Fri Sep  2 12:23:19 2016


         ------------------------------------------------------------
                                   SCF GRAD                          
                          Rob Parrish, Justin Turney,                
                       Andy Simmonett, and Alex Sokolov              
         ------------------------------------------------------------

  ==> Geometry <==

    Molecular point group: c1
    Full point group: C1

    Geometry (in Angstrom), charge = 0, multiplicity = 1:

       Center              X                  Y                   Z               Mass       
    ------------   -----------------  -----------------  -----------------  -----------------
           O         -0.880769861594    -1.350146952968    -0.625155601339    15.994914619560
           C         -0.632317148325    -0.226178486730    -0.278517686499    12.000000000000
           C         -1.736242695250     0.814020000331    -0.229892028927    12.000000000000
           N          0.604543440109     0.145131104123     0.155294589122    14.003074004780
           H         -1.529302679432     1.643297215996    -0.897058178794     1.007825032070
           H         -2.648733006433     0.329453264894    -0.542021436859     1.007825032070
           H         -1.868920758892     1.211904138709     0.770663849308     1.007825032070
           C          1.667795376307    -0.838884528533     0.225060000082    12.000000000000
           C          0.928718679547     1.439326429249     0.713662640744    12.000000000000
           H          2.504254215124    -0.556916735356    -0.409086622964     1.007825032070
           H          1.291722266069    -1.792905772721    -0.100510035586     1.007825032070
           H          2.022345767161    -0.920980142622     1.247979245011     1.007825032070
           H          1.933173496216     1.712795880285     0.410874546457     1.007825032070
           H          0.262052826531     2.208630530357     0.358287244742     1.007825032070
           H          0.897914673462     1.427344104100     1.801164747015     1.007825032070

  Nuclear repulsion =  252.175033135724874

  ==> Basis Set <==

  Basis Set: 6-31G*
    Number of shells: 54
    Number of basis function: 108
    Number of Cartesian functions: 108
    Spherical Harmonics?: false
    Max angular momentum: 2

  ==> DFJKGrad: Density-Fitted SCF Gradients <==

    Gradient:                    1
    J tasked:                  Yes
    K tasked:                  Yes
    wK tasked:                  No
    OpenMP threads:              4
    Integrals threads:           4
    Memory (MB):              1430
    Schwarz Cutoff:          0E+00
    Fitting Condition:       1E-12

   => Auxiliary Basis Set <=

  Basis Set: 
    Number of shells: 225
    Number of basis function: 711
    Number of Cartesian functions: 711
    Spherical Harmonics?: false
    Max angular momentum: 3


  -Total Gradient:
     Atom            X                  Y                   Z
    ------   -----------------  -----------------  -----------------
       1       -0.001499421713    -0.000686518094     0.004902334453
       2        0.001663443575     0.002741384180    -0.012682755092
       3       -0.000759466313    -0.000979507928     0.002815390207
       4       -0.001377999458    -0.001037690281     0.004974510034
       5        0.000465221387    -0.000659794117     0.000168061170
       6       -0.000040096383    -0.000052133817     0.000267888338
       7       -0.000640473893     0.000442863179     0.000236044878
       8        0.002086877824     0.000739524910    -0.000251972336
       9       -0.000447047141    -0.000049255074     0.000950612058
      10        0.000826623773    -0.001530660155    -0.000664016189
      11        0.000268128920     0.000266102420    -0.000507212108
      12       -0.001149329985     0.001117256891    -0.000099049669
      13        0.000170228157    -0.000222561676    -0.000104172379
      14        0.000394393792    -0.000055174668    -0.000042752395
      15        0.000038917462    -0.000033835771     0.000037089029


*** tstop() called on cx1-5-5-2.cx1.hpc.ic.ac.uk at Fri Sep  2 12:23:24 2016
Module time:
	user time   =      15.02 seconds =       0.25 minutes
	system time =       0.21 seconds =       0.00 minutes
	total time  =          5 seconds =       0.08 minutes
Total time:
	user time   =      80.05 seconds =       1.33 minutes
	system time =       1.02 seconds =       0.02 minutes
	total time  =         27 seconds =       0.45 minutes
CURRENT ENERGY: -286.0292377119

			-----------------------------------------
			 OPTKING 2.0: for geometry optimizations 
			  - R.A. King,  Bethel University        
			-----------------------------------------

	Previous internal coordinate definitions found.
	---Fragment 1 Geometry and Gradient---
	 O          -1.6644138245       -2.5514079803       -1.1813728770
	 C          -1.1949062395       -0.4274153971       -0.5263221506
	 C          -3.2810231942        1.5382748673       -0.4344329748
	 N           1.1424215372        0.2742580402        0.2934642434
	 H          -2.8899632384        3.1053816932       -1.6951942832
	 H          -5.0053799813        0.6225764442       -1.0242720738
	 H          -3.5317483984        2.2901669215        1.4563436157
	 C           3.1516765069       -1.5852620160        0.4253017636
	 C           1.7550239588        2.7199327671        1.3486269423
	 H           4.7323546337       -1.0524201086       -0.7730616820
	 H           2.4410013226       -3.3881008925       -0.1899364409
	 H           3.8216796459       -1.7404002434        2.3583389926
	 H           3.6531684752        3.2367151353        0.7764403678
	 H           0.4952080745        4.1737068311        0.6770647695
	 H           1.6968128235        2.6972894541        3.4037080921
	            -0.0014994217       -0.0006865181        0.0049023345
	             0.0016634436        0.0027413842       -0.0126827551
	            -0.0007594663       -0.0009795079        0.0028153902
	            -0.0013779995       -0.0010376903        0.0049745100
	             0.0004652214       -0.0006597941        0.0001680612
	            -0.0000400964       -0.0000521338        0.0002678883
	            -0.0006404739        0.0004428632        0.0002360449
	             0.0020868778        0.0007395249       -0.0002519723
	            -0.0004470471       -0.0000492551        0.0009506121
	             0.0008266238       -0.0015306602       -0.0006640162
	             0.0002681289        0.0002661024       -0.0005072121
	            -0.0011493300        0.0011172569       -0.0000990497
	             0.0001702282       -0.0002225617       -0.0001041724
	             0.0003943938       -0.0000551747       -0.0000427524
	             0.0000389175       -0.0000338358        0.0000370890

	---Fragment 1 Intrafragment Coordinates---
	 - Coordinate -           - BOHR/RAD -       - ANG/DEG -
	 R(1,2)           =         2.271756	       1.202161
	 R(2,3)           =         2.867798	       1.517573
	 R(2,4)           =         2.574392	       1.362310
	 R(3,5)           =         2.048968	       1.084267
	 R(3,6)           =         2.039564	       1.079291
	 R(3,7)           =         2.050181	       1.084909
	 R(4,8)           =         2.740858	       1.450400
	 R(4,9)           =         2.733125	       1.446308
	 R(8,10)          =         2.053908	       1.086881
	 R(8,11)          =         2.033176	       1.075911
	 R(8,12)          =         2.051732	       1.085730
	 R(9,13)          =         2.048759	       1.084157
	 R(9,14)          =         2.037545	       1.078223
	 R(9,15)          =         2.056030	       1.088004
	 B(1,2,3)         =         2.094109	     119.983629
	 B(1,2,4)         =         2.134465	     122.295861
	 B(2,3,5)         =         1.945169	     111.450002
	 B(2,3,6)         =         1.873395	     107.337638
	 B(2,3,7)         =         1.949687	     111.708845
	 B(2,4,8)         =         2.089749	     119.733773
	 B(2,4,9)         =         2.177705	     124.773293
	 B(3,2,4)         =         2.052644	     117.607860
	 B(4,8,10)        =         1.939170	     111.106268
	 B(4,8,11)        =         1.907937	     109.316733
	 B(4,8,12)        =         1.913470	     109.633776
	 B(4,9,13)        =         1.902393	     108.999086
	 B(4,9,14)        =         1.952630	     111.877442
	 B(4,9,15)        =         1.949467	     111.696224
	 B(5,3,6)         =         1.903707	     109.074376
	 B(5,3,7)         =         1.886324	     108.078417
	 B(6,3,7)         =         1.904956	     109.145936
	 B(8,4,9)         =         2.008885	     115.100616
	 B(10,8,11)       =         1.899154	     108.813481
	 B(10,8,12)       =         1.894419	     108.542187
	 B(11,8,12)       =         1.909421	     109.401785
	 B(13,9,14)       =         1.876352	     107.507063
	 B(13,9,15)       =         1.884059	     107.948651
	 B(14,9,15)       =         1.896308	     108.650457
	 D(1,2,3,5)       =        -2.081921	    -119.285301
	 D(1,2,3,6)       =         0.001522	       0.087189
	 D(1,2,3,7)       =         2.089123	     119.697930
	 D(1,2,4,8)       =        -0.014225	      -0.815028
	 D(1,2,4,9)       =        -3.023971	    -173.260748
[...]
      11       -0.000008023743    -0.000000356310     0.000004183505
      12       -0.000000674518     0.000005842452     0.000006488581
      13        0.000002700197    -0.000011090477    -0.000009915890
      14        0.000047972539    -0.000019883180    -0.000002974494
      15        0.000013785395     0.000011544269     0.000018053627


*** tstop() called on cx1-5-5-2.cx1.hpc.ic.ac.uk at Fri Sep  2 12:24:55 2016
Module time:
	user time   =      14.23 seconds =       0.24 minutes
	system time =       0.18 seconds =       0.00 minutes
	total time  =          4 seconds =       0.07 minutes
Total time:
	user time   =     360.42 seconds =       6.01 minutes
	system time =       4.66 seconds =       0.08 minutes
	total time  =        118 seconds =       1.97 minutes
CURRENT ENERGY: -286.0297035555

			-----------------------------------------
			 OPTKING 2.0: for geometry optimizations 
			  - R.A. King,  Bethel University        
			-----------------------------------------

	Previous internal coordinate definitions found.
	---Fragment 1 Geometry and Gradient---
	 O          -1.6461713682       -2.5375314732       -1.2226060652
	 C          -1.2055781179       -0.4322210738       -0.4885674949
	 C          -3.2702746999        1.5584500428       -0.5367050191
	 N           1.1096985365        0.2501220999        0.3973035247
	 H          -2.7651279967        3.1405105109       -1.7377030949
	 H          -4.9491236613        0.6690821425       -1.2785036341
	 H          -3.6679007245        2.2817122928        1.3391298463
	 C           3.1212001716       -1.6042813011        0.4849930816
	 C           1.7907774789        2.7269678038        1.3225736672
	 H           4.7044066171       -0.9942319878       -0.6713253820
	 H           2.4301603915       -3.3854580547       -0.2097068250
	 H           3.7880746445       -1.8408520401        2.4125387282
	 H           3.3763047027        3.4735017833        0.2534898642
	 H           0.2480056711        4.0453035802        1.1645386211
	 H           2.3497307394        2.6301623813        3.2962695844
	            -0.0000011521       -0.0000256581       -0.0000067540
	             0.0000531486        0.0000380507       -0.0000134139
	            -0.0000286360       -0.0000042458       -0.0000056458
	            -0.0000566562       -0.0000003850       -0.0000000202
	            -0.0000107069       -0.0000050926       -0.0000047044
	             0.0000065375       -0.0000031164       -0.0000012225
	            -0.0000110036       -0.0000039829       -0.0000034214
	             0.0000147374        0.0000580393        0.0000206875
	            -0.0000023189       -0.0000240508        0.0000327301
	            -0.0000197096       -0.0000156152       -0.0000340708
	            -0.0000080237       -0.0000003563        0.0000041835
	            -0.0000006745        0.0000058425        0.0000064886
	             0.0000027002       -0.0000110905       -0.0000099159
	             0.0000479725       -0.0000198832       -0.0000029745
	             0.0000137854        0.0000115443        0.0000180536

	---Fragment 1 Intrafragment Coordinates---
	 - Coordinate -           - BOHR/RAD -       - ANG/DEG -
	 R(1,2)           =         2.272722	       1.202673
	 R(2,3)           =         2.868460	       1.517924
	 R(2,4)           =         2.571160	       1.360600
	 R(3,5)           =         2.049508	       1.084553
	 R(3,6)           =         2.039552	       1.079285
	 R(3,7)           =         2.049383	       1.084487
	 R(4,8)           =         2.737269	       1.448500
	 R(4,9)           =         2.730340	       1.444834
	 R(8,10)          =         2.053235	       1.086525
	 R(8,11)          =         2.032913	       1.075771
	 R(8,12)          =         2.053319	       1.086570
	 R(9,13)          =         2.052839	       1.086316
	 R(9,14)          =         2.035468	       1.077123
	 R(9,15)          =         2.053601	       1.086719
	 B(1,2,3)         =         2.091979	     119.861553
	 B(1,2,4)         =         2.131382	     122.119186
	 B(2,3,5)         =         1.947791	     111.600222
	 B(2,3,6)         =         1.871276	     107.216203
	 B(2,3,7)         =         1.948960	     111.667203
	 B(2,4,8)         =         2.086300	     119.536196
	 B(2,4,9)         =         2.192139	     125.600287
	 B(3,2,4)         =         2.059824	     118.019246
	 B(4,8,10)        =         1.925493	     110.322614
	 B(4,8,11)        =         1.910099	     109.440627
	 B(4,8,12)        =         1.924945	     110.291253
	 B(4,9,13)        =         1.924180	     110.247369
	 B(4,9,14)        =         1.952142	     111.849484
	 B(4,9,15)        =         1.929255	     110.538169
	 B(5,3,6)         =         1.903244	     109.047834
	 B(5,3,7)         =         1.887848	     108.165699
	 B(6,3,7)         =         1.904020	     109.092320
	 B(8,4,9)         =         2.004684	     114.859929
	 B(10,8,11)       =         1.907083	     109.267816
	 B(10,8,12)       =         1.888593	     108.208425
	 B(11,8,12)       =         1.907363	     109.283841
	 B(13,9,14)       =         1.885395	     108.025198
	 B(13,9,15)       =         1.883298	     107.905030
	 B(14,9,15)       =         1.887515	     108.146631
	 D(1,2,3,5)       =        -2.076049	    -118.948839
	 D(1,2,3,6)       =         0.007016	       0.401984
	 D(1,2,3,7)       =         2.091706	     119.845946
	 D(1,2,4,8)       =        -0.007196	      -0.412309
	 D(1,2,4,9)       =        -3.136116	    -179.686232
	*D(2,4,8,10)      =         2.094395	     119.999988
	 D(2,4,8,11)      =        -0.004490	      -0.257269
	 D(2,4,8,12)      =        -2.103379	    -120.514745
	 D(2,4,9,13)      =        -2.139941	    -122.609605
	 D(2,4,9,14)      =        -0.041792	      -2.394516
	 D(2,4,9,15)      =         2.062508	     118.172976
	 D(3,2,4,8)       =         3.135175	     179.632270
	 D(3,2,4,9)       =         0.006254	       0.358347
	 D(4,2,3,5)       =         1.064784	      61.007625
	 D(4,2,3,6)       =        -3.135337	    -179.641552
	 D(4,2,3,7)       =        -1.050646	     -60.197590
	 D(8,4,9,13)      =         1.013803	      58.086628
	 D(8,4,9,14)      =         3.111952	     178.301717
	 D(8,4,9,15)      =        -1.066934	     -61.130792
	 D(9,4,8,10)      =        -1.058554	     -60.650672
	 D(9,4,8,11)      =         3.125746	     179.092070
	 D(9,4,8,12)      =         1.026857	      58.834595

	Current energy   :      -286.0297035555

	Energy change for the previous step:
		Projected    :        -0.0000063425
		Actual       :        -0.0000009394
	Energy ratio indicates iffy step: Trust radius decreased to 2.344e-02.


	Performing BFGS update.
	Previous computed or guess Hessian on step 1.
	Steps to be used in Hessian update: 12 11
	Taking RFO optimization step.
	Going to follow RFO solution 1.
	Using RFO vector 1.

	Determining step-restricting scale parameter for RS-RFO.
	Maximum step size allowed    0.02344

	 Iter      |step|        alpha        rfo_root  
	------------------------------------------------
	    0     0.08731       1.00000           1
	    1     0.05684      75.45314           1
	    2     0.03824     230.65720           1
	    3     0.02833     441.65827           1
	    4     0.02430     594.16139           1
	    5     0.02347     633.54485           1
	    6     0.02344     635.32975           1
	------------------------------------------------
	Norm of target step-size    0.02344
	Projected energy change by RFO approximation:         0.0000003351

	Back-transformation to cartesian coordinates...
	Successfully converged to displaced geometry.

	Back-transformation to cartesian coordinates to adjust frozen coordinates...
	Successfully converged to displaced geometry.

	--- Internal Coordinate Step in ANG or DEG, aJ/ANG or AJ/DEG ---
	 ---------------------------------------------------------------------------
	   Coordinate                Previous        Force       Change         New 
	   ----------                --------       ------       ------       ------
	    1 R(1,2)          =      1.202673    -0.000216    -0.000017     1.202656
	    2 R(2,3)          =      1.517924    -0.000168    -0.000012     1.517912
	    3 R(2,4)          =      1.360600    -0.000048     0.000038     1.360638
	    4 R(3,5)          =      1.084553     0.000031    -0.000004     1.084550
	    5 R(3,6)          =      1.079285     0.000029     0.000002     1.079287
	    6 R(3,7)          =      1.084487     0.000020     0.000006     1.084492
	    7 R(4,8)          =      1.448500     0.000351     0.000023     1.448524
	    8 R(4,9)          =      1.444834     0.000091     0.000029     1.444863
	    9 R(8,10)         =      1.086525     0.000005     0.000011     1.086536
	   10 R(8,11)         =      1.075771    -0.000013     0.000001     1.075772
	   11 R(8,12)         =      1.086570    -0.000043    -0.000018     1.086552
	   12 R(9,13)         =      1.086316    -0.000027     0.000049     1.086365
	   13 R(9,14)         =      1.077123     0.000404     0.000028     1.077151
	   14 R(9,15)         =      1.086719    -0.000169    -0.000073     1.086646
	   15 B(1,2,3)        =    119.861553     0.000004     0.004446   119.865999
	   16 B(1,2,4)        =    122.119186     0.000005     0.004895   122.124081
	   17 B(2,3,5)        =    111.600222    -0.000001     0.003238   111.603460
	   18 B(2,3,6)        =    107.216203     0.000001     0.004668   107.220871
	   19 B(2,3,7)        =    111.667203    -0.000001    -0.007668   111.659535
	   20 B(2,4,8)        =    119.536196     0.000004     0.003837   119.540034
	   21 B(2,4,9)        =    125.600287    -0.000012    -0.016872   125.583416
	   22 B(3,2,4)        =    118.019246    -0.000009    -0.009333   118.009913
	   23 B(4,8,10)       =    110.322614     0.000000    -0.001767   110.320847
	   24 B(4,8,11)       =    109.440627     0.000000     0.000636   109.441263
	   25 B(4,8,12)       =    110.291253     0.000001     0.002438   110.293690
	   26 B(4,9,13)       =    110.247369     0.000002     0.045189   110.292557
	   27 B(4,9,14)       =    111.849484    -0.000001    -0.002784   111.846700
	   28 B(4,9,15)       =    110.538169    -0.000002    -0.042738   110.495431
	   29 B(5,3,6)        =    109.047834     0.000000     0.006234   109.054068
	   30 B(5,3,7)        =    108.165699    -0.000000    -0.001882   108.163817
	   31 B(6,3,7)        =    109.092320     0.000000    -0.004405   109.087915
	   32 B(8,4,9)        =    114.859929     0.000007     0.014984   114.874913
	   33 B(10,8,11)      =    109.267816    -0.000001     0.000365   109.268180
	   34 B(10,8,12)      =    108.208425    -0.000000    -0.001699   108.206726
	   35 B(11,8,12)      =    109.283841    -0.000000     0.000005   109.283846
	   36 B(13,9,14)      =    108.025198     0.000000     0.017162   108.042360
	   37 B(13,9,15)      =    107.905030     0.000000     0.001069   107.906099
	   38 B(14,9,15)      =    108.146631     0.000000    -0.017618   108.129014
	   39 D(1,2,3,5)      =   -118.948839    -0.000000    -0.085555  -119.034394
	   40 D(1,2,3,6)      =      0.401984     0.000000    -0.073134     0.328849
	   41 D(1,2,3,7)      =    119.845946     0.000000    -0.080020   119.765926
	   42 D(1,2,4,8)      =     -0.412309     0.000000     0.120524    -0.291785
	   43 D(1,2,4,9)      =   -179.686232    -0.000000    -0.115011  -179.801242
	   44 *D(2,4,8,10)    =    119.999988     0.000000    -0.000000   119.999988
	   45 D(2,4,8,11)     =     -0.257269     0.000000     0.000250    -0.257020
	   46 D(2,4,8,12)     =   -120.514745     0.000000    -0.001681  -120.516426
	   47 D(2,4,9,13)     =   -122.609605     0.000000     0.596570  -122.013035
	   48 D(2,4,9,14)     =     -2.394516     0.000000     0.647125    -1.747391
	   49 D(2,4,9,15)     =    118.172976    -0.000000     0.593563   118.766538
	   50 D(3,2,4,8)      =    179.632270     0.000000     0.106204   179.738473
	   51 D(3,2,4,9)      =      0.358347    -0.000000    -0.129331     0.229016
	   52 D(4,2,3,5)      =     61.007625    -0.000000    -0.071569    60.936056
	   53 D(4,2,3,6)      =   -179.641552     0.000000    -0.059149  -179.700701
	   54 D(4,2,3,7)      =    -60.197590     0.000000    -0.066035   -60.263624
	   55 D(8,4,9,13)     =     58.086628    -0.000000     0.370756    58.457384
	   56 D(8,4,9,14)     =    178.301717     0.000000     0.421311   178.723028
	   57 D(8,4,9,15)     =    -61.130792    -0.000000     0.367749   -60.763043
	   58 D(9,4,8,10)     =    -60.650672     0.000000     0.210923   -60.439749
	   59 D(9,4,8,11)     =    179.092070     0.000000     0.211173   179.303243
	   60 D(9,4,8,12)     =     58.834595     0.000000     0.209241    59.043836
	 ---------------------------------------------------------------------------

  ==> Convergence Check <==

  Measures of convergence in internal coordinates in au.
  Criteria marked as inactive (o), active & met (*), and active & unmet ( ).
  ---------------------------------------------------------------------------------------------
   Step     Total Energy     Delta E     MAX Force     RMS Force      MAX Disp      RMS Disp   
  ---------------------------------------------------------------------------------------------
    Convergence Criteria    1.00e-06 *    3.00e-04 *             o    1.20e-03 *             o
  ---------------------------------------------------------------------------------------------
     13    -286.02970356   -9.39e-07 *    1.51e-04 *    3.28e-05 o    1.13e-02      3.03e-03 o  ~
  ---------------------------------------------------------------------------------------------


  **** Optimization is complete! (in 13 steps) ****

  ==> Optimization Summary <==

  Measures of convergence in internal coordinates in au.
  --------------------------------------------------------------------------------------------------------------- ~
   Step         Total Energy             Delta E       MAX Force       RMS Force        MAX Disp        RMS Disp  ~
  --------------------------------------------------------------------------------------------------------------- ~
      1    -286.029195391189   -286.029195391189      0.00359456      0.00092315      0.08327358      0.02652321  ~
      2    -286.029476802745     -0.000281411556      0.00241310      0.00064962      0.10451140      0.03426518  ~
      3    -286.029237711900      0.000239090845      0.00259361      0.00102758      0.05229714      0.01620647  ~
      4    -286.029631984401     -0.000394272501      0.00127264      0.00031384      0.02647892      0.00845731  ~
      5    -286.029649177333     -0.000017192932      0.00096809      0.00023528      0.01860996      0.00556016  ~
      6    -286.029659289866     -0.000010112533      0.00025742      0.00007503      0.03741001      0.01052435  ~
      7    -286.029668204867     -0.000008915001      0.00022555      0.00008040      0.05280652      0.01515086  ~
      8    -286.029679836667     -0.000011631800      0.00037829      0.00010971      0.05584555      0.01613810  ~
      9    -286.029691044214     -0.000011207548      0.00017155      0.00005044      0.05593686      0.01613747  ~
     10    -286.029697043435     -0.000005999220      0.00018302      0.00004944      0.06659656      0.01823469  ~
     11    -286.029700574506     -0.000003531071      0.00036206      0.00007455      0.04624716      0.01246436  ~
     12    -286.029702616176     -0.000002041671      0.00009337      0.00002372      0.04420540      0.01210337  ~
     13    -286.029703555534     -0.000000939357      0.00015140      0.00003279      0.01129445      0.00302578  ~
  --------------------------------------------------------------------------------------------------------------- ~

	Writing optimization data to binary file.
	Final energy is   -286.0297035555335
	Final (previous) structure:
	Cartesian Geometry (in Angstrom)
	    O    -0.8711164360  -1.3428039242  -0.6469753142
	    C    -0.6379645119  -0.2287215588  -0.2585388029
	    C    -1.7305549692   0.8246963064  -0.2840120855
	    N     0.5872272188   0.1323589248   0.2102439862
	    H    -1.4632428264   1.6618867126  -0.9195529434
	    H    -2.6189636440   0.3540630475  -0.6765550359
	    H    -1.9409696150   1.2074302341   0.7086370481
	    C     1.6516681204  -0.8489491655   0.2566473047
	    C     0.9476386999   1.4430493205   0.6998758948
	    H     2.4894649518  -0.5261249482  -0.3552501189
	    H     1.2859855906  -1.7915073800  -0.1109720808
	    H     2.0045629194  -0.9741370184   1.2766606073
	    H     1.7866636344   1.8380981181   0.1341410690
	    H     0.1312389587   2.1406826199   0.6162473439
	    H     1.2434240486   1.3918220934   1.7443108707
	Saving final (previous) structure.
			--------------------------
			 OPTKING Finished Execution 
			--------------------------

    Final optimized geometry and variables:
    Molecular point group: c1
    Full point group: C1

    Geometry (in Angstrom), charge = 0, multiplicity = 1:

    O           -0.871116369460    -1.342803821694    -0.646975264766
    C           -0.637964463185    -0.228721541343    -0.258538783145
    C           -1.730554837013     0.824696243399    -0.284012063846
    N            0.587227173921     0.132358914657     0.210243970159
    H           -1.463242714687     1.661886585711    -0.919552873130
    H           -2.618963444045     0.354063020486    -0.676554984268
    H           -1.940969466794     1.207430141887     0.708636994005
    C            1.651667994263    -0.848949100702     0.256647285109
    C            0.947638627499     1.443049210326     0.699875841364
    H            2.489464761719    -0.526124907975    -0.355250091729
    H            1.285985492386    -1.791507243186    -0.110972072290
    H            2.004562766281    -0.974136944004     1.276660509819
    H            1.786663497923     1.838097977703     0.134141058759
    H            0.131238948721     2.140682456471     0.616247296804
    H            1.243423953615     1.391821987087     1.744310737452

	Cleaning optimization helper files.


Properties will be evaluated at   0.000000,   0.000000,   0.000000 Bohr

Properties computed using the  density matrix

  Nuclear Dipole Moment: (a.u.)
     X:     2.7298      Y:     4.9638      Z:     2.2628

  Electronic Dipole Moment: (a.u.)
     X:    -2.1596      Y:    -3.6355      Z:    -1.7083

  Dipole Moment: (a.u.)
     X:     0.5702      Y:     1.3283      Z:     0.5544     Total:     1.5482

  Dipole Moment: (Debye)
     X:     1.4492      Y:     3.3762      Z:     1.4093     Total:     3.9351

  Quadrupole Moment: (Debye Ang)
    XX:   -35.5154     YY:   -39.5152     ZZ:   -38.0644
    XY:    -3.6534     XZ:    -0.4645     YZ:    -1.7222

  Traceless Quadrupole Moment: (Debye Ang)
    XX:     2.1830     YY:    -1.8169     ZZ:    -0.3661
    XY:    -3.6534     XZ:    -0.4645     YZ:    -1.7222

  Mulliken Charges: (a.u.)
   Center  Symbol    Alpha    Beta     Spin     Total
       1     O     4.30654  4.30654  0.00000 -0.61307
       2     C     2.62205  2.62205  0.00000  0.75590
       3     C     3.29929  3.29929  0.00000 -0.59858
       4     N     3.82498  3.82498  0.00000 -0.64996
       5     H     0.40747  0.40747  0.00000  0.18506
       6     H     0.38992  0.38992  0.00000  0.22016
       7     H     0.40764  0.40764  0.00000  0.18472
       8     C     3.14644  3.14644  0.00000 -0.29289
       9     C     3.14079  3.14079  0.00000 -0.28158
      10     H     0.41946  0.41946  0.00000  0.16109
      11     H     0.38168  0.38168  0.00000  0.23664
      12     H     0.41972  0.41972  0.00000  0.16055
      13     H     0.41364  0.41364  0.00000  0.17271
      14     H     0.40629  0.40629  0.00000  0.18743
      15     H     0.41409  0.41409  0.00000  0.17182

   Total alpha = 24.00000, Total beta = 24.00000, Total charge =  0.00000


*** PSI4 exiting successfully. Buy a developer a beer!
