    -----------------------------------------------------------------------
          Psi4: An Open-Source Ab Initio Electronic Structure Package
                              Psi4 (no tag) Driver

                          Git: Rev {detached?}  

    J. M. Turney, A. C. Simmonett, R. M. Parrish, E. G. Hohenstein,
    F. A. Evangelista, J. T. Fermann, B. J. Mintz, L. A. Burns, J. J. Wilke,
    M. L. Abrams, N. J. Russ, M. L. Leininger, C. L. Janssen, E. T. Seidl,
    W. D. Allen, H. F. Schaefer, R. A. King, E. F. Valeev, C. D. Sherrill,
    and T. D. Crawford, WIREs Comput. Mol. Sci. 2, 556-565 (2012)
    (doi: 10.1002/wcms.93)

                         Additional Contributions by
    A. E. DePrince, M. Saitow, U. Bozkaya, A. Yu. Sokolov
    -----------------------------------------------------------------------


    Psi4 started on: Fri Sep  9 22:15:47 2016

    Process ID:  24910
    PSI4DATADIR: /export131/home/mjharvey/miniconda3/share
    Memory level set to 256.000 MB

  ==> Input File <==

--------------------------------------------------------------------------
set {
	reference rhf
	basis cc-pvtz
}


set_num_threads( 4 )
memory 2 gb

molecule MOL {
0 1

O	 0.074770	 1.259872	 0.000487
C	 0.029490	 0.077183	 0.000078
C	 -1.232113	 -0.748027	 0.000015
O	 1.106773	 -0.690081	 -0.000204
C	 -2.501422	 0.088592	 -0.000052
H	 -1.188777	 -1.400384	 -0.865133
H	 -1.188857	 -1.400312	 0.865225
H	 -2.548170	 0.725504	 -0.873205
H	 -3.371613	 -0.556398	 -0.000040
H	 -2.548215	 0.725571	 0.873047
C	 1.386299	 -1.416586	 1.179498
H	 1.536201	 -0.746740	 2.013208
H	 2.288852	 -1.971336	 0.980813
H	 0.576670	 -2.092485	 1.411675

	symmetry c1
}
set optking {
	frozen_dihedral = ("
		11 4 2 3
	")
}

ee = optimize('scf')
oeprop('DIPOLE', 'QUADRUPOLE', 'MULLIKEN_CHARGES')
f=open( 'psi4out.xyz', 'w' )
f.write( "14  " )
f.write( str(ee) + "\n" )
f.write( MOL.save_string_xyz() )
f.close()
--------------------------------------------------------------------------

  Memory set to   2.000 GiB by Python script.
gradient() will perform analytic gradient computation.

*** tstart() called on cx1-27-3-2
*** at Fri Sep  9 22:15:47 2016


         ---------------------------------------------------------
                                   SCF
            by Justin Turney, Rob Parrish, and Andy Simmonett
                              RHF Reference
                        4 Threads,   2000 MiB Core
         ---------------------------------------------------------

  ==> Geometry <==

    Molecular point group: c1
    Full point group: C1

    Geometry (in Angstrom), charge = 0, multiplicity = 1:

       Center              X                  Y                   Z               Mass       
    ------------   -----------------  -----------------  -----------------  -----------------
           O          0.249763529179     1.505650965803    -0.210740089933    15.994914619560
           C          0.204483529179     0.322961965803    -0.211149089933    12.000000000000
           C         -1.057119470821    -0.502248034197    -0.211212089933    12.000000000000
           O          1.281766529179    -0.444302034197    -0.211431089933    15.994914619560
           C         -2.326428470821     0.334370965803    -0.211279089933    12.000000000000
           H         -1.013783470821    -1.154605034197    -1.076360089933     1.007825032070
           H         -1.013863470821    -1.154533034197     0.653997910067     1.007825032070
           H         -2.373176470821     0.971282965803    -1.084432089933     1.007825032070
           H         -3.196619470821    -0.310619034197    -0.211267089933     1.007825032070
           H         -2.373221470821     0.971349965803     0.661819910067     1.007825032070
           C          1.561292529179    -1.170807034197     0.968270910067    12.000000000000
           H          1.711194529179    -0.500961034197     1.801980910067     1.007825032070
           H          2.463845529179    -1.725557034197     0.769585910067     1.007825032070
           H          0.751663529179    -1.846706034197     1.200447910067     1.007825032070

  Running in c1 symmetry.

  Rotational constants: A =      0.21880  B =      0.08414  C =      0.06701 [cm^-1]
  Rotational constants: A =   6559.46596  B =   2522.45086  C =   2008.86959 [MHz]
  Nuclear repulsion =  248.828191177171703

  Charge       = 0
  Multiplicity = 1
  Electrons    = 48
  Nalpha       = 24
  Nbeta        = 24

  ==> Algorithm <==

  SCF Algorithm Type is DF.
  DIIS enabled.
  MOM disabled.
  Fractional occupation disabled.
  Guess Type is CORE.
  Energy threshold   = 1.00e-08
  Density threshold  = 1.00e-08
  Integral threshold = 0.00e+00

  ==> Primary Basis <==

  Basis Set: CC-PVTZ
    Number of shells: 108
    Number of basis function: 292
    Number of Cartesian functions: 330
    Spherical Harmonics?: true
    Max angular momentum: 3

  ==> Pre-Iterations <==

   -------------------------------------------------------
    Irrep   Nso     Nmo     Nalpha   Nbeta   Ndocc  Nsocc
   -------------------------------------------------------
     A        292     292       0       0       0       0
   -------------------------------------------------------
    Total     292     292      24      24      24       0
   -------------------------------------------------------

 OEINTS: Overlap, kinetic, potential, dipole, and quadrupole integrals
         stored in file 35.

  ==> Integral Setup <==

  ==> DFJK: Density-Fitted J/K Matrices <==

    J tasked:                  Yes
    K tasked:                  Yes
    wK tasked:                  No
    OpenMP threads:              4
    Integrals threads:           4
    Memory (MB):              1430
    Algorithm:                Core
    Integral Cache:           NONE
    Schwarz Cutoff:          1E-12
    Fitting Condition:       1E-12

   => Auxiliary Basis Set <=

  Basis Set: 
    Number of shells: 230
    Number of basis function: 714
    Number of Cartesian functions: 856
    Spherical Harmonics?: true
    Max angular momentum: 4

  Minimum eigenvalue in the overlap matrix is 4.8451495902E-04.
  Using Symmetric Orthogonalization.
  SCF Guess: Core (One-Electron) Hamiltonian.

  ==> Iterations <==

                           Total Energy        Delta E     RMS |[F,P]|

   @DF-RHF iter   1:  -207.94200932595842   -2.07942e+02   5.21889e-02 
   @DF-RHF iter   2:  -193.96459237843871    1.39774e+01   3.33721e-02 DIIS
   @DF-RHF iter   3:  -259.02052775481184   -6.50559e+01   2.61326e-02 DIIS
   @DF-RHF iter   4:  -276.04074577584151   -1.70202e+01   2.56087e-02 DIIS
   @DF-RHF iter   5:  -300.86617584347664   -2.48254e+01   9.25583e-03 DIIS
   @DF-RHF iter   6:  -305.22252015653567   -4.35634e+00   4.31135e-03 DIIS
   @DF-RHF iter   7:  -305.92039752469486   -6.97877e-01   9.13549e-04 DIIS
   @DF-RHF iter   8:  -305.95593159014334   -3.55341e-02   4.02519e-04 DIIS
   @DF-RHF iter   9:  -305.96287043901361   -6.93885e-03   1.51839e-04 DIIS
   @DF-RHF iter  10:  -305.96416503943283   -1.29460e-03   4.00719e-05 DIIS
   @DF-RHF iter  11:  -305.96433835954178   -1.73320e-04   1.87085e-05 DIIS
   @DF-RHF iter  12:  -305.96436470242747   -2.63429e-05   6.80630e-06 DIIS
   @DF-RHF iter  13:  -305.96437045230459   -5.74988e-06   2.26260e-06 DIIS
   @DF-RHF iter  14:  -305.96437099809032   -5.45786e-07   5.97615e-07 DIIS
   @DF-RHF iter  15:  -305.96437104149049   -4.34002e-08   1.57858e-07 DIIS
   @DF-RHF iter  16:  -305.96437104489678   -3.40629e-09   5.73706e-08 DIIS
   @DF-RHF iter  17:  -305.96437104548352   -5.86738e-10   2.52749e-08 DIIS
   @DF-RHF iter  18:  -305.96437104562358   -1.40062e-10   9.93068e-09 DIIS

  ==> Post-Iterations <==

    Orbital Energies (a.u.)
    -----------------------

    Doubly Occupied:                                                      

       1A    -20.583678     2A    -20.543739     3A    -11.367268  
       4A    -11.294914     5A    -11.239494     6A    -11.216644  
       7A     -1.467947     8A     -1.372400     9A     -1.062831  
      10A     -0.985486    11A     -0.897160    12A     -0.771019  
      13A     -0.702743    14A     -0.684439    15A     -0.680485  
      16A     -0.631182    17A     -0.612340    18A     -0.562653  
      19A     -0.547880    20A     -0.525230    21A     -0.512669  
      22A     -0.490330    23A     -0.462530    24A     -0.438322  

    Virtual:                                                              

      25A      0.129113    26A      0.153346    27A      0.162868  
      28A      0.186281    29A      0.203862    30A      0.208608  
      31A      0.219659    32A      0.225933    33A      0.257943  
      34A      0.268117    35A      0.324312    36A      0.344998  
      37A      0.351842    38A      0.366028    39A      0.383627  
      40A      0.410139    41A      0.429373    42A      0.449238  
      43A      0.476649    44A      0.503359    45A      0.542950  
      46A      0.554517    47A      0.561248    48A      0.581227  
      49A      0.590587    50A      0.599673    51A      0.613917  
      52A      0.627371    53A      0.641525    54A      0.644802  
      55A      0.670357    56A      0.674216    57A      0.676273  
      58A      0.694676    59A      0.722172    60A      0.737235  
      61A      0.761147    62A      0.775445    63A      0.811127  
      64A      0.826953    65A      0.857767    66A      0.897900  
      67A      0.923149    68A      0.951345    69A      0.966009  
      70A      0.982166    71A      1.001152    72A      1.034002  
      73A      1.047917    74A      1.074865    75A      1.080383  
      76A      1.102826    77A      1.145586    78A      1.155982  
      79A      1.181980    80A      1.184074    81A      1.221664  
      82A      1.231115    83A      1.253220    84A      1.264211  
      85A      1.274146    86A      1.286015    87A      1.309082  
      88A      1.322246    89A      1.337725    90A      1.349170  
      91A      1.378163    92A      1.385963    93A      1.414742  
      94A      1.446322    95A      1.464902    96A      1.484797  
      97A      1.498215    98A      1.506948    99A      1.523014  
     100A      1.533526   101A      1.551282   102A      1.565056  
     103A      1.594323   104A      1.620990   105A      1.632604  
     106A      1.668659   107A      1.702081   108A      1.744708  
     109A      1.797866   110A      1.801969   111A      1.817130  
     112A      1.842647   113A      1.924148   114A      1.982899  
     115A      2.011608   116A      2.059578   117A      2.120832  
     118A      2.242825   119A      2.311247   120A      2.325983  
     121A      2.342587   122A      2.404848   123A      2.458173  
     124A      2.469809   125A      2.526342   126A      2.552459  
     127A      2.558312   128A      2.606368   129A      2.640582  
     130A      2.655456   131A      2.708274   132A      2.762508  
     133A      2.797585   134A      2.799894   135A      2.835333  
     136A      2.860835   137A      2.915348   138A      2.941009  
     139A      2.957433   140A      2.979986   141A      3.006800  
     142A      3.051060   143A      3.056059   144A      3.071082  
     145A      3.087723   146A      3.116923   147A      3.123997  
     148A      3.136298   149A      3.176648   150A      3.185806  
     151A      3.210517   152A      3.233008   153A      3.261509  
     154A      3.292794   155A      3.307394   156A      3.311461  
     157A      3.327388   158A      3.328648   159A      3.355131  
     160A      3.370223   161A      3.388009   162A      3.400250  
     163A      3.425142   164A      3.434396   165A      3.471232  
     166A      3.486428   167A      3.506655   168A      3.519212  
     169A      3.553601   170A      3.580925   171A      3.606239  
     172A      3.627558   173A      3.649839   174A      3.652869  
     175A      3.679456   176A      3.713638   177A      3.733747  
     178A      3.743988   179A      3.762060   180A      3.773376  
     181A      3.799705   182A      3.818572   183A      3.831000  
     184A      3.845562   185A      3.862648   186A      3.865666  
     187A      3.882464   188A      3.919749   189A      3.954429  
     190A      3.991886   191A      4.023578   192A      4.058378  
     193A      4.084206   194A      4.103217   195A      4.113862  
     196A      4.141043   197A      4.155326   198A      4.172899  
     199A      4.198506   200A      4.225193   201A      4.238640  
     202A      4.277801   203A      4.286799   204A      4.310894  
     205A      4.318258   206A      4.338530   207A      4.364257  
     208A      4.388058   209A      4.409809   210A      4.431189  
     211A      4.432964   212A      4.448172   213A      4.474499  
     214A      4.487253   215A      4.547415   216A      4.566505  
     217A      4.585682   218A      4.609511   219A      4.636571  
     220A      4.668000   221A      4.684744   222A      4.728326  
     223A      4.752821   224A      4.832981   225A      4.838950  
     226A      4.867112   227A      4.915967   228A      4.939639  
     229A      5.034732   230A      5.076017   231A      5.116005  
     232A      5.133160   233A      5.200444   234A      5.219593  
     235A      5.236385   236A      5.264433   237A      5.273751  
     238A      5.292492   239A      5.310432   240A      5.351617  
     241A      5.368061   242A      5.440400   243A      5.453360  
     244A      5.524868   245A      5.558814   246A      5.591641  
     247A      5.597502   248A      5.603955   249A      5.619242  
     250A      5.659001   251A      5.688380   252A      5.696381  
     253A      5.732016   254A      5.735942   255A      5.781736  
     256A      5.804648   257A      5.860311   258A      5.866306  
     259A      5.905856   260A      5.954319   261A      5.982465  
     262A      6.142990   263A      6.153555   264A      6.198822  
     265A      6.237381   266A      6.301084   267A      6.313443  
     268A      6.367666   269A      6.378629   270A      6.490711  
     271A      6.683678   272A      6.760942   273A      6.801792  
     274A      6.858123   275A      6.918160   276A      6.942632  
     277A      6.984855   278A      7.252910   279A      7.297278  
     280A      7.389830   281A      7.434879   282A      7.569098  
     283A      7.660119   284A      7.694812   285A      7.799814  
     286A      7.905492   287A      9.905040   288A     12.141537  
     289A     13.499669   290A     14.184933   291A     14.245599  
     292A     14.475820  

    Final Occupation by Irrep:
              A 
    DOCC [    24 ]

  Energy converged.

  @DF-RHF Final Energy:  -305.96437104562358

   => Energetics <=

    Nuclear Repulsion Energy =            248.8281911771717034
    One-Electron Energy =                -910.2783586832167657
    Two-Electron Energy =                 355.4857964604212839
    DFT Exchange-Correlation Energy =       0.0000000000000000
    Empirical Dispersion Energy =           0.0000000000000000
    PCM Polarization Energy =               0.0000000000000000
    EFP Energy =                            0.0000000000000000
    Total Energy =                       -305.9643710456238068

    Alert: EFP and PCM quantities not currently incorporated into SCF psivars.

Properties will be evaluated at   0.000000,   0.000000,   0.000000 Bohr
  ==> Properties <==


Properties computed using the SCF density matrix

  Nuclear Dipole Moment: (a.u.)
     X:    -4.7212      Y:    -4.4482      Z:     2.5439

  Electronic Dipole Moment: (a.u.)
     X:     4.4149      Y:     3.0783      Z:    -1.9660

  Dipole Moment: (a.u.)
     X:    -0.3063      Y:    -1.3699      Z:     0.5779     Total:     1.5180

  Dipole Moment: (Debye)
     X:    -0.7785      Y:    -3.4819      Z:     1.4689     Total:     3.8584


  Saving occupied orbitals to File 180.

*** tstop() called on cx1-27-3-2 at Fri Sep  9 22:15:58 2016
Module time:
	user time   =      33.38 seconds =       0.56 minutes
	system time =       0.55 seconds =       0.01 minutes
	total time  =         11 seconds =       0.18 minutes
Total time:
	user time   =      33.38 seconds =       0.56 minutes
	system time =       0.55 seconds =       0.01 minutes
	total time  =         11 seconds =       0.18 minutes

*** tstart() called on cx1-27-3-2
*** at Fri Sep  9 22:15:58 2016


         ------------------------------------------------------------
                                   SCF GRAD                          
                          Rob Parrish, Justin Turney,                
                       Andy Simmonett, and Alex Sokolov              
         ------------------------------------------------------------

  ==> Geometry <==

    Molecular point group: c1
    Full point group: C1

    Geometry (in Angstrom), charge = 0, multiplicity = 1:

       Center              X                  Y                   Z               Mass       
    ------------   -----------------  -----------------  -----------------  -----------------
           O          0.249763529179     1.505650965803    -0.210740089933    15.994914619560
           C          0.204483529179     0.322961965803    -0.211149089933    12.000000000000
           C         -1.057119470821    -0.502248034197    -0.211212089933    12.000000000000
           O          1.281766529179    -0.444302034197    -0.211431089933    15.994914619560
           C         -2.326428470821     0.334370965803    -0.211279089933    12.000000000000
           H         -1.013783470821    -1.154605034197    -1.076360089933     1.007825032070
           H         -1.013863470821    -1.154533034197     0.653997910067     1.007825032070
           H         -2.373176470821     0.971282965803    -1.084432089933     1.007825032070
           H         -3.196619470821    -0.310619034197    -0.211267089933     1.007825032070
           H         -2.373221470821     0.971349965803     0.661819910067     1.007825032070
           C          1.561292529179    -1.170807034197     0.968270910067    12.000000000000
           H          1.711194529179    -0.500961034197     1.801980910067     1.007825032070
           H          2.463845529179    -1.725557034197     0.769585910067     1.007825032070
           H          0.751663529179    -1.846706034197     1.200447910067     1.007825032070

  Nuclear repulsion =  248.828191177171703

  ==> Basis Set <==

  Basis Set: CC-PVTZ
    Number of shells: 108
    Number of basis function: 292
    Number of Cartesian functions: 330
    Spherical Harmonics?: true
    Max angular momentum: 3

  ==> DFJKGrad: Density-Fitted SCF Gradients <==

    Gradient:                    1
    J tasked:                  Yes
    K tasked:                  Yes
    wK tasked:                  No
    OpenMP threads:              4
    Integrals threads:           4
    Memory (MB):              1430
    Schwarz Cutoff:          0E+00
    Fitting Condition:       1E-12

   => Auxiliary Basis Set <=

  Basis Set: 
    Number of shells: 230
    Number of basis function: 714
    Number of Cartesian functions: 856
    Spherical Harmonics?: true
    Max angular momentum: 4


  -Total Gradient:
     Atom            X                  Y                   Z
    ------   -----------------  -----------------  -----------------
       1       -0.002695220859     0.014897333942     0.003784309225
       2        0.019462799473    -0.011888238355    -0.006166356261
       3        0.007874150057    -0.007723969170     0.001729883319
       4       -0.024816360116     0.002046800432    -0.001734470617
       5        0.001586364024     0.002019102664    -0.000423943431
       6       -0.000481473709    -0.000207521439     0.000392345498
       7        0.004239943062    -0.001732524686     0.001700679252
       8       -0.000347017036     0.000210149038    -0.000106725707
       9        0.000669893395    -0.000415270631    -0.000005440862
      10       -0.000054170176    -0.000073452134    -0.000053050417
      11       -0.000445789534     0.001009860509     0.004803811026
      12       -0.002014903533    -0.001716600484    -0.000845487238
      13        0.000636027654     0.000188868603    -0.001956298131
      14       -0.003614242699     0.003385461714    -0.001119255656


*** tstop() called on cx1-27-3-2 at Fri Sep  9 22:16:13 2016
Module time:
	user time   =      58.71 seconds =       0.98 minutes
	system time =       0.59 seconds =       0.01 minutes
	total time  =         15 seconds =       0.25 minutes
Total time:
	user time   =      92.10 seconds =       1.53 minutes
	system time =       1.14 seconds =       0.02 minutes
	total time  =         26 seconds =       0.43 minutes
CURRENT ENERGY: -305.9643710456

			-----------------------------------------
			 OPTKING 2.0: for geometry optimizations 
			  - R.A. King,  Bethel University        
			-----------------------------------------

	Internal coordinates to be generated automatically.
	Detected frag with atoms:  1 2 3 4 5 6 7 8 9 10 11 12 13 14
	---Fragment 1 Bond Connectivity---
	 1 : 2
	 2 : 1 3 4
	 3 : 2 5 6 7
	 4 : 2 11
	 5 : 3 8 9 10
	 6 : 3
	 7 : 3
	 8 : 5
	 9 : 5
	 10 : 5
	 11 : 4 12 13 14
	 12 : 11
	 13 : 11
	 14 : 11

	Assuming in current code that numbering for constraints corresponds to unified fragment.
	Frozen dihedral atom list: 
	    11     4     2     3
	---Fragment 1 Geometry and Gradient---
	 O           0.4719846681        2.8452679771       -0.3982410552
	 C           0.3864178688        0.6103096667       -0.3990139532
	 C          -1.9976662896       -0.9491112354       -0.3991330059
	 O           2.4221877064       -0.8396091649       -0.3995468560
	 C          -4.3963126776        0.6318695522       -0.3992596176
	 H          -1.9157731179       -2.1818873063       -2.0340257903
	 H          -1.9159242960       -2.1817512460        1.2358769415
	 H          -4.4846535949        1.8354588029       -2.0492796597
	 H          -6.0407353509       -0.5869849063       -0.3992369409
	 H          -4.4847386325        1.8355854146        1.2506583793
	 C           2.9504152935       -2.2125046491        1.8297668425
	 H           3.2336890202       -0.9466791579        3.4052504167
	 H           4.6559932839       -3.2608302213        1.4543066058
	 H           1.4204382142       -3.4897686526        2.2685177868
	            -0.0026952209        0.0148973339        0.0037843092
	             0.0194627995       -0.0118882384       -0.0061663563
	             0.0078741501       -0.0077239692        0.0017298833
	            -0.0248163601        0.0020468004       -0.0017344706
	             0.0015863640        0.0020191027       -0.0004239434
	            -0.0004814737       -0.0002075214        0.0003923455
	             0.0042399431       -0.0017325247        0.0017006793
	            -0.0003470170        0.0002101490       -0.0001067257
	             0.0006698934       -0.0004152706       -0.0000054409
	            -0.0000541702       -0.0000734521       -0.0000530504
	            -0.0004457895        0.0010098605        0.0048038110
	            -0.0020149035       -0.0017166005       -0.0008454872
	             0.0006360277        0.0001888686       -0.0019562981
	            -0.0036142427        0.0033854617       -0.0011192557

	Previous optimization step data not found.  Starting new optimization.

	---Fragment 1 Intrafragment Coordinates---
	 - Coordinate -           - BOHR/RAD -       - ANG/DEG -
	 R(1,2)           =         2.236596	       1.183556
	 R(2,3)           =         2.848798	       1.507519
	 R(2,4)           =         2.499325	       1.322586
	 R(3,5)           =         2.872804	       1.520223
	 R(3,6)           =         2.049224	       1.084403
	 R(3,7)           =         2.049229	       1.084406
	 R(4,11)          =         2.670900	       1.413379
	 R(5,8)           =         2.044260	       1.081776
	 R(5,9)           =         2.046884	       1.083164
	 R(5,10)          =         2.044255	       1.081773
	 R(11,12)         =         2.040761	       1.079924
	 R(11,13)         =         2.036898	       1.077880
	 R(11,14)         =         2.040768	       1.079928
	 B(1,2,3)         =         2.188313	     125.381088
	 B(1,2,4)         =         2.151411	     123.266750
	 B(2,3,5)         =         1.979588	     113.422019
	 B(2,3,6)         =         1.871187	     107.211091
	 B(2,3,7)         =         1.871142	     107.208566
	 B(2,4,11)        =         2.047787	     117.329546
	 B(3,2,4)         =         1.943462	     111.352161
	 B(3,5,8)         =         1.939204	     111.108208
	 B(3,5,9)         =         1.920989	     110.064544
	 B(3,5,10)        =         1.939202	     111.108110
	 B(4,11,12)       =         1.931562	     110.670333
	 B(4,11,13)       =         1.850736	     106.039362
	 B(4,11,14)       =         1.931453	     110.664116
	 B(5,3,6)         =         1.943783	     111.370573
	 B(5,3,7)         =         1.943752	     111.368800
	 B(6,3,7)         =         1.847402	     105.848335
	 B(8,5,9)         =         1.892183	     108.414115
	 B(8,5,10)        =         1.878528	     107.631737
	 B(9,5,10)        =         1.892169	     108.413283
	 B(12,11,13)      =         1.923363	     110.200586
	 B(12,11,14)      =         1.903184	     109.044386
	 B(13,11,14)      =         1.923325	     110.198413
	 D(1,2,3,5)       =         0.000424	       0.024299
	 D(1,2,3,6)       =         2.153495	     123.386159
	 D(1,2,3,7)       =        -2.152575	    -123.333482
	 D(1,2,4,11)      =         1.919718	     109.991712
	 D(2,3,5,8)       =         1.045544	      59.905272
	 D(2,3,5,9)       =        -3.141538	    -179.996886
	 D(2,3,5,10)      =        -1.045455	     -59.900150
	 D(2,4,11,12)     =        -1.056342	     -60.523932
	 D(2,4,11,13)     =         3.141113	     179.972515
	 D(2,4,11,14)     =         1.055487	      60.474948
	*D(3,2,4,11)      =        -1.221730	     -69.999969
	 D(4,2,3,5)       =        -3.141317	    -179.984232
	 D(4,2,3,6)       =        -0.988247	     -56.622372
	 D(4,2,3,7)       =         0.988868	      56.657987
	 D(6,3,5,8)       =        -1.067173	     -61.144504
	 D(6,3,5,9)       =         1.028930	      58.953338
	 D(6,3,5,10)      =         3.125013	     179.050074
	 D(7,3,5,8)       =        -3.125004	    -179.049560
	 D(7,3,5,9)       =        -1.028902	     -58.951719
	 D(7,3,5,10)      =         1.067182	      61.145018

	Current energy   :      -305.9643710456

	Generating empirical Hessian (Schlegel '84) for each fragment.
	Taking RFO optimization step.
	Going to follow RFO solution 1.
	Using RFO vector 1.
	Norm of target step-size    0.37575
	Projected energy change by RFO approximation:        -0.0112001231

	Back-transformation to cartesian coordinates...
	Successfully converged to displaced geometry.

	Back-transformation to cartesian coordinates to adjust frozen coordinates...
	Successfully converged to displaced geometry.

	--- Internal Coordinate Step in ANG or DEG, aJ/ANG or AJ/DEG ---
	 ---------------------------------------------------------------------------
	   Coordinate                Previous        Force       Change         New 
	   ----------                --------       ------       ------       ------
	    1 R(1,2)          =      1.183556    -0.121806    -0.006828     1.176728
	    2 R(2,3)          =      1.507519     0.057262     0.011268     1.518787
	    3 R(2,4)          =      1.322586     0.226520     0.023342     1.345927
	    4 R(3,5)          =      1.520223     0.004869     0.000996     1.521219
	    5 R(3,6)          =      1.084403     0.001709     0.000301     1.084703
	    6 R(3,7)          =      1.084406    -0.021158    -0.003722     1.080683
	    7 R(4,11)         =      1.413379     0.014935     0.002155     1.415535
	    8 R(5,8)          =      1.081776    -0.001853    -0.000323     1.081453
	    9 R(5,9)          =      1.083164     0.002397     0.000420     1.083584
	   10 R(5,10)         =      1.081773     0.000690     0.000120     1.081894
	   11 R(11,12)        =      1.079924     0.016454     0.002853     1.082777
	   12 R(11,13)        =      1.077880    -0.006558    -0.001129     1.076751
	   13 R(11,14)        =      1.079928    -0.002885    -0.000500     1.079428
	   14 B(1,2,3)        =    125.381088    -0.000811    -2.628052   122.753037
	   15 B(1,2,4)        =    123.266750    -0.001366    -4.216520   119.050231
	   16 B(2,3,5)        =    113.422019     0.000146     0.533787   113.955806
	   17 B(2,3,6)        =    107.211091    -0.000117    -0.553790   106.657301
	   18 B(2,3,7)        =    107.208566     0.000192     1.585558   108.794124
	   19 B(2,4,11)       =    117.329546     0.001408     4.072210   121.401756
	   20 B(3,2,4)        =    111.352161     0.002177     6.020506   117.372666
	   21 B(3,5,8)        =    111.108208    -0.000054    -0.277840   110.830368
	   22 B(3,5,9)        =    110.064544     0.000092     0.464777   110.529321
	   23 B(3,5,10)       =    111.108110    -0.000012    -0.073910   111.034200
	   24 B(4,11,12)      =    110.670333    -0.000128    -0.506317   110.164016
	   25 B(4,11,13)      =    106.039362     0.000063     0.025045   106.064407
	   26 B(4,11,14)      =    110.664116     0.000474     2.272496   112.936613
	   27 B(5,3,6)        =    111.370573    -0.000007    -0.320151   111.050421
	   28 B(5,3,7)        =    111.368800    -0.000268    -1.337241   110.031559
	   29 B(6,3,7)        =    105.848335     0.000060     0.143023   105.991358
	   30 B(8,5,9)        =    108.414115    -0.000014    -0.028401   108.385714
	   31 B(8,5,10)       =    107.631737     0.000015    -0.045811   107.585926
	   32 B(9,5,10)       =    108.413283    -0.000028    -0.046449   108.366835
	   33 B(12,11,13)     =    110.200586    -0.000165    -1.114808   109.085779
	   34 B(12,11,14)     =    109.044386     0.000051     0.669038   109.713424
	   35 B(13,11,14)     =    110.198413    -0.000300    -1.449708   108.748705
	   36 D(1,2,3,5)      =      0.024299    -0.000030    -3.175602    -3.151303
	   37 D(1,2,3,6)      =    123.386159    -0.000029    -3.635721   119.750438
	   38 D(1,2,3,7)      =   -123.333482    -0.000005    -2.988763  -126.322245
	   39 D(1,2,4,11)     =    109.991712     0.000058    10.112185   120.103897
	   40 D(2,3,5,8)      =     59.905272    -0.000019    -0.811730    59.093543
	   41 D(2,3,5,9)      =   -179.996886    -0.000017    -0.722176  -180.719062
	   42 D(2,3,5,10)     =    -59.900150    -0.000013    -0.521418   -60.421569
	   43 D(2,4,11,12)    =    -60.523932    -0.000021     3.400674   -57.123258
	   44 D(2,4,11,13)    =    179.972515     0.000032     4.984656   184.957171
	   45 D(2,4,11,14)    =     60.474948     0.000047     5.466382    65.941330
	   46 *D(3,2,4,11)    =    -69.999969     0.000000     0.000000   -69.999969
	   47 D(4,2,3,5)      =   -179.984232     0.000030     7.339908  -172.644325
	   48 D(4,2,3,6)      =    -56.622372     0.000031     6.879789   -49.742584
	   49 D(4,2,3,7)      =     56.657987     0.000055     7.526746    64.184733
	   50 D(6,3,5,8)      =    -61.144504    -0.000006    -0.232609   -61.377112
	   51 D(6,3,5,9)      =     58.953338    -0.000005    -0.143055    58.810283
	   52 D(6,3,5,10)     =    179.050074    -0.000001     0.057703   179.107776
	   53 D(7,3,5,8)      =   -179.049560     0.000017     0.638216  -178.411344
	   54 D(7,3,5,9)      =    -58.951719     0.000019     0.727770   -58.223948
	   55 D(7,3,5,10)     =     61.145018     0.000023     0.928528    62.073545
	 ---------------------------------------------------------------------------

  ==> Convergence Check <==

  Measures of convergence in internal coordinates in au.
  Criteria marked as inactive (o), active & met (*), and active & unmet ( ).
  --------------------------------------------------------------------------------------------- ~
   Step     Total Energy     Delta E     MAX Force     RMS Force      MAX Disp      RMS Disp    ~
  --------------------------------------------------------------------------------------------- ~
    Convergence Criteria    1.00e-06 *    3.00e-04 *             o    1.20e-03 *             o  ~
  --------------------------------------------------------------------------------------------- ~
      1    -305.96437105   -3.06e+02      2.86e-02      7.11e-03 o    1.76e-01      5.06e-02 o  ~
  ---------------------------------------------------------------------------------------------

	Writing optimization data to binary file.
	Structure for next step:
	Cartesian Geometry (in Angstrom)
	    O     0.2018075726   1.4550247059  -0.2278549697
	    C     0.1503326926   0.2860264151  -0.1034320320
	    C    -1.1561367168  -0.4875645024  -0.1409537749
	    O     1.2921537709  -0.4257395620  -0.1374083991
	    C    -2.3904965654   0.3910200923  -0.2771617579
	    H    -1.0809606134  -1.1848286227  -0.9684514250
	    H    -1.2286537844  -1.0919501410   0.7519824680
	    H    -2.3442081921   0.9816453144  -1.1819041568
	    H    -3.2873028350  -0.2162299714  -0.3109332191
	    H    -2.4736422924   1.0757731411   0.5563214916
	    C     1.6988087308  -1.2204913945   0.9611084855
	    H     1.7790117566  -0.6116216902   1.8528776646
	    H     2.6726800560  -1.6034321679   0.7074888494
	    H     1.0364034365  -2.0523534549   1.1465537170
			--------------------------
			 OPTKING Finished Execution 
			--------------------------

    Structure for next step:
    Molecular point group: c1
    Full point group: C1

    Geometry (in Angstrom), charge = 0, multiplicity = 1:

    O            0.218153976118     1.462390471363    -0.250640178370
    C            0.166679100071     0.293392269848    -0.126217250234
    C           -1.139790209597    -0.480198588568    -0.163738990220
    O            1.308500091163    -0.418373652908    -0.160193614690
    C           -2.374149963951     0.398385939014    -0.299946962790
    H           -1.064614111925    -1.177462655662    -0.991236577133
    H           -1.212307271714    -1.084584181088     0.729197184487
    H           -2.327861594136     0.989011116045    -1.204689292668
    H           -3.270956165075    -0.208864078286    -0.333718421488
    H           -2.457295684566     1.083138935540     0.533536223000
    C            1.715155019976    -1.213125424725     0.938323186011
    H            1.795358039686    -0.604255766943     1.830092297000
    H            2.689026270831    -1.596066168926     0.684703569254
    H            1.052749776269    -2.044987421658     1.123768403357

gradient() will perform analytic gradient computation.

*** tstart() called on cx1-27-3-2
*** at Fri Sep  9 22:16:14 2016


         ---------------------------------------------------------
                                   SCF
            by Justin Turney, Rob Parrish, and Andy Simmonett
                              RHF Reference
                        4 Threads,   2000 MiB Core
         ---------------------------------------------------------

  ==> Geometry <==

    Molecular point group: c1
    Full point group: C1

    Geometry (in Angstrom), charge = 0, multiplicity = 1:

       Center              X                  Y                   Z               Mass       
    ------------   -----------------  -----------------  -----------------  -----------------
           O          0.218153976118     1.462390471363    -0.250640178370    15.994914619560
           C          0.166679100071     0.293392269848    -0.126217250234    12.000000000000
           C         -1.139790209597    -0.480198588568    -0.163738990220    12.000000000000
           O          1.308500091163    -0.418373652908    -0.160193614690    15.994914619560
           C         -2.374149963951     0.398385939014    -0.299946962790    12.000000000000
           H         -1.064614111925    -1.177462655662    -0.991236577133     1.007825032070
           H         -1.212307271714    -1.084584181088     0.729197184487     1.007825032070
           H         -2.327861594136     0.989011116045    -1.204689292668     1.007825032070
           H         -3.270956165075    -0.208864078286    -0.333718421488     1.007825032070
           H         -2.457295684566     1.083138935540     0.533536223000     1.007825032070
           C          1.715155019976    -1.213125424725     0.938323186011    12.000000000000
           H          1.795358039686    -0.604255766943     1.830092297000     1.007825032070
           H          2.689026270831    -1.596066168926     0.684703569254     1.007825032070
           H          1.052749776269    -2.044987421658     1.123768403357     1.007825032070

  Running in c1 symmetry.

  Rotational constants: A =      0.23653  B =      0.07764  C =      0.06299 [cm^-1]
  Rotational constants: A =   7091.03463  B =   2327.59885  C =   1888.32706 [MHz]
  Nuclear repulsion =  245.962817433498770

  Charge       = 0
  Multiplicity = 1
  Electrons    = 48
  Nalpha       = 24
  Nbeta        = 24

  ==> Algorithm <==

  SCF Algorithm Type is DF.
  DIIS enabled.
  MOM disabled.
  Fractional occupation disabled.
  Guess Type is READ.
  Energy threshold   = 1.00e-08
  Density threshold  = 1.00e-08
  Integral threshold = 0.00e+00

  ==> Primary Basis <==

  Basis Set: CC-PVTZ
    Number of shells: 108
    Number of basis function: 292
    Number of Cartesian functions: 330
    Spherical Harmonics?: true
    Max angular momentum: 3

  ==> Pre-Iterations <==

   -------------------------------------------------------
    Irrep   Nso     Nmo     Nalpha   Nbeta   Ndocc  Nsocc
   -------------------------------------------------------
     A        292     292       0       0       0       0
   -------------------------------------------------------
    Total     292     292      24      24      24       0
   -------------------------------------------------------

 OEINTS: Overlap, kinetic, potential, dipole, and quadrupole integrals
         stored in file 35.

  ==> Integral Setup <==

  ==> DFJK: Density-Fitted J/K Matrices <==

    J tasked:                  Yes
    K tasked:                  Yes
    wK tasked:                  No
    OpenMP threads:              4
    Integrals threads:           4
    Memory (MB):              1430
    Algorithm:                Core
    Integral Cache:           NONE
    Schwarz Cutoff:          1E-12
    Fitting Condition:       1E-12

   => Auxiliary Basis Set <=

  Basis Set: 
    Number of shells: 230
    Number of basis function: 714
    Number of Cartesian functions: 856
    Spherical Harmonics?: true
    Max angular momentum: 4

  Minimum eigenvalue in the overlap matrix is 5.0544257924E-04.
  Using Symmetric Orthogonalization.
  SCF Guess: Reading in previously saved MOs, projecting if necessary.

  Using orbitals from previous SCF, no projection.
  Recomputing DOCC and SOCC from number of alpha and beta electrons from previous calculation.
              A 
    DOCC [    24 ]

  ==> Iterations <==

                           Total Energy        Delta E     RMS |[F,P]|

   @DF-RHF iter   0:  -305.87021514664536   -3.05870e+02   1.16062e-03 
   @DF-RHF iter   1:  -305.96279022002557   -9.25751e-02   2.07848e-04 
   @DF-RHF iter   2:  -305.96566471725680   -2.87450e-03   8.09605e-05 DIIS
   @DF-RHF iter   3:  -305.96606641760343   -4.01700e-04   3.43740e-05 DIIS
   @DF-RHF iter   4:  -305.96615572403516   -8.93064e-05   9.76029e-06 DIIS
   @DF-RHF iter   5:  -305.96616282145158   -7.09742e-06   4.16862e-06 DIIS
   @DF-RHF iter   6:  -305.96616509717239   -2.27572e-06   1.27393e-06 DIIS
   @DF-RHF iter   7:  -305.96616533388590   -2.36714e-07   5.03603e-07 DIIS
   @DF-RHF iter   8:  -305.96616535942098   -2.55351e-08   2.30682e-07 DIIS
   @DF-RHF iter   9:  -305.96616536567660   -6.25562e-09   8.49730e-08 DIIS
   @DF-RHF iter  10:  -305.96616536715271   -1.47611e-09   3.34861e-08 DIIS
   @DF-RHF iter  11:  -305.96616536739214   -2.39424e-10   1.18781e-08 DIIS
   @DF-RHF iter  12:  -305.96616536741624   -2.41016e-11   3.69148e-09 DIIS

  ==> Post-Iterations <==

    Orbital Energies (a.u.)
    -----------------------

    Doubly Occupied:                                                      

       1A    -20.582375     2A    -20.539938     3A    -11.367306  
       4A    -11.292500     5A    -11.243802     6A    -11.218423  
       7A     -1.460473     8A     -1.366705     9A     -1.061495  
      10A     -0.980607    11A     -0.894364    12A     -0.767713  
      13A     -0.702292    14A     -0.679086    15A     -0.674329  
      16A     -0.628288    17A     -0.612101    18A     -0.560300  
      19A     -0.548305    20A     -0.524351    21A     -0.510531  
      22A     -0.489783    23A     -0.460410    24A     -0.437963  

    Virtual:                                                              

      25A      0.126191    26A      0.152220    27A      0.165189  
      28A      0.185294    29A      0.204540    30A      0.211196  
      31A      0.215516    32A      0.225070    33A      0.247697  
      34A      0.258595    35A      0.323085    36A      0.345499  
      37A      0.359515    38A      0.374523    39A      0.380577  
      40A      0.399564    41A      0.420436    42A      0.435523  
      43A      0.481292    44A      0.497003    45A      0.538098  
      46A      0.548767    47A      0.566493    48A      0.578573  
      49A      0.598106    50A      0.602820    51A      0.614226  
      52A      0.629783    53A      0.635107    54A      0.654599  
      55A      0.669568    56A      0.672716    57A      0.676173  
      58A      0.686195    59A      0.708747    60A      0.727371  
      61A      0.768032    62A      0.799583    63A      0.806805  
      64A      0.826811    65A      0.851758    66A      0.892588  
      67A      0.904592    68A      0.934089    69A      0.969260  
      70A      0.982780    71A      0.998218    72A      1.038361  
      73A      1.053625    74A      1.066501    75A      1.077064  
      76A      1.106135    77A      1.147006    78A      1.159755  
      79A      1.176374    80A      1.191935    81A      1.215633  
      82A      1.221158    83A      1.253442    84A      1.261892  
      85A      1.275126    86A      1.291591    87A      1.307475  
      88A      1.317397    89A      1.347563    90A      1.354619  
      91A      1.364659    92A      1.381229    93A      1.387382  
      94A      1.414673    95A      1.457397    96A      1.482464  
      97A      1.490517    98A      1.505082    99A      1.525284  
     100A      1.533665   101A      1.553522   102A      1.560291  
     103A      1.594790   104A      1.603368   105A      1.609286  
     106A      1.652316   107A      1.694090   108A      1.721675  
     109A      1.772943   110A      1.800469   111A      1.814532  
     112A      1.854383   113A      1.897063   114A      1.952056  
     115A      2.004666   116A      2.061649   117A      2.150362  
     118A      2.232866   119A      2.283784   120A      2.325117  
     121A      2.351734   122A      2.422294   123A      2.449493  
     124A      2.478680   125A      2.508075   126A      2.536510  
     127A      2.563881   128A      2.608931   129A      2.627016  
     130A      2.653540   131A      2.699151   132A      2.739102  
     133A      2.768089   134A      2.795727   135A      2.842489  
     136A      2.864908   137A      2.911050   138A      2.920831  
     139A      2.950382   140A      2.990328   141A      2.997022  
     142A      3.049697   143A      3.054705   144A      3.067001  
     145A      3.101202   146A      3.106768   147A      3.116294  
     148A      3.135637   149A      3.176150   150A      3.186993  
     151A      3.202104   152A      3.228895   153A      3.253318  
     154A      3.261973   155A      3.279910   156A      3.304891  
     157A      3.316913   158A      3.333019   159A      3.357081  
     160A      3.372656   161A      3.387567   162A      3.393398  
     163A      3.415684   164A      3.434824   165A      3.461175  
     166A      3.475737   167A      3.500827   168A      3.529099  
     169A      3.549763   170A      3.576145   171A      3.599722  
     172A      3.612363   173A      3.635612   174A      3.647325  
     175A      3.661469   176A      3.696055   177A      3.727687  
     178A      3.739610   179A      3.747670   180A      3.772622  
     181A      3.782082   182A      3.808196   183A      3.814898  
     184A      3.837178   185A      3.847520   186A      3.869852  
     187A      3.879494   188A      3.930991   189A      3.944855  
     190A      3.981323   191A      3.991390   192A      4.055381  
     193A      4.063249   194A      4.101312   195A      4.104235  
     196A      4.135731   197A      4.156258   198A      4.161717  
     199A      4.177992   200A      4.208961   201A      4.229787  
     202A      4.258237   203A      4.265697   204A      4.292689  
     205A      4.304233   206A      4.323206   207A      4.358089  
     208A      4.380756   209A      4.390384   210A      4.405696  
     211A      4.419909   212A      4.441707   213A      4.449912  
     214A      4.503375   215A      4.537256   216A      4.563198  
     217A      4.577163   218A      4.589846   219A      4.628811  
     220A      4.662626   221A      4.680422   222A      4.692355  
     223A      4.757270   224A      4.787271   225A      4.825600  
     226A      4.842158   227A      4.876422   228A      4.931587  
     229A      5.010965   230A      5.090329   231A      5.103309  
     232A      5.119955   233A      5.178283   234A      5.212358  
     235A      5.220059   236A      5.238835   237A      5.258466  
     238A      5.268598   239A      5.302646   240A      5.353387  
     241A      5.369566   242A      5.424590   243A      5.431261  
     244A      5.473100   245A      5.545884   246A      5.574289  
     247A      5.589105   248A      5.594054   249A      5.616482  
     250A      5.648238   251A      5.681450   252A      5.702420  
     253A      5.732015   254A      5.738119   255A      5.771511  
     256A      5.784331   257A      5.823496   258A      5.858618  
     259A      5.866305   260A      5.944537   261A      5.977719  
     262A      6.108935   263A      6.164686   264A      6.181469  
     265A      6.240063   266A      6.301231   267A      6.305632  
     268A      6.348448   269A      6.359454   270A      6.554193  
     271A      6.672150   272A      6.730457   273A      6.748881  
     274A      6.839471   275A      6.915883   276A      6.963611  
     277A      7.014568   278A      7.224931   279A      7.262928  
     280A      7.381879   281A      7.442244   282A      7.565506  
     283A      7.606472   284A      7.650449   285A      7.793928  
     286A      7.926100   287A      9.779379   288A     11.795464  
     289A     13.472996   290A     14.081095   291A     14.280514  
     292A     14.507089  

    Final Occupation by Irrep:
              A 
    DOCC [    24 ]

  Energy converged.

  @DF-RHF Final Energy:  -305.96616536741624

   => Energetics <=

    Nuclear Repulsion Energy =            245.9628174334987705
    One-Electron Energy =                -904.6510828938131681
    Two-Electron Energy =                 352.7221000928980175
    DFT Exchange-Correlation Energy =       0.0000000000000000
    Empirical Dispersion Energy =           0.0000000000000000
    PCM Polarization Energy =               0.0000000000000000
    EFP Energy =                            0.0000000000000000
    Total Energy =                       -305.9661653674163517

    Alert: EFP and PCM quantities not currently incorporated into SCF psivars.

Properties will be evaluated at   0.000000,   0.000000,   0.000000 Bohr
  ==> Properties <==


Properties computed using the SCF density matrix

  Nuclear Dipole Moment: (a.u.)
     X:    -4.4887      Y:    -4.3487      Z:     2.2214

  Electronic Dipole Moment: (a.u.)
     X:     4.1592      Y:     2.9862      Z:    -1.5978

  Dipole Moment: (a.u.)
     X:    -0.3294      Y:    -1.3624      Z:     0.6236     Total:     1.5341

  Dipole Moment: (Debye)
     X:    -0.8373      Y:    -3.4630      Z:     1.5850     Total:     3.8994


  Saving occupied orbitals to File 180.

*** tstop() called on cx1-27-3-2 at Fri Sep  9 22:16:23 2016
Module time:
	user time   =      27.77 seconds =       0.46 minutes
	system time =       0.44 seconds =       0.01 minutes
	total time  =          9 seconds =       0.15 minutes
Total time:
	user time   =     121.02 seconds =       2.02 minutes
	system time =       1.62 seconds =       0.03 minutes
	total time  =         36 seconds =       0.60 minutes

*** tstart() called on cx1-27-3-2
*** at Fri Sep  9 22:16:23 2016


         ------------------------------------------------------------
                                   SCF GRAD                          
                          Rob Parrish, Justin Turney,                
                       Andy Simmonett, and Alex Sokolov              
         ------------------------------------------------------------

  ==> Geometry <==

    Molecular point group: c1
    Full point group: C1

    Geometry (in Angstrom), charge = 0, multiplicity = 1:

       Center              X                  Y                   Z               Mass       
    ------------   -----------------  -----------------  -----------------  -----------------
           O          0.218153976118     1.462390471363    -0.250640178370    15.994914619560
           C          0.166679100071     0.293392269848    -0.126217250234    12.000000000000
           C         -1.139790209597    -0.480198588568    -0.163738990220    12.000000000000
           O          1.308500091163    -0.418373652908    -0.160193614690    15.994914619560
           C         -2.374149963951     0.398385939014    -0.299946962790    12.000000000000
           H         -1.064614111925    -1.177462655662    -0.991236577133     1.007825032070
           H         -1.212307271714    -1.084584181088     0.729197184487     1.007825032070
           H         -2.327861594136     0.989011116045    -1.204689292668     1.007825032070
           H         -3.270956165075    -0.208864078286    -0.333718421488     1.007825032070
           H         -2.457295684566     1.083138935540     0.533536223000     1.007825032070
           C          1.715155019976    -1.213125424725     0.938323186011    12.000000000000
           H          1.795358039686    -0.604255766943     1.830092297000     1.007825032070
           H          2.689026270831    -1.596066168926     0.684703569254     1.007825032070
           H          1.052749776269    -2.044987421658     1.123768403357     1.007825032070

  Nuclear repulsion =  245.962817433498770

  ==> Basis Set <==

  Basis Set: CC-PVTZ
    Number of shells: 108
    Number of basis function: 292
    Number of Cartesian functions: 330
    Spherical Harmonics?: true
    Max angular momentum: 3

  ==> DFJKGrad: Density-Fitted SCF Gradients <==

    Gradient:                    1
    J tasked:                  Yes
    K tasked:                  Yes
    wK tasked:                  No
    OpenMP threads:              4
    Integrals threads:           4
    Memory (MB):              1430
    Schwarz Cutoff:          0E+00
    Fitting Condition:       1E-12

   => Auxiliary Basis Set <=

  Basis Set: 
    Number of shells: 230
    Number of basis function: 714
    Number of Cartesian functions: 856
    Spherical Harmonics?: true
    Max angular momentum: 4


  -Total Gradient:
     Atom            X                  Y                   Z
    ------   -----------------  -----------------  -----------------
       1        0.001491960896    -0.002367345586    -0.005705332073
       2        0.001675939126    -0.004544152961     0.017414943651
       3       -0.004492243002     0.002769188335    -0.005408260545
       4        0.000815952312     0.007117816355    -0.008117120386
       5       -0.001723556484    -0.002682861631     0.000514027971
       6       -0.001118084079     0.000000999075     0.000029188572
       7       -0.000209901903     0.002950191550    -0.002543418232
       8        0.000172427835    -0.000126530363    -0.000158936947
       9       -0.001061213026     0.000854099906    -0.000245289561
      10        0.000069196822    -0.000021636115     0.000056111406
      11        0.001693251547    -0.005448020571     0.003449718329
      12       -0.000024794096     0.000486569919    -0.000547599073
      13       -0.000662518292     0.000066943340     0.000138213669
      14        0.003373582349     0.000944738750     0.001123753219


*** tstop() called on cx1-27-3-2 at Fri Sep  9 22:16:39 2016
Module time:
	user time   =      59.79 seconds =       1.00 minutes
	system time =       0.45 seconds =       0.01 minutes
	total time  =         16 seconds =       0.27 minutes
Total time:
	user time   =     180.82 seconds =       3.01 minutes
	system time =       2.07 seconds =       0.03 minutes
	total time  =         52 seconds =       0.87 minutes
CURRENT ENERGY: -305.9661653674

			-----------------------------------------
			 OPTKING 2.0: for geometry optimizations 
			  - R.A. King,  Bethel University        
			-----------------------------------------

	Previous internal coordinate definitions found.
	---Fragment 1 Geometry and Gradient---
	 O           0.4122512697        2.7635174902       -0.4736412950
	 C           0.3149778512        0.5544310395       -0.2385160362
	 C          -2.1538913451       -0.9074438218       -0.3094218488
	 O           2.4727068172       -0.7906116252       -0.3027220600
	 C          -4.4864932303        0.7528403199       -0.5668176141
	 H          -2.0118291087       -2.2250819509       -1.8731656637
	 H          -2.2909287324       -2.0495670703        1.3779829756
	 H          -4.3990208882        1.8689601517       -2.2765328384
	 H          -6.1812113447       -0.3946959070       -0.6306364221
	 H          -4.6436158714        2.0468359520        1.0082373434
	 C           3.2411732632       -2.2924748176        1.7731738457
	 H           3.3927350055       -1.1418779137        3.4583732392
	 H           5.0815232160       -3.0161279492        1.2939022281
	 H           1.9894087636       -3.8644661721        2.1236145191
	             0.0014919609       -0.0023673456       -0.0057053321
	             0.0016759391       -0.0045441530        0.0174149437
	            -0.0044922430        0.0027691883       -0.0054082605
	             0.0008159523        0.0071178164       -0.0081171204
	            -0.0017235565       -0.0026828616        0.0005140280
	            -0.0011180841        0.0000009991        0.0000291886
	            -0.0002099019        0.0029501916       -0.0025434182
	             0.0001724278       -0.0001265304       -0.0001589369
	            -0.0010612130        0.0008540999       -0.0002452896
	             0.0000691968       -0.0000216361        0.0000561114
	             0.0016932515       -0.0054480206        0.0034497183
	            -0.0000247941        0.0004865699       -0.0005475991
	            -0.0006625183        0.0000669433        0.0001382137
	             0.0033735823        0.0009447388        0.0011237532

	---Fragment 1 Intrafragment Coordinates---
	 - Coordinate -           - BOHR/RAD -       - ANG/DEG -
	 R(1,2)           =         2.223693	       1.176728
	 R(2,3)           =         2.870091	       1.518787
	 R(2,4)           =         2.543434	       1.345927
	 R(3,5)           =         2.874687	       1.521219
	 R(3,6)           =         2.049792	       1.084703
	 R(3,7)           =         2.042195	       1.080683
	 R(4,11)          =         2.674972	       1.415535
	 R(5,8)           =         2.043649	       1.081453
	 R(5,9)           =         2.047677	       1.083584
	 R(5,10)          =         2.044483	       1.081894
	 R(11,12)         =         2.046153	       1.082777
	 R(11,13)         =         2.034764	       1.076751
	 R(11,14)         =         2.039823	       1.079428
	 B(1,2,3)         =         2.142445	     122.753037
	 B(1,2,4)         =         2.077818	     119.050231
	 B(2,3,5)         =         1.988904	     113.955806
	 B(2,3,6)         =         1.861521	     106.657301
	 B(2,3,7)         =         1.898816	     108.794124
	 B(2,4,11)        =         2.118860	     121.401756
	 B(3,2,4)         =         2.048539	     117.372666
	 B(3,5,8)         =         1.934355	     110.830368
	 B(3,5,9)         =         1.929101	     110.529321
	 B(3,5,10)        =         1.937912	     111.034200
	 B(4,11,12)       =         1.922725	     110.164016
	 B(4,11,13)       =         1.851173	     106.064407
	 B(4,11,14)       =         1.971116	     112.936613
	 B(5,3,6)         =         1.938195	     111.050421
	 B(5,3,7)         =         1.920413	     110.031559
	 B(6,3,7)         =         1.849898	     105.991358
	 B(8,5,9)         =         1.891688	     108.385714
	 B(8,5,10)        =         1.877729	     107.585926
	 B(9,5,10)        =         1.891358	     108.366835
	 B(12,11,13)      =         1.903906	     109.085779
	 B(12,11,14)      =         1.914860	     109.713424
	 B(13,11,14)      =         1.898023	     108.748705
	 D(1,2,3,5)       =        -0.055001	      -3.151303
	 D(1,2,3,6)       =         2.090039	     119.750438
	 D(1,2,3,7)       =        -2.204739	    -126.322245
	 D(1,2,4,11)      =         2.096208	     120.103897
	 D(2,3,5,8)       =         1.031377	      59.093543
	 D(2,3,5,9)       =         3.129043	     179.280938
	 D(2,3,5,10)      =        -1.054555	     -60.421569
	 D(2,4,11,12)     =        -0.996989	     -57.123258
	 D(2,4,11,13)     =        -3.055074	    -175.042829
	 D(2,4,11,14)     =         1.150893	      65.941330
	*D(3,2,4,11)      =        -1.221730	     -69.999969
	 D(4,2,3,5)       =        -3.013212	    -172.644325
	 D(4,2,3,6)       =        -0.868172	     -49.742584
	 D(4,2,3,7)       =         1.120235	      64.184733
	 D(6,3,5,8)       =        -1.071233	     -61.377112
	 D(6,3,5,9)       =         1.026433	      58.810283
	 D(6,3,5,10)      =         3.126020	     179.107776
	 D(7,3,5,8)       =        -3.113865	    -178.411344
	 D(7,3,5,9)       =        -1.016200	     -58.223948
	 D(7,3,5,10)      =         1.083388	      62.073545

	Current energy   :      -305.9661653674

	Energy change for the previous step:
		Projected    :        -0.0112001231
		Actual       :        -0.0017943218
	Energy ratio indicates iffy step: Trust radius decreased to 1.250e-01.


	Performing BFGS update.
	Previous computed or guess Hessian on step 1.
	Steps to be used in Hessian update: 1
	Taking RFO optimization step.
	Going to follow RFO solution 1.
	Using RFO vector 1.

	Determining step-restricting scale parameter for RS-RFO.
	Maximum step size allowed    0.12500

	 Iter      |step|        alpha        rfo_root  
	------------------------------------------------
	    0     0.30474       1.00000           1
	    1     0.20753       4.20562           1
	    2     0.15454       8.94152           1
	    3     0.13155      12.99137           1
	    4     0.12548      14.46918           1
	    5     0.12500      14.59477           1
	------------------------------------------------
	Norm of target step-size    0.12500
	Projected energy change by RFO approximation:        -0.0009514057

	Back-transformation to cartesian coordinates...
	Successfully converged to displaced geometry.

	Back-transformation to cartesian coordinates to adjust frozen coordinates...
	Successfully converged to displaced geometry.

	--- Internal Coordinate Step in ANG or DEG, aJ/ANG or AJ/DEG ---
	 ---------------------------------------------------------------------------
	   Coordinate                Previous        Force       Change         New 
	   ----------                --------       ------       ------       ------
	    1 R(1,2)          =      1.176728     0.013868     0.000269     1.176997
	    2 R(2,3)          =      1.518787    -0.045141    -0.005601     1.513186
	    3 R(2,4)          =      1.345927    -0.023332    -0.000690     1.345237
	    4 R(3,5)          =      1.521219    -0.007472    -0.001005     1.520214
	    5 R(3,6)          =      1.084703     0.000827     0.000114     1.084817
	    6 R(3,7)          =      1.080683     0.030791     0.003580     1.084263
	    7 R(4,11)         =      1.415535    -0.055259    -0.005465     1.410070
	    8 R(5,8)          =      1.081453    -0.000587    -0.000085     1.081367
	    9 R(5,9)          =      1.083584    -0.003356    -0.000388     1.083196
	   10 R(5,10)         =      1.081894    -0.000200    -0.000019     1.081875
	   11 R(11,12)        =      1.082777     0.001477     0.000305     1.083083
	   12 R(11,13)        =      1.076751     0.005401     0.000594     1.077344
	   13 R(11,14)        =      1.079428     0.021464     0.002554     1.081982
	   14 B(1,2,3)        =    122.753037     0.000381     0.783044   123.536081
	   15 B(1,2,4)        =    119.050231     0.000628     1.195287   120.245518
	   16 B(2,3,5)        =    113.955806    -0.000263    -0.580333   113.375473
	   17 B(2,3,6)        =    106.657301     0.000011    -0.245947   106.411354
	   18 B(2,3,7)        =    108.794124     0.000090     0.311689   109.105813
	   19 B(2,4,11)       =    121.401756    -0.000660    -1.108182   120.293574
	   20 B(3,2,4)        =    117.372666    -0.000964    -1.457655   115.915011
	   21 B(3,5,8)        =    110.830368     0.000053     0.167223   110.997591
	   22 B(3,5,9)        =    110.529321    -0.000155    -0.464121   110.065200
	   23 B(3,5,10)       =    111.034200     0.000029     0.090524   111.124724
	   24 B(4,11,12)      =    110.164016     0.000132     0.365771   110.529787
	   25 B(4,11,13)      =    106.064407     0.000049     0.178466   106.242874
	   26 B(4,11,14)      =    112.936613    -0.000323    -0.870478   112.066134
	   27 B(5,3,6)        =    111.050421     0.000129     0.302714   111.353136
	   28 B(5,3,7)        =    110.031559     0.000106     0.315725   110.347284
	   29 B(6,3,7)        =    105.991358    -0.000063    -0.085818   105.905540
	   30 B(8,5,9)        =    108.385714     0.000048     0.121187   108.506901
	   31 B(8,5,10)       =    107.585926    -0.000018     0.013268   107.599194
	   32 B(9,5,10)       =    108.366835     0.000048     0.084226   108.451061
	   33 B(12,11,13)     =    109.085779     0.000007     0.057608   109.143387
	   34 B(12,11,14)     =    109.713424     0.000039     0.079407   109.792830
	   35 B(13,11,14)     =    108.748705     0.000104     0.211662   108.960368
	   36 D(1,2,3,5)      =     -3.151303     0.000038     2.177362    -0.973941
	   37 D(1,2,3,6)      =    119.750438     0.000038     2.015453   121.765891
	   38 D(1,2,3,7)      =   -126.322245     0.000032     1.939821  -124.382424
	   39 D(1,2,4,11)     =    120.103897    -0.000071    -3.999358   116.104539
	   40 D(2,3,5,8)      =     59.093543    -0.000004    -0.158098    58.935445
	   41 D(2,3,5,9)      =    179.280938    -0.000005    -0.202561   179.078377
	   42 D(2,3,5,10)     =    -60.421569    -0.000011    -0.344857   -60.766426
	   43 D(2,4,11,12)    =    -57.123258     0.000012     0.456245   -56.667013
	   44 D(2,4,11,13)    =   -175.042829    -0.000012     0.092561  -174.950268
	   45 D(2,4,11,14)    =     65.941330    -0.000007     0.209181    66.150510
	   46 *D(3,2,4,11)    =    -69.999969     0.000000     0.000000   -69.999969
	   47 D(4,2,3,5)      =   -172.644325    -0.000041    -2.002042  -174.646367
	   48 D(4,2,3,6)      =    -49.742584    -0.000040    -2.163951   -51.906534
	   49 D(4,2,3,7)      =     64.184733    -0.000046    -2.239582    61.945150
	   50 D(6,3,5,8)      =    -61.377112     0.000014     0.348172   -61.028940
	   51 D(6,3,5,9)      =     58.810283     0.000012     0.303709    59.113991
	   52 D(6,3,5,10)     =    179.107776     0.000007     0.161412   179.269189
	   53 D(7,3,5,8)      =   -178.411344    -0.000001     0.071507  -178.339836
	   54 D(7,3,5,9)      =    -58.223948    -0.000003     0.027044   -58.196904
	   55 D(7,3,5,10)     =     62.073545    -0.000008    -0.115252    61.958293
	 ---------------------------------------------------------------------------

  ==> Convergence Check <==

  Measures of convergence in internal coordinates in au.
  Criteria marked as inactive (o), active & met (*), and active & unmet ( ).
  ---------------------------------------------------------------------------------------------
   Step     Total Energy     Delta E     MAX Force     RMS Force      MAX Disp      RMS Disp   
  ---------------------------------------------------------------------------------------------
    Convergence Criteria    1.00e-06 *    3.00e-04 *             o    1.20e-03 *             o
  ---------------------------------------------------------------------------------------------
      2    -305.96616537   -1.79e-03      1.27e-02      3.12e-03 o    6.98e-02      1.69e-02 o  ~
  ---------------------------------------------------------------------------------------------

	Writing optimization data to binary file.
	Structure for next step:
	Cartesian Geometry (in Angstrom)
	    O     0.2255132203   1.4699603714  -0.2407105854
	    C     0.1757801878   0.2965907546  -0.1629159595
	    C    -1.1178822523  -0.4882076984  -0.1790283408
	    O     1.3060628469  -0.4325229151  -0.1856560040
	    C    -2.3546789364   0.3896986941  -0.2823045244
	    H    -1.0496075918  -1.1745199676  -1.0163710241
	    H    -1.1683213647  -1.1075843967   0.7094847491
	    H    -2.3289397170   0.9912773449  -1.1805225322
	    H    -3.2460493317  -0.2252976606  -0.3058051879
	    H    -2.4258815060   1.0637614771   0.5609175064
	    C     1.6816976649  -1.1975819172   0.9376785141
	    H     1.7600405067  -0.5691140721   1.8162901423
	    H     2.6507143192  -1.6101919646   0.7108965442
	    H     0.9901988529  -2.0078676082   1.1272864539
			--------------------------
			 OPTKING Finished Execution 
			--------------------------

    Structure for next step:
    Molecular point group: c1
    Full point group: C1

    Geometry (in Angstrom), charge = 0, multiplicity = 1:

    O            0.222550391632     1.470824742180    -0.233698714918
    C            0.172817362892     0.297455215049    -0.155904094936
    C           -1.120844978332    -0.487343178027    -0.172016475010
    O            1.303099935746    -0.431658399044    -0.178644137751
    C           -2.357641568082     0.390563147377    -0.275292650737
    H           -1.052570323095    -1.173655394827    -1.009359094387
    H           -1.171284086917    -1.106719829044     0.716496547057
    H           -2.331902350647     0.992141752275    -1.173510589983
    H           -3.249011895217    -0.224433160312    -0.298793312442
    H           -2.428844132216     1.064625878944     0.567929315632
    C            1.678734725046    -1.196717342736     0.944690294568
    H            1.757077560887    -0.568249545531     1.823301855731
    H            2.647751305362    -1.609327358587     0.717908341976
    H            0.987235965863    -2.007002971845     1.134298219952

gradient() will perform analytic gradient computation.

*** tstart() called on cx1-27-3-2
*** at Fri Sep  9 22:16:39 2016


         ---------------------------------------------------------
                                   SCF
            by Justin Turney, Rob Parrish, and Andy Simmonett
                              RHF Reference
                        4 Threads,   2000 MiB Core
         ---------------------------------------------------------

  ==> Geometry <==

    Molecular point group: c1
    Full point group: C1

    Geometry (in Angstrom), charge = 0, multiplicity = 1:

       Center              X                  Y                   Z               Mass       
    ------------   -----------------  -----------------  -----------------  -----------------
           O          0.222550391632     1.470824742180    -0.233698714918    15.994914619560
           C          0.172817362892     0.297455215049    -0.155904094936    12.000000000000
           C         -1.120844978332    -0.487343178027    -0.172016475010    12.000000000000
           O          1.303099935746    -0.431658399044    -0.178644137751    15.994914619560
           C         -2.357641568082     0.390563147377    -0.275292650737    12.000000000000
           H         -1.052570323095    -1.173655394827    -1.009359094387     1.007825032070
           H         -1.171284086917    -1.106719829044     0.716496547057     1.007825032070
           H         -2.331902350647     0.992141752275    -1.173510589983     1.007825032070
           H         -3.249011895217    -0.224433160312    -0.298793312442     1.007825032070
           H         -2.428844132216     1.064625878944     0.567929315632     1.007825032070
           C          1.678734725046    -1.196717342736     0.944690294568    12.000000000000
           H          1.757077560887    -0.568249545531     1.823301855731     1.007825032070
           H          2.647751305362    -1.609327358587     0.717908341976     1.007825032070
           H          0.987235965863    -2.007002971845     1.134298219952     1.007825032070

  Running in c1 symmetry.

  Rotational constants: A =      0.23295  B =      0.07920  C =      0.06410 [cm^-1]
  Rotational constants: A =   6983.60595  B =   2374.29457  C =   1921.66595 [MHz]
  Nuclear repulsion =  246.764212640028802

  Charge       = 0
  Multiplicity = 1
  Electrons    = 48
  Nalpha       = 24
  Nbeta        = 24

  ==> Algorithm <==

  SCF Algorithm Type is DF.
  DIIS enabled.
  MOM disabled.
  Fractional occupation disabled.
  Guess Type is READ.
  Energy threshold   = 1.00e-08
  Density threshold  = 1.00e-08
  Integral threshold = 0.00e+00

  ==> Primary Basis <==

  Basis Set: CC-PVTZ
    Number of shells: 108
    Number of basis function: 292
    Number of Cartesian functions: 330
    Spherical Harmonics?: true
    Max angular momentum: 3

  ==> Pre-Iterations <==

   -------------------------------------------------------
    Irrep   Nso     Nmo     Nalpha   Nbeta   Ndocc  Nsocc
   -------------------------------------------------------
     A        292     292       0       0       0       0
   -------------------------------------------------------
    Total     292     292      24      24      24       0
   -------------------------------------------------------

 OEINTS: Overlap, kinetic, potential, dipole, and quadrupole integrals
         stored in file 35.

  ==> Integral Setup <==

  ==> DFJK: Density-Fitted J/K Matrices <==

    J tasked:                  Yes
    K tasked:                  Yes
    wK tasked:                  No
    OpenMP threads:              4
    Integrals threads:           4
    Memory (MB):              1430
    Algorithm:                Core
    Integral Cache:           NONE
    Schwarz Cutoff:          1E-12
    Fitting Condition:       1E-12

   => Auxiliary Basis Set <=

  Basis Set: 
    Number of shells: 230
    Number of basis function: 714
    Number of Cartesian functions: 856
    Spherical Harmonics?: true
    Max angular momentum: 4

  Minimum eigenvalue in the overlap matrix is 4.9547083034E-04.
  Using Symmetric Orthogonalization.
  SCF Guess: Reading in previously saved MOs, projecting if necessary.

  Using orbitals from previous SCF, no projection.
  Recomputing DOCC and SOCC from number of alpha and beta electrons from previous calculation.
              A 
    DOCC [    24 ]

  ==> Iterations <==

                           Total Energy        Delta E     RMS |[F,P]|

   @DF-RHF iter   0:  -305.96980119596623   -3.05970e+02   3.67301e-04 
   @DF-RHF iter   1:  -305.96713744960419    2.66375e-03   5.16641e-05 
   @DF-RHF iter   2:  -305.96734246616955   -2.05017e-04   1.91819e-05 DIIS
   @DF-RHF iter   3:  -305.96737468254986   -3.22164e-05   9.63382e-06 DIIS
   @DF-RHF iter   4:  -305.96737930059174   -4.61804e-06   2.64070e-06 DIIS
   @DF-RHF iter   5:  -305.96738006382151   -7.63230e-07   1.16324e-06 DIIS
   @DF-RHF iter   6:  -305.96738021896766   -1.55146e-07   4.15932e-07 DIIS
   @DF-RHF iter   7:  -305.96738023566155   -1.66939e-08   1.25823e-07 DIIS
   @DF-RHF iter   8:  -305.96738023719996   -1.53841e-09   4.55068e-08 DIIS
   @DF-RHF iter   9:  -305.96738023743916   -2.39197e-10   1.71500e-08 DIIS
   @DF-RHF iter  10:  -305.96738023749771   -5.85487e-11   6.90609e-09 DIIS

  ==> Post-Iterations <==

    Orbital Energies (a.u.)
    -----------------------

    Doubly Occupied:                                                      

       1A    -20.581749     2A    -20.542163     3A    -11.367828  
       4A    -11.292409     5A    -11.243196     6A    -11.218097  
       7A     -1.461707     8A     -1.369570     9A     -1.062764  
      10A     -0.980431    11A     -0.894951    12A     -0.767982  
      13A     -0.703261    14A     -0.680258    15A     -0.675963  
      16A     -0.629067    17A     -0.613172    18A     -0.559533  
      19A     -0.547503    20A     -0.525685    21A     -0.511185  
      22A     -0.490952    23A     -0.460300    24A     -0.439020  

    Virtual:                                                              

      25A      0.127472    26A      0.152376    27A      0.164456  
      28A      0.185183    29A      0.206259    30A      0.209374  
      31A      0.216931    32A      0.225731    33A      0.248967  
      34A      0.260338    35A      0.323525    36A      0.344815  
      37A      0.357706    38A      0.373155    39A      0.381984  
      40A      0.402288    41A      0.424122    42A      0.437534  
      43A      0.481670    44A      0.497324    45A      0.542995  
      46A      0.548706    47A      0.566770    48A      0.578038  
      49A      0.597234    50A      0.601983    51A      0.613808  
      52A      0.629315    53A      0.636662    54A      0.653222  
      55A      0.669890    56A      0.672344    57A      0.675295  
      58A      0.686773    59A      0.713526    60A      0.728556  
      61A      0.764727    62A      0.799532    63A      0.803904  
      64A      0.826472    65A      0.853179    66A      0.896484  
      67A      0.906271    68A      0.937663    69A      0.967445  
      70A      0.978601    71A      1.001118    72A      1.035811  
      73A      1.051455    74A      1.069795    75A      1.078526  
      76A      1.103753    77A      1.150708    78A      1.156015  
      79A      1.176223    80A      1.192318    81A      1.215456  
      82A      1.225948    83A      1.256486    84A      1.263529  
      85A      1.274670    86A      1.289078    87A      1.310768  
      88A      1.313767    89A      1.346310    90A      1.353396  
      91A      1.368464    92A      1.385005    93A      1.391437  
      94A      1.418889    95A      1.459027    96A      1.482435  
      97A      1.492014    98A      1.505372    99A      1.526082  
     100A      1.533527   101A      1.552550   102A      1.562005  
     103A      1.592722   104A      1.604283   105A      1.615280  
     106A      1.654667   107A      1.697345   108A      1.723577  
     109A      1.777620   110A      1.798953   111A      1.816784  
     112A      1.848153   113A      1.910745   114A      1.955100  
     115A      2.004840   116A      2.059674   117A      2.139460  
     118A      2.232622   119A      2.294064   120A      2.328632  
     121A      2.344543   122A      2.416600   123A      2.453080  
     124A      2.478821   125A      2.515131   126A      2.541785  
     127A      2.558778   128A      2.605918   129A      2.630594  
     130A      2.654999   131A      2.706062   132A      2.744639  
     133A      2.780941   134A      2.796999   135A      2.841016  
     136A      2.862168   137A      2.909595   138A      2.932678  
     139A      2.951445   140A      2.983847   141A      2.996688  
     142A      3.052050   143A      3.056873   144A      3.062606  
     145A      3.096501   146A      3.108668   147A      3.118025  
     148A      3.134557   149A      3.180026   150A      3.184734  
     151A      3.203205   152A      3.230373   153A      3.261370  
     154A      3.264845   155A      3.286889   156A      3.307772  
     157A      3.318224   158A      3.330416   159A      3.355965  
     160A      3.371644   161A      3.389854   162A      3.391625  
     163A      3.416385   164A      3.434478   165A      3.467096  
     166A      3.475783   167A      3.500040   168A      3.537268  
     169A      3.539422   170A      3.577137   171A      3.601850  
     172A      3.612337   173A      3.641325   174A      3.646731  
     175A      3.663417   176A      3.701799   177A      3.726248  
     178A      3.745799   179A      3.747829   180A      3.770393  
     181A      3.786964   182A      3.812635   183A      3.818555  
     184A      3.840289   185A      3.848587   186A      3.869066  
     187A      3.883086   188A      3.929182   189A      3.942844  
     190A      3.986480   191A      3.994559   192A      4.059640  
     193A      4.064868   194A      4.096692   195A      4.103302  
     196A      4.135821   197A      4.158311   198A      4.168314  
     199A      4.179630   200A      4.211361   201A      4.227934  
     202A      4.262397   203A      4.270653   204A      4.296010  
     205A      4.308235   206A      4.320695   207A      4.356907  
     208A      4.382514   209A      4.393454   210A      4.411098  
     211A      4.425298   212A      4.441539   213A      4.445409  
     214A      4.497073   215A      4.541734   216A      4.563970  
     217A      4.574651   218A      4.595454   219A      4.632096  
     220A      4.662432   221A      4.684292   222A      4.695065  
     223A      4.756213   224A      4.791674   225A      4.828156  
     226A      4.844149   227A      4.885217   228A      4.927861  
     229A      5.015822   230A      5.090462   231A      5.105996  
     232A      5.117554   233A      5.184028   234A      5.213736  
     235A      5.224886   236A      5.239963   237A      5.260613  
     238A      5.273265   239A      5.306093   240A      5.352140  
     241A      5.365017   242A      5.421994   243A      5.433738  
     244A      5.480845   245A      5.550331   246A      5.575189  
     247A      5.588159   248A      5.595559   249A      5.616499  
     250A      5.648627   251A      5.682522   252A      5.701442  
     253A      5.729833   254A      5.736234   255A      5.774486  
     256A      5.787293   257A      5.835805   258A      5.856517  
     259A      5.875828   260A      5.946824   261A      5.979739  
     262A      6.125910   263A      6.156108   264A      6.183922  
     265A      6.237228   266A      6.300521   267A      6.307009  
     268A      6.352560   269A      6.363977   270A      6.540517  
     271A      6.669931   272A      6.751541   273A      6.759990  
     274A      6.842780   275A      6.918447   276A      6.957430  
     277A      7.007095   278A      7.234704   279A      7.273650  
     280A      7.383078   281A      7.440727   282A      7.571775  
     283A      7.620868   284A      7.661788   285A      7.793661  
     286A      7.917597   287A      9.820364   288A     11.848433  
     289A     13.484311   290A     14.096733   291A     14.301969  
     292A     14.505466  

    Final Occupation by Irrep:
              A 
    DOCC [    24 ]

  Energy converged.

  @DF-RHF Final Energy:  -305.96738023749771

   => Energetics <=

    Nuclear Repulsion Energy =            246.7642126400288021
    One-Electron Energy =                -906.2256947677005883
    Two-Electron Energy =                 353.4941018901742495
    DFT Exchange-Correlation Energy =       0.0000000000000000
    Empirical Dispersion Energy =           0.0000000000000000
    PCM Polarization Energy =               0.0000000000000000
    EFP Energy =                            0.0000000000000000
    Total Energy =                       -305.9673802374975935

[...]
           H         -2.348083663919     0.988544740156    -1.152662149916     1.007825032070
           H         -3.243322994613    -0.229280192208    -0.257659952946     1.007825032070
           H         -2.409621425192     1.063052403068     0.590651482146     1.007825032070
           C          1.648423109775    -1.190042008485     0.948237912226    12.000000000000
           H          1.676610279427    -0.557179081234     1.827135327430     1.007825032070
           H          2.635327395917    -1.583701915977     0.767398731954     1.007825032070
           H          0.966642138257    -2.014819196293     1.115140110289     1.007825032070

  Nuclear repulsion =  247.154032667979010

  ==> Basis Set <==

  Basis Set: CC-PVTZ
    Number of shells: 108
    Number of basis function: 292
    Number of Cartesian functions: 330
    Spherical Harmonics?: true
    Max angular momentum: 3

  ==> DFJKGrad: Density-Fitted SCF Gradients <==

    Gradient:                    1
    J tasked:                  Yes
    K tasked:                  Yes
    wK tasked:                  No
    OpenMP threads:              4
    Integrals threads:           4
    Memory (MB):              1430
    Schwarz Cutoff:          0E+00
    Fitting Condition:       1E-12

   => Auxiliary Basis Set <=

  Basis Set: 
    Number of shells: 230
    Number of basis function: 714
    Number of Cartesian functions: 856
    Spherical Harmonics?: true
    Max angular momentum: 4


  -Total Gradient:
     Atom            X                  Y                   Z
    ------   -----------------  -----------------  -----------------
       1       -0.000043131465     0.000065559877    -0.000020172446
       2        0.000539715310     0.000342943843     0.001939120698
       3       -0.000001268643     0.000035928044    -0.001132075023
       4       -0.001188604879    -0.001467653663    -0.001135909186
       5        0.000000740815     0.000008809910    -0.000020261512
       6        0.000004565767     0.000002347061    -0.000011057797
       7        0.000009046261    -0.000013426297    -0.000005182739
       8       -0.000003625136     0.000003054644     0.000000237218
       9        0.000010140575    -0.000002618537     0.000001954694
      10        0.000003064781    -0.000000038595     0.000005936542
      11        0.000681685699     0.001032938129     0.000377527991
      12       -0.000008434463     0.000007770273    -0.000006435055
      13       -0.000000770857    -0.000006735367    -0.000002691918
      14       -0.000003123764    -0.000008879324     0.000009008533


*** tstop() called on cx1-27-3-2 at Fri Sep  9 22:18:44 2016
Module time:
	user time   =      59.83 seconds =       1.00 minutes
	system time =       0.56 seconds =       0.01 minutes
	total time  =         16 seconds =       0.27 minutes
Total time:
	user time   =     621.93 seconds =      10.37 minutes
	system time =       6.82 seconds =       0.11 minutes
	total time  =        177 seconds =       2.95 minutes
CURRENT ENERGY: -305.9675576740

			-----------------------------------------
			 OPTKING 2.0: for geometry optimizations 
			  - R.A. King,  Bethel University        
			-----------------------------------------

	Previous internal coordinate definitions found.
	---Fragment 1 Geometry and Gradient---
	 O           0.4499565135        2.7854760985       -0.4374051128
	 C           0.3371856312        0.5691726374       -0.3274545932
	 C          -2.1001258660       -0.9163879945       -0.3267467842
	 O           2.4577187041       -0.8396153592       -0.3665950795
	 C          -4.4475353342        0.7340223785       -0.4782984081
	 H          -1.9963935922       -2.2163061797       -1.9089773790
	 H          -2.1493556104       -2.0853923215        1.3562446337
	 H          -4.4372350619        1.8680788290       -2.1782157871
	 H          -6.1289922203       -0.4332767710       -0.4869067465
	 H          -4.5535245775        2.0088779067        1.1161695412
	 C           3.1150682286       -2.2488534827        1.7919099629
	 H           3.1683342597       -1.0529158705        3.4527853766
	 H           4.9800470488       -2.9927628973        1.4501734381
	 H           1.8266889098       -3.8074564883        2.1073094082
	            -0.0000431315        0.0000655599       -0.0000201724
	             0.0005397153        0.0003429438        0.0019391207
	            -0.0000012686        0.0000359280       -0.0011320750
	            -0.0011886049       -0.0014676537       -0.0011359092
	             0.0000007408        0.0000088099       -0.0000202615
	             0.0000045658        0.0000023471       -0.0000110578
	             0.0000090463       -0.0000134263       -0.0000051827
	            -0.0000036251        0.0000030546        0.0000002372
	             0.0000101406       -0.0000026185        0.0000019547
	             0.0000030648       -0.0000000386        0.0000059365
	             0.0006816857        0.0010329381        0.0003775280
	            -0.0000084345        0.0000077703       -0.0000064351
	            -0.0000007709       -0.0000067354       -0.0000026919
	            -0.0000031238       -0.0000088793        0.0000090085

	---Fragment 1 Intrafragment Coordinates---
	 - Coordinate -           - BOHR/RAD -       - ANG/DEG -
	 R(1,2)           =         2.221893	       1.175775
	 R(2,3)           =         2.854361	       1.510463
	 R(2,4)           =         2.546149	       1.347364
	 R(3,5)           =         2.873526	       1.520605
	 R(3,6)           =         2.050366	       1.085007
	 R(3,7)           =         2.049745	       1.084678
	 R(4,11)          =         2.660302	       1.407771
	 R(5,8)           =         2.043504	       1.081376
	 R(5,9)           =         2.046939	       1.083193
	 R(5,10)          =         2.044216	       1.081753
	 R(11,12)         =         2.047342	       1.083407
	 R(11,13)         =         2.036745	       1.077799
	 R(11,14)         =         2.046617	       1.083023
	 B(1,2,3)         =         2.168196	     124.228497
	 B(1,2,4)         =         2.104678	     120.589161
	 B(2,3,5)         =         1.980803	     113.491648
	 B(2,3,6)         =         1.861443	     106.652847
	 B(2,3,7)         =         1.893925	     108.513919
	 B(2,4,11)        =         2.078782	     119.105416
	 B(3,2,4)         =         2.007759	     115.036142
	 B(3,5,8)         =         1.937451	     111.007793
	 B(3,5,9)         =         1.921692	     110.104840
	 B(3,5,10)        =         1.938428	     111.063732
	 B(4,11,12)       =         1.933934	     110.806237
	 B(4,11,13)       =         1.858343	     106.475210
	 B(4,11,14)       =         1.952933	     111.894809
	 B(5,3,6)         =         1.944176	     111.393073
	 B(5,3,7)         =         1.929697	     110.563513
	 B(6,3,7)         =         1.847562	     105.857495
	 B(8,5,9)         =         1.893482	     108.488540
	 B(8,5,10)        =         1.878650	     107.638688
	 B(9,5,10)        =         1.892655	     108.441133
	 B(12,11,13)      =         1.902490	     109.004643
	 B(12,11,14)      =         1.913690	     109.646386
	 B(13,11,14)      =         1.900890	     108.912999
	 D(1,2,3,5)       =        -0.002071	      -0.118683
	 D(1,2,3,6)       =         2.145291	     122.916123
	 D(1,2,3,7)       =        -2.154558	    -123.447053
	 D(1,2,4,11)      =         1.993399	     114.213361
	 D(2,3,5,8)       =         1.036155	      59.367306
	 D(2,3,5,9)       =         3.133213	     179.519878
	 D(2,3,5,10)      =        -1.053318	     -60.350704
	 D(2,4,11,12)     =        -0.932275	     -53.415440
	 D(2,4,11,13)     =        -2.998782	    -171.817565
	 D(2,4,11,14)     =         1.209366	      69.291584
	*D(3,2,4,11)      =        -1.221730	     -69.999969
	 D(4,2,3,5)       =        -3.067094	    -175.731568
	 D(4,2,3,6)       =        -0.919732	     -52.696762
	 D(4,2,3,7)       =         1.063605	      60.940062
	 D(6,3,5,8)       =        -1.065026	     -61.021497
	 D(6,3,5,9)       =         1.032032	      59.131076
	 D(6,3,5,10)      =         3.128686	     179.260493
	 D(7,3,5,8)       =        -3.114272	    -178.434641
	 D(7,3,5,9)       =        -1.017214	     -58.282068
	 D(7,3,5,10)      =         1.079440	      61.847350

	Current energy   :      -305.9675576740

	Energy change for the previous step:
		Projected    :         0.0000009487
		Actual       :        -0.0000007632

	Performing BFGS update.
	Previous computed or guess Hessian on step 1.
	Steps to be used in Hessian update: 6 5
	Taking RFO optimization step.
	Going to follow RFO solution 1.
	Rejecting RFO root 1 because normalization gives large value.
	Using RFO vector 2.
	Norm of target step-size    0.00510
	Projected energy change by RFO approximation:         0.0000004866

	Back-transformation to cartesian coordinates...
	Successfully converged to displaced geometry.

	Back-transformation to cartesian coordinates to adjust frozen coordinates...
	Successfully converged to displaced geometry.

	--- Internal Coordinate Step in ANG or DEG, aJ/ANG or AJ/DEG ---
	 ---------------------------------------------------------------------------
	   Coordinate                Previous        Force       Change         New 
	   ----------                --------       ------       ------       ------
	    1 R(1,2)          =      1.175775    -0.000529    -0.000062     1.175713
	    2 R(2,3)          =      1.510463     0.000308     0.000033     1.510496
	    3 R(2,4)          =      1.347364     0.001449     0.000304     1.347669
	    4 R(3,5)          =      1.520605     0.000021    -0.000006     1.520598
	    5 R(3,6)          =      1.085007    -0.000060    -0.000019     1.084988
	    6 R(3,7)          =      1.084678    -0.000026     0.000004     1.084682
	    7 R(4,11)         =      1.407771     0.000588     0.000087     1.407858
	    8 R(5,8)          =      1.081376    -0.000012     0.000004     1.081380
	    9 R(5,9)          =      1.083193     0.000056     0.000007     1.083201
	   10 R(5,10)         =      1.081753    -0.000037    -0.000007     1.081745
	   11 R(11,12)        =      1.083407     0.000007     0.000011     1.083418
	   12 R(11,13)        =      1.077799    -0.000018     0.000005     1.077804
	   13 R(11,14)        =      1.083023    -0.000083    -0.000011     1.083012
	   14 B(1,2,3)        =    124.228497     0.000003     0.016334   124.244831
	   15 B(1,2,4)        =    120.589161    -0.000005    -0.017160   120.572001
	   16 B(2,3,5)        =    113.491648     0.000001     0.000024   113.491672
	   17 B(2,3,6)        =    106.652847     0.000000     0.010018   106.662865
	   18 B(2,3,7)        =    108.513919    -0.000000    -0.007969   108.505950
	   19 B(2,4,11)       =    119.105416    -0.000003    -0.029064   119.076352
	   20 B(3,2,4)        =    115.036142     0.000003     0.001219   115.037361
	   21 B(3,5,8)        =    111.007793    -0.000001    -0.004822   111.002972
	   22 B(3,5,9)        =    110.104840     0.000001     0.003737   110.108577
	   23 B(3,5,10)       =    111.063732     0.000000     0.004622   111.068354
	   24 B(4,11,12)      =    110.806237     0.000002     0.012630   110.818867
	   25 B(4,11,13)      =    106.475210    -0.000000    -0.000569   106.474641
	   26 B(4,11,14)      =    111.894809    -0.000001    -0.010113   111.884696
	   27 B(5,3,6)        =    111.393073    -0.000000     0.004214   111.397287
	   28 B(5,3,7)        =    110.563513    -0.000001    -0.007872   110.555641
	   29 B(6,3,7)        =    105.857495     0.000000     0.002020   105.859516
	   30 B(8,5,9)        =    108.488540    -0.000000    -0.002463   108.486078
	   31 B(8,5,10)       =    107.638688    -0.000000    -0.001207   107.637481
	   32 B(9,5,10)       =    108.441133    -0.000000    -0.000038   108.441095
	   33 B(12,11,13)     =    109.004643    -0.000001    -0.006982   108.997661
	   34 B(12,11,14)     =    109.646386     0.000000     0.002356   109.648742
	   35 B(13,11,14)     =    108.912999     0.000000     0.002391   108.915390
	   36 D(1,2,3,5)      =     -0.118683     0.000000     0.099281    -0.019403
	   37 D(1,2,3,6)      =    122.916123     0.000000     0.111767   123.027890
	   38 D(1,2,3,7)      =   -123.447053     0.000000     0.115305  -123.331748
	   39 D(1,2,4,11)     =    114.213361    -0.000000    -0.006421   114.206939
	   40 D(2,3,5,8)      =     59.367306     0.000000     0.012518    59.379823
	   41 D(2,3,5,9)      =    179.519878     0.000000     0.008774   179.528652
	   42 D(2,3,5,10)     =    -60.350704     0.000000     0.014174   -60.336530
	   43 D(2,4,11,12)    =    -53.415440    -0.000000     0.064849   -53.350591
	   44 D(2,4,11,13)    =   -171.817565     0.000000     0.066716  -171.750849
	   45 D(2,4,11,14)    =     69.291584     0.000000     0.069825    69.361409
	   46 *D(3,2,4,11)    =    -69.999969     0.000000    -0.000000   -69.999969
	   47 D(4,2,3,5)      =   -175.731568    -0.000000     0.094222  -175.637346
	   48 D(4,2,3,6)      =    -52.696762     0.000000     0.106708   -52.590054
	   49 D(4,2,3,7)      =     60.940062     0.000000     0.110246    61.050308
	   50 D(6,3,5,8)      =    -61.021497    -0.000000    -0.003622   -61.025119
	   51 D(6,3,5,9)      =     59.131076    -0.000000    -0.007366    59.123710
	   52 D(6,3,5,10)     =    179.260493    -0.000000    -0.001966   179.258527
	   53 D(7,3,5,8)      =   -178.434641    -0.000000    -0.003764  -178.438405
	   54 D(7,3,5,9)      =    -58.282068    -0.000000    -0.007508   -58.289576
	   55 D(7,3,5,10)     =     61.847350     0.000000    -0.002108    61.845242
	 ---------------------------------------------------------------------------

  ==> Convergence Check <==

  Measures of convergence in internal coordinates in au.
  Criteria marked as inactive (o), active & met (*), and active & unmet ( ).
  ---------------------------------------------------------------------------------------------
   Step     Total Energy     Delta E     MAX Force     RMS Force      MAX Disp      RMS Disp   
  ---------------------------------------------------------------------------------------------
    Convergence Criteria    1.00e-06 *    3.00e-04 *             o    1.20e-03 *             o
  ---------------------------------------------------------------------------------------------
      7    -305.96755767   -7.63e-07 *    1.76e-04 *    3.10e-05 o    2.01e-03      6.88e-04 o  ~
  ---------------------------------------------------------------------------------------------


  **** Optimization is complete! (in 7 steps) ****

  ==> Optimization Summary <==

  Measures of convergence in internal coordinates in au.
  --------------------------------------------------------------------------------------------------------------- ~
   Step         Total Energy             Delta E       MAX Force       RMS Force        MAX Disp        RMS Disp  ~
  --------------------------------------------------------------------------------------------------------------- ~
      1    -305.964371045624   -305.964371045624      0.02860375      0.00710519      0.17649092      0.05062762  ~
      2    -305.966165367416     -0.001794321793      0.01267254      0.00311967      0.06980197      0.01685282  ~
      3    -305.967380237498     -0.001214870081      0.00445313      0.00108260      0.05658205      0.01502077  ~
      4    -305.967477140984     -0.000096903486      0.00277515      0.00073055      0.04178852      0.01379660  ~
      5    -305.967468665851      0.000008475133      0.00388100      0.00096951      0.02285901      0.00707392  ~
      6    -305.967556910765     -0.000088244914      0.00060618      0.00008830      0.00438881      0.00128738  ~
      7    -305.967557674008     -0.000000763243      0.00017592      0.00003104      0.00201245      0.00068816  ~
  --------------------------------------------------------------------------------------------------------------- ~

	Writing optimization data to binary file.
	Final energy is   -305.9675576740083
	Final (previous) structure:
	Cartesian Geometry (in Angstrom)
	    O     0.2381067500   1.4740105789  -0.2314648343
	    C     0.1784309647   0.3011932105  -0.1732815208
	    C    -1.1113388283  -0.4849316780  -0.1729069644
	    O     1.3005688226  -0.4443053460  -0.1939937757
	    C    -2.3535345130   0.3884279429  -0.2531046358
	    H    -1.0564460690  -1.1728188071  -1.0101873978
	    H    -1.1373900890  -1.1035421718   0.7176938042
	    H    -2.3480838432   0.9885448156  -1.1526622379
	    H    -3.2433232423  -0.2292802097  -0.2576599726
	    H    -2.4096216092   1.0630524842   0.5906515273
	    C     1.6484232357  -1.1900420994   0.9482379846
	    H     1.6766104075  -0.5571791238   1.8271354670
	    H     2.6353275972  -1.5837020369   0.7673987906
	    H     0.9666422121  -2.0148193502   1.1151401954
	Saving final (previous) structure.
			--------------------------
			 OPTKING Finished Execution 
			--------------------------

    Final optimized geometry and variables:
    Molecular point group: c1
    Full point group: C1

    Geometry (in Angstrom), charge = 0, multiplicity = 1:

    O            0.238106731824     1.474010466383    -0.231464816601
    C            0.178430951101     0.301193187455    -0.173281507593
    C           -1.111338743437    -0.484931640919    -0.172906951171
    O            1.300568723324    -0.444305312068    -0.193993760860
    C           -2.353534333244     0.388427913281    -0.253104616457
    H           -1.056445988349    -1.172818717570    -1.010187320660
    H           -1.137390002159    -1.103542087514     0.717693749408
    H           -2.348083663919     0.988544740156    -1.152662149916
    H           -3.243322994613    -0.229280192208    -0.257659952946
    H           -2.409621425192     1.063052403068     0.590651482146
    C            1.648423109775    -1.190042008485     0.948237912226
    H            1.676610279427    -0.557179081234     1.827135327430
    H            2.635327395917    -1.583701915977     0.767398731954
    H            0.966642138257    -2.014819196293     1.115140110289

	Cleaning optimization helper files.


Properties will be evaluated at   0.000000,   0.000000,   0.000000 Bohr

Properties computed using the  density matrix

  Nuclear Dipole Moment: (a.u.)
     X:    -4.6015      Y:    -4.3165      Z:     2.4330

  Electronic Dipole Moment: (a.u.)
     X:     4.2395      Y:     2.9974      Z:    -1.8419

  Dipole Moment: (a.u.)
     X:    -0.3620      Y:    -1.3192      Z:     0.5911     Total:     1.4902

  Dipole Moment: (Debye)
     X:    -0.9201      Y:    -3.3530      Z:     1.5025     Total:     3.7877

  Quadrupole Moment: (Debye Ang)
    XX:   -35.2159     YY:   -39.8338     ZZ:   -34.8989
    XY:    -2.0945     XZ:     2.8280     YZ:    -0.6665

  Traceless Quadrupole Moment: (Debye Ang)
    XX:     1.4336     YY:    -3.1842     ZZ:     1.7506
    XY:    -2.0945     XZ:     2.8280     YZ:    -0.6665

  Mulliken Charges: (a.u.)
   Center  Symbol    Alpha    Beta     Spin     Total
       1     O     4.16663  4.16663  0.00000 -0.33326
       2     C     2.79536  2.79536  0.00000  0.40928
       3     C     3.11224  3.11224  0.00000 -0.22448
       4     O     4.15760  4.15760  0.00000 -0.31519
       5     C     3.13864  3.13864  0.00000 -0.27729
       6     H     0.43775  0.43775  0.00000  0.12450
       7     H     0.44742  0.44742  0.00000  0.10515
       8     H     0.44539  0.44539  0.00000  0.10922
       9     H     0.45091  0.45091  0.00000  0.09819
      10     H     0.44817  0.44817  0.00000  0.10365
      11     C     3.04068  3.04068  0.00000 -0.08136
      12     H     0.45823  0.45823  0.00000  0.08355
      13     H     0.43846  0.43846  0.00000  0.12309
      14     H     0.46253  0.46253  0.00000  0.07495

   Total alpha = 24.00000, Total beta = 24.00000, Total charge = -0.00000


*** PSI4 exiting successfully. Buy a developer a beer!
