    -----------------------------------------------------------------------
          Psi4: An Open-Source Ab Initio Electronic Structure Package
                              Psi4 (no tag) Driver

                          Git: Rev {detached?}  

    J. M. Turney, A. C. Simmonett, R. M. Parrish, E. G. Hohenstein,
    F. A. Evangelista, J. T. Fermann, B. J. Mintz, L. A. Burns, J. J. Wilke,
    M. L. Abrams, N. J. Russ, M. L. Leininger, C. L. Janssen, E. T. Seidl,
    W. D. Allen, H. F. Schaefer, R. A. King, E. F. Valeev, C. D. Sherrill,
    and T. D. Crawford, WIREs Comput. Mol. Sci. 2, 556-565 (2012)
    (doi: 10.1002/wcms.93)

                         Additional Contributions by
    A. E. DePrince, M. Saitow, U. Bozkaya, A. Yu. Sokolov
    -----------------------------------------------------------------------


    Psi4 started on: Fri Sep  9 20:13:57 2016

    Process ID:  19775
    PSI4DATADIR: /export131/home/mjharvey/miniconda3/share
    Memory level set to 256.000 MB

  ==> Input File <==

--------------------------------------------------------------------------
set {
	reference rhf
	basis cc-pvtz
}


set_num_threads( 4 )
memory 2 gb

molecule MOL {
0 1

H	 -3.569000	 -0.146000	 -0.000000
O	 -2.784000	 -0.686000	 -0.000000
C	 -1.726000	 0.124000	 0.000000
C	 -0.432000	 -0.649000	 0.000000
O	 -1.835000	 1.307000	 0.000000
C	 0.806000	 0.242000	 0.000000
H	 -0.448000	 -1.304000	 -0.867000
H	 -0.448000	 -1.304000	 0.867000
C	 2.103000	 -0.568000	 0.000000
H	 0.778000	 0.894000	 -0.867000
H	 0.778000	 0.894000	 0.868000
C	 3.350000	 0.317000	 -0.000000
H	 2.124000	 -1.220000	 -0.870000
H	 2.125000	 -1.220000	 0.871000
H	 3.375000	 0.957000	 -0.878000
H	 4.255000	 -0.282000	 0.000000
H	 3.375000	 0.958000	 0.876000

	symmetry c1
}
ee = optimize('scf')
oeprop('DIPOLE', 'QUADRUPOLE', 'MULLIKEN_CHARGES')
f=open( 'psi4out.xyz', 'w' )
f.write( "17  " )
f.write( str(ee) + "\n" )
f.write( MOL.save_string_xyz() )
f.close()
--------------------------------------------------------------------------

  Memory set to   2.000 GiB by Python script.
gradient() will perform analytic gradient computation.

*** tstart() called on cx1-27-2-3
*** at Fri Sep  9 20:13:57 2016


         ---------------------------------------------------------
                                   SCF
            by Justin Turney, Rob Parrish, and Andy Simmonett
                              RHF Reference
                        4 Threads,   2000 MiB Core
         ---------------------------------------------------------

  ==> Geometry <==

    Molecular point group: c1
    Full point group: C1

    Geometry (in Angstrom), charge = 0, multiplicity = 1:

       Center              X                  Y                   Z               Mass       
    ------------   -----------------  -----------------  -----------------  -----------------
           H         -3.449208281967    -0.163027538917    -0.000000000000     1.007825032070
           O         -2.664208281967    -0.703027538917    -0.000000000000    15.994914619560
           C         -1.606208281967     0.106972461083    -0.000000000000    12.000000000000
           C         -0.312208281967    -0.666027538917    -0.000000000000    12.000000000000
           O         -1.715208281967     1.289972461083    -0.000000000000    15.994914619560
           C          0.925791718033     0.224972461083    -0.000000000000    12.000000000000
           H         -0.328208281967    -1.321027538917    -0.867000000000     1.007825032070
           H         -0.328208281967    -1.321027538917     0.867000000000     1.007825032070
           C          2.222791718033    -0.585027538917    -0.000000000000    12.000000000000
           H          0.897791718033     0.876972461083    -0.867000000000     1.007825032070
           H          0.897791718033     0.876972461083     0.868000000000     1.007825032070
           C          3.469791718033     0.299972461083    -0.000000000000    12.000000000000
           H          2.243791718033    -1.237027538917    -0.870000000000     1.007825032070
           H          2.244791718033    -1.237027538917     0.871000000000     1.007825032070
           H          3.494791718033     0.939972461083    -0.878000000000     1.007825032070
           H          4.374791718033    -0.299027538917    -0.000000000000     1.007825032070
           H          3.494791718033     0.940972461083     0.876000000000     1.007825032070

  Running in c1 symmetry.

  Rotational constants: A =      0.27226  B =      0.03506  C =      0.03178 [cm^-1]
  Rotational constants: A =   8162.06939  B =   1051.15265  C =    952.67514 [MHz]
  Nuclear repulsion =  304.190575862619710

  Charge       = 0
  Multiplicity = 1
  Electrons    = 56
  Nalpha       = 28
  Nbeta        = 28

  ==> Algorithm <==

  SCF Algorithm Type is DF.
  DIIS enabled.
  MOM disabled.
  Fractional occupation disabled.
  Guess Type is CORE.
  Energy threshold   = 1.00e-08
  Density threshold  = 1.00e-08
  Integral threshold = 0.00e+00

  ==> Primary Basis <==

  Basis Set: CC-PVTZ
    Number of shells: 130
    Number of basis function: 350
    Number of Cartesian functions: 395
    Spherical Harmonics?: true
    Max angular momentum: 3

  ==> Pre-Iterations <==

   -------------------------------------------------------
    Irrep   Nso     Nmo     Nalpha   Nbeta   Ndocc  Nsocc
   -------------------------------------------------------
     A        350     350       0       0       0       0
   -------------------------------------------------------
    Total     350     350      28      28      28       0
   -------------------------------------------------------

 OEINTS: Overlap, kinetic, potential, dipole, and quadrupole integrals
         stored in file 35.

  ==> Integral Setup <==

  ==> DFJK: Density-Fitted J/K Matrices <==

    J tasked:                  Yes
    K tasked:                  Yes
    wK tasked:                  No
    OpenMP threads:              4
    Integrals threads:           4
    Memory (MB):              1430
    Algorithm:                Core
    Integral Cache:           NONE
    Schwarz Cutoff:          1E-12
    Fitting Condition:       1E-12

   => Auxiliary Basis Set <=

  Basis Set: 
    Number of shells: 275
    Number of basis function: 853
    Number of Cartesian functions: 1022
    Spherical Harmonics?: true
    Max angular momentum: 4

  Minimum eigenvalue in the overlap matrix is 2.9064106796E-04.
  Using Symmetric Orthogonalization.
  SCF Guess: Core (One-Electron) Hamiltonian.

  ==> Iterations <==

                           Total Energy        Delta E     RMS |[F,P]|

   @DF-RHF iter   1:  -234.36981807997796   -2.34370e+02   4.40070e-02 
   @DF-RHF iter   2:  -104.01317421118068    1.30357e+02   4.55127e-02 DIIS
   @DF-RHF iter   3:  -270.23710863973469   -1.66224e+02   2.15709e-02 DIIS
   @DF-RHF iter   4:  -191.88076503521705    7.83563e+01   3.26611e-02 DIIS
   @DF-RHF iter   5:  -314.19548439927479   -1.22315e+02   1.36533e-02 DIIS
   @DF-RHF iter   6:  -324.83571772352963   -1.06402e+01   1.63373e-02 DIIS
   @DF-RHF iter   7:  -329.90550354201918   -5.06979e+00   1.19336e-02 DIIS
   @DF-RHF iter   8:  -343.88323301493205   -1.39777e+01   4.76808e-03 DIIS
   @DF-RHF iter   9:  -344.88464351901467   -1.00141e+00   1.51478e-03 DIIS
   @DF-RHF iter  10:  -344.99833503398742   -1.13692e-01   8.53673e-04 DIIS
   @DF-RHF iter  11:  -345.04102015525217   -4.26851e-02   2.91148e-04 DIIS
   @DF-RHF iter  12:  -345.04749550439266   -6.47535e-03   1.25647e-04 DIIS
   @DF-RHF iter  13:  -345.04853647291526   -1.04097e-03   5.58713e-05 DIIS
   @DF-RHF iter  14:  -345.04873858594254   -2.02113e-04   1.12147e-05 DIIS
   @DF-RHF iter  15:  -345.04875230349256   -1.37176e-05   3.15387e-06 DIIS
   @DF-RHF iter  16:  -345.04875329263967   -9.89147e-07   8.40900e-07 DIIS
   @DF-RHF iter  17:  -345.04875340053746   -1.07898e-07   2.88877e-07 DIIS
   @DF-RHF iter  18:  -345.04875341472069   -1.41832e-08   9.45474e-08 DIIS
   @DF-RHF iter  19:  -345.04875341632857   -1.60787e-09   3.26525e-08 DIIS
   @DF-RHF iter  20:  -345.04875341650876   -1.80194e-10   9.38741e-09 DIIS

  ==> Post-Iterations <==

    Orbital Energies (a.u.)
    -----------------------

    Doubly Occupied:                                                      

       1A    -20.605588     2A    -20.541334     3A    -11.375435  
       4A    -11.240833     5A    -11.222333     6A    -11.221700  
       7A    -11.211655     8A     -1.474825     9A     -1.366464  
      10A     -1.091449    11A     -1.018543    12A     -0.913561  
      13A     -0.823632    14A     -0.790193    15A     -0.703272  
      16A     -0.686786    17A     -0.670998    18A     -0.630209  
      19A     -0.592521    20A     -0.584281    21A     -0.574214  
      22A     -0.538125    23A     -0.509268    24A     -0.483806  
      25A     -0.482192    26A     -0.478107    27A     -0.472885  
      28A     -0.446495  

    Virtual:                                                              

      29A      0.136521    30A      0.149739    31A      0.166086  
      32A      0.167051    33A      0.182895    34A      0.194906  
      35A      0.216493    36A      0.230253    37A      0.234723  
      38A      0.243051    39A      0.274007    40A      0.301924  
      41A      0.330156    42A      0.354496    43A      0.358878  
      44A      0.377189    45A      0.398565    46A      0.404023  
      47A      0.434198    48A      0.444664    49A      0.455670  
      50A      0.470437    51A      0.494572    52A      0.498989  
      53A      0.510228    54A      0.558646    55A      0.566355  
      56A      0.583674    57A      0.597047    58A      0.621451  
      59A      0.622451    60A      0.630502    61A      0.637128  
      62A      0.642942    63A      0.656390    64A      0.657771  
      65A      0.675513    66A      0.676131    67A      0.680278  
      68A      0.694128    69A      0.712592    70A      0.723545  
      71A      0.757638    72A      0.781663    73A      0.786710  
      74A      0.809497    75A      0.815234    76A      0.836835  
      77A      0.857111    78A      0.881037    79A      0.898882  
      80A      0.917522    81A      0.930763    82A      0.932042  
      83A      0.948489    84A      0.969373    85A      0.980799  
      86A      1.004782    87A      1.018018    88A      1.045241  
      89A      1.088984    90A      1.113405    91A      1.119339  
      92A      1.139761    93A      1.166522    94A      1.173585  
      95A      1.227781    96A      1.228404    97A      1.258396  
      98A      1.260896    99A      1.272059   100A      1.298887  
     101A      1.306629   102A      1.326274   103A      1.332886  
     104A      1.335475   105A      1.341377   106A      1.370924  
     107A      1.385971   108A      1.397659   109A      1.404245  
     110A      1.405002   111A      1.424695   112A      1.472649  
     113A      1.474436   114A      1.491564   115A      1.493010  
     116A      1.513983   117A      1.541661   118A      1.546935  
     119A      1.561424   120A      1.586903   121A      1.589992  
     122A      1.611344   123A      1.618651   124A      1.631748  
     125A      1.647993   126A      1.677676   127A      1.712055  
     128A      1.749127   129A      1.756199   130A      1.791348  
     131A      1.794586   132A      1.798245   133A      1.830643  
     134A      1.838596   135A      1.872874   136A      1.899963  
     137A      1.925771   138A      1.997470   139A      2.013935  
     140A      2.038004   141A      2.058585   142A      2.250542  
     143A      2.283893   144A      2.330782   145A      2.331775  
     146A      2.376737   147A      2.466726   148A      2.475304  
     149A      2.528596   150A      2.557100   151A      2.601079  
     152A      2.648257   153A      2.662539   154A      2.694156  
     155A      2.707995   156A      2.714665   157A      2.737717  
     158A      2.782927   159A      2.799377   160A      2.810095  
     161A      2.817725   162A      2.885451   163A      2.894470  
     164A      2.913843   165A      2.916313   166A      2.943033  
     167A      2.951247   168A      2.960039   169A      2.968010  
     170A      2.994544   171A      3.027100   172A      3.032799  
     173A      3.055047   174A      3.106557   175A      3.112575  
     176A      3.140368   177A      3.166691   178A      3.180715  
     179A      3.217803   180A      3.238343   181A      3.251930  
     182A      3.257921   183A      3.275161   184A      3.279639  
     185A      3.322784   186A      3.329177   187A      3.342459  
     188A      3.362637   189A      3.390672   190A      3.400944  
     191A      3.410867   192A      3.412276   193A      3.429856  
     194A      3.434706   195A      3.439783   196A      3.448521  
     197A      3.458186   198A      3.466441   199A      3.491981  
     200A      3.496839   201A      3.528548   202A      3.544877  
     203A      3.559450   204A      3.571543   205A      3.594717  
     206A      3.599946   207A      3.620363   208A      3.632814  
     209A      3.655668   210A      3.684344   211A      3.728608  
     212A      3.731605   213A      3.749301   214A      3.780655  
     215A      3.783951   216A      3.802900   217A      3.826239  
     218A      3.829118   219A      3.854012   220A      3.873404  
     221A      3.886545   222A      3.899851   223A      3.929938  
     224A      3.937654   225A      3.976113   226A      3.986286  
     227A      3.996265   228A      4.014878   229A      4.029648  
     230A      4.058968   231A      4.080737   232A      4.122612  
     233A      4.133793   234A      4.147949   235A      4.157444  
     236A      4.162919   237A      4.180427   238A      4.186660  
     239A      4.204827   240A      4.206223   241A      4.209938  
     242A      4.230637   243A      4.247088   244A      4.260574  
     245A      4.267773   246A      4.284564   247A      4.327172  
     248A      4.365281   249A      4.387114   250A      4.393301  
     251A      4.399778   252A      4.411637   253A      4.441756  
     254A      4.448617   255A      4.455091   256A      4.488940  
     257A      4.537845   258A      4.549550   259A      4.571261  
     260A      4.578635   261A      4.600397   262A      4.612525  
     263A      4.627793   264A      4.632231   265A      4.634393  
     266A      4.671885   267A      4.672814   268A      4.700618  
     269A      4.718732   270A      4.741564   271A      4.771483  
     272A      4.779273   273A      4.800662   274A      4.827691  
     275A      4.917222   276A      4.966243   277A      4.999147  
     278A      5.010595   279A      5.040182   280A      5.070892  
     281A      5.077168   282A      5.120013   283A      5.159740  
     284A      5.211151   285A      5.216667   286A      5.240954  
     287A      5.249375   288A      5.250109   289A      5.310721  
     290A      5.335533   291A      5.359272   292A      5.375398  
     293A      5.398667   294A      5.398870   295A      5.443820  
     296A      5.462644   297A      5.514594   298A      5.521271  
     299A      5.604065   300A      5.620502   301A      5.635722  
     302A      5.653501   303A      5.696452   304A      5.737262  
     305A      5.739535   306A      5.750145   307A      5.793060  
     308A      5.809582   309A      5.861509   310A      5.863547  
     311A      5.881748   312A      5.897404   313A      5.898510  
     314A      5.924936   315A      5.927577   316A      6.015546  
     317A      6.028991   318A      6.044325   319A      6.070783  
     320A      6.254429   321A      6.276907   322A      6.323850  
     323A      6.328635   324A      6.375427   325A      6.450238  
     326A      6.495311   327A      6.625253   328A      6.783584  
     329A      6.788265   330A      6.872535   331A      6.984194  
     332A      7.024693   333A      7.030002   334A      7.084580  
     335A      7.211807   336A      7.278356   337A      7.304256  
     338A      7.404270   339A      7.470791   340A      7.595066  
     341A      7.744155   342A      7.829171   343A      8.005324  
     344A      9.902914   345A     13.079605   346A     13.340902  
     347A     13.444038   348A     13.955959   349A     14.203281  
     350A     14.274374  

    Final Occupation by Irrep:
              A 
    DOCC [    28 ]

  Energy converged.

  @DF-RHF Final Energy:  -345.04875341650876

   => Energetics <=

    Nuclear Repulsion Energy =            304.1905758626197098
    One-Electron Energy =               -1072.9772451518751950
    Two-Electron Energy =                 423.7379158727463846
    DFT Exchange-Correlation Energy =       0.0000000000000000
    Empirical Dispersion Energy =           0.0000000000000000
    PCM Polarization Energy =               0.0000000000000000
    EFP Energy =                            0.0000000000000000
    Total Energy =                       -345.0487534165091574

    Alert: EFP and PCM quantities not currently incorporated into SCF psivars.

Properties will be evaluated at   0.000000,   0.000000,   0.000000 Bohr
  ==> Properties <==


Properties computed using the SCF density matrix

  Nuclear Dipole Moment: (a.u.)
     X:    12.6750      Y:    -1.8189      Z:     0.0000

  Electronic Dipole Moment: (a.u.)
     X:   -12.5569      Y:     1.1346      Z:    -0.0001

  Dipole Moment: (a.u.)
     X:     0.1181      Y:    -0.6843      Z:    -0.0001     Total:     0.6945

  Dipole Moment: (Debye)
     X:     0.3002      Y:    -1.7394      Z:    -0.0003     Total:     1.7651


  Saving occupied orbitals to File 180.

*** tstop() called on cx1-27-2-3 at Fri Sep  9 20:14:16 2016
Module time:
	user time   =      60.11 seconds =       1.00 minutes
	system time =       0.91 seconds =       0.02 minutes
	total time  =         19 seconds =       0.32 minutes
Total time:
	user time   =      60.11 seconds =       1.00 minutes
	system time =       0.91 seconds =       0.02 minutes
	total time  =         19 seconds =       0.32 minutes

*** tstart() called on cx1-27-2-3
*** at Fri Sep  9 20:14:16 2016


         ------------------------------------------------------------
                                   SCF GRAD                          
                          Rob Parrish, Justin Turney,                
                       Andy Simmonett, and Alex Sokolov              
         ------------------------------------------------------------

  ==> Geometry <==

    Molecular point group: c1
    Full point group: C1

    Geometry (in Angstrom), charge = 0, multiplicity = 1:

       Center              X                  Y                   Z               Mass       
    ------------   -----------------  -----------------  -----------------  -----------------
           H         -3.449208281967    -0.163027538917    -0.000000000000     1.007825032070
           O         -2.664208281967    -0.703027538917    -0.000000000000    15.994914619560
           C         -1.606208281967     0.106972461083    -0.000000000000    12.000000000000
           C         -0.312208281967    -0.666027538917    -0.000000000000    12.000000000000
           O         -1.715208281967     1.289972461083    -0.000000000000    15.994914619560
           C          0.925791718033     0.224972461083    -0.000000000000    12.000000000000
           H         -0.328208281967    -1.321027538917    -0.867000000000     1.007825032070
           H         -0.328208281967    -1.321027538917     0.867000000000     1.007825032070
           C          2.222791718033    -0.585027538917    -0.000000000000    12.000000000000
           H          0.897791718033     0.876972461083    -0.867000000000     1.007825032070
           H          0.897791718033     0.876972461083     0.868000000000     1.007825032070
           C          3.469791718033     0.299972461083    -0.000000000000    12.000000000000
           H          2.243791718033    -1.237027538917    -0.870000000000     1.007825032070
           H          2.244791718033    -1.237027538917     0.871000000000     1.007825032070
           H          3.494791718033     0.939972461083    -0.878000000000     1.007825032070
           H          4.374791718033    -0.299027538917    -0.000000000000     1.007825032070
           H          3.494791718033     0.940972461083     0.876000000000     1.007825032070

  Nuclear repulsion =  304.190575862619710

  ==> Basis Set <==

  Basis Set: CC-PVTZ
    Number of shells: 130
    Number of basis function: 350
    Number of Cartesian functions: 395
    Spherical Harmonics?: true
    Max angular momentum: 3

  ==> DFJKGrad: Density-Fitted SCF Gradients <==

    Gradient:                    1
    J tasked:                  Yes
    K tasked:                  Yes
    wK tasked:                  No
    OpenMP threads:              4
    Integrals threads:           4
    Memory (MB):              1430
    Schwarz Cutoff:          0E+00
    Fitting Condition:       1E-12

   => Auxiliary Basis Set <=

  Basis Set: 
    Number of shells: 275
    Number of basis function: 853
    Number of Cartesian functions: 1022
    Spherical Harmonics?: true
    Max angular momentum: 4


  -Total Gradient:
     Atom            X                  Y                   Z
    ------   -----------------  -----------------  -----------------
       1       -0.006363223290     0.004938170168    -0.000000122286
       2        0.004390418051    -0.007686090858    -0.000000217845
       3        0.001613240624    -0.006727494324     0.000001188460
       4       -0.000435288566    -0.001893459988     0.000000226211
       5       -0.000714328429     0.011334905542     0.000001466952
       6       -0.000222898092     0.001526966605    -0.000497583393
       7        0.000186608980    -0.000813220635    -0.000867517308
       8        0.000182761052    -0.000816340240     0.000873871974
       9       -0.000598469438    -0.002024729954    -0.000482981609
      10       -0.000072840946     0.000634276456    -0.000575185111
      11       -0.000073194035     0.000930053739     0.001010875485
      12        0.000873940472     0.000804337070     0.000704814304
      13        0.000022944391    -0.000380756528    -0.000401548191
      14        0.000172607257    -0.000676605416     0.000829681713
      15        0.000068490294     0.000907409929    -0.001193051262
      16        0.000884991713    -0.000642474128    -0.000036109338
      17        0.000084239959     0.000585052564     0.000632191245


*** tstop() called on cx1-27-2-3 at Fri Sep  9 20:14:42 2016
Module time:
	user time   =      98.08 seconds =       1.63 minutes
	system time =       0.64 seconds =       0.01 minutes
	total time  =         26 seconds =       0.43 minutes
Total time:
	user time   =     158.22 seconds =       2.64 minutes
	system time =       1.55 seconds =       0.03 minutes
	total time  =         45 seconds =       0.75 minutes
CURRENT ENERGY: -345.0487534165

			-----------------------------------------
			 OPTKING 2.0: for geometry optimizations 
			  - R.A. King,  Bethel University        
			-----------------------------------------

	Internal coordinates to be generated automatically.
	Detected frag with atoms:  1 2 3 4 5 6 7 8 9 10 11 12 13 14 15 16 17
	---Fragment 1 Bond Connectivity---
	 1 : 2
	 2 : 1 3
	 3 : 2 4 5
	 4 : 3 6 7 8
	 5 : 3
	 6 : 4 9 10 11
	 7 : 4
	 8 : 4
	 9 : 6 12 13 14
	 10 : 6
	 11 : 6
	 12 : 9 15 16 17
	 13 : 9
	 14 : 9
	 15 : 12
	 16 : 12
	 17 : 12

	---Fragment 1 Geometry and Gradient---
	 H          -6.5180590282       -0.3080774007       -0.0000000000
	 O          -5.0346240139       -1.3285295124       -0.0000000000
	 C          -3.0352937653        0.2021486552       -0.0000000000
	 C          -0.5899881493       -1.2586096455       -0.0000000000
	 O          -3.2412739138        2.4376946704       -0.0000000000
	 C           1.7494928032        0.4251363389       -0.0000000000
	 H          -0.6202237675       -2.4963802626       -1.6383925572
	 H          -0.6202237675       -2.4963802626        1.6383925572
	 C           4.2004675975       -1.1055418287       -0.0000000000
	 H           1.6965804715        1.6572377775       -1.6383925572
	 H           1.6965804715        1.6572377775        1.6402822833
	 C           6.5569560852        0.5668657989       -0.0000000000
	 H           4.2401518463       -2.3376432674       -1.6440617356
	 H           4.2420415725       -2.3376432674        1.6459514617
	 H           6.6041992386        1.7762905239       -1.6591795447
	 H           8.2671582355       -0.5650801547       -0.0000000000
	 H           6.6041992386        1.7781802500        1.6554000924
	            -0.0063632233        0.0049381702       -0.0000001223
	             0.0043904181       -0.0076860909       -0.0000002178
	             0.0016132406       -0.0067274943        0.0000011885
	            -0.0004352886       -0.0018934600        0.0000002262
	            -0.0007143284        0.0113349055        0.0000014670
	            -0.0002228981        0.0015269666       -0.0004975834
	             0.0001866090       -0.0008132206       -0.0008675173
	             0.0001827611       -0.0008163402        0.0008738720
	            -0.0005984694       -0.0020247300       -0.0004829816
	            -0.0000728409        0.0006342765       -0.0005751851
	            -0.0000731940        0.0009300537        0.0010108755
	             0.0008739405        0.0008043371        0.0007048143
	             0.0000229444       -0.0003807565       -0.0004015482
	             0.0001726073       -0.0006766054        0.0008296817
	             0.0000684903        0.0009074099       -0.0011930513
	             0.0008849917       -0.0006424741       -0.0000361093
	             0.0000842400        0.0005850526        0.0006321912

	Previous optimization step data not found.  Starting new optimization.

	---Fragment 1 Intrafragment Coordinates---
	 - Coordinate -           - BOHR/RAD -       - ANG/DEG -
	 R(1,2)           =         1.800528	       0.952799
	 R(2,3)           =         2.517995	       1.332465
	 R(3,4)           =         2.848392	       1.507304
	 R(3,5)           =         2.245015	       1.188011
	 R(4,6)           =         2.882390	       1.525295
	 R(4,7)           =         2.053612	       1.086725
	 R(4,8)           =         2.053612	       1.086725
	 R(6,9)           =         2.889680	       1.529153
	 R(6,10)          =         2.050659	       1.085162
	 R(6,11)          =         2.052169	       1.085961
	 R(9,12)          =         2.889634	       1.529129
	 R(9,13)          =         2.054894	       1.087403
	 R(9,14)          =         2.056443	       1.088223
	 R(12,15)         =         2.053732	       1.086788
	 R(12,16)         =         2.050876	       1.085277
	 R(12,17)         =         2.051795	       1.085763
	 B(1,2,3)         =         1.885627	     108.038487
	 B(2,3,4)         =         1.949700	     111.709562
	 B(2,3,5)         =         2.132325	     122.173214
	 B(3,4,6)         =         1.979276	     113.404154
	 B(3,4,7)         =         1.871782	     107.245195
	 B(3,4,8)         =         1.871782	     107.245195
	 B(4,3,5)         =         2.201161	     126.117224
	 B(4,6,9)         =         1.959508	     112.271562
	 B(4,6,10)        =         1.907135	     109.270773
	 B(4,6,11)        =         1.906877	     109.256032
	 B(6,4,7)         =         1.943391	     111.348116
	 B(6,4,8)         =         1.943391	     111.348116
	 B(6,9,12)        =         1.966131	     112.651028
	 B(6,9,13)        =         1.911328	     109.511009
	 B(6,9,14)        =         1.911888	     109.543092
	 B(7,4,8)         =         1.847309	     105.843023
	 B(9,6,10)        =         1.917872	     109.885947
	 B(9,6,11)        =         1.917605	     109.870697
	 B(9,12,15)       =         1.938621	     111.074807
	 B(9,12,16)       =         1.939704	     111.136836
	 B(9,12,17)       =         1.939556	     111.128393
	 B(10,6,11)       =         1.851678	     106.093328
	 B(12,9,13)       =         1.908448	     109.346034
	 B(12,9,14)       =         1.907390	     109.285381
	 B(13,9,14)       =         1.855356	     106.304076
	 B(15,12,16)      =         1.881623	     107.809065
	 B(15,12,17)      =         1.879280	     107.674799
	 B(16,12,17)      =         1.882460	     107.857040
	 D(1,2,3,4)       =         3.141593	     180.000000
	 D(1,2,3,5)       =         0.000000	       0.000000
	 D(2,3,4,6)       =         3.141593	     180.000000
	 D(2,3,4,7)       =         0.988795	      56.653791
	 D(2,3,4,8)       =        -0.988795	     -56.653791
	 D(3,4,6,9)       =         3.141593	     180.000000
	 D(3,4,6,10)      =        -1.009155	     -57.820329
	 D(3,4,6,11)      =         1.009675	      57.850093
	 D(4,6,9,12)      =         3.141593	     180.000000
	 D(4,6,9,13)      =         1.013735	      58.082748
	 D(4,6,9,14)      =        -1.014689	     -58.137406
	 D(5,3,4,6)       =         0.000000	       0.000000
	 D(5,3,4,7)       =        -2.152797	    -123.346209
	 D(5,3,4,8)       =         2.152797	     123.346209
	 D(6,9,12,15)     =        -1.046740	     -59.973791
	 D(6,9,12,16)     =         3.141593	     180.000000
	 D(6,9,12,17)     =         1.045055	      59.877229
	 D(7,4,6,9)       =        -1.028613	     -58.935187
	 D(7,4,6,10)      =         1.103824	      63.244484
	 D(7,4,6,11)      =         3.122654	     178.914906
	 D(8,4,6,9)       =         1.028613	      58.935187
	 D(8,4,6,10)      =        -3.122135	    -178.885142
	 D(8,4,6,11)      =        -1.103305	     -63.214720
	 D(10,6,9,12)     =         1.015265	      58.170409
	 D(10,6,9,13)     =        -1.112592	     -63.746843
	 D(10,6,9,14)     =        -3.141017	    -179.966997
	 D(11,6,9,12)     =        -1.015782	     -58.199996
	 D(11,6,9,13)     =         3.139546	     179.882752
	 D(11,6,9,14)     =         1.111122	      63.662598
	 D(13,9,12,15)    =         1.082745	      62.036713
	 D(13,9,12,16)    =        -1.012108	     -57.989495
	 D(13,9,12,17)    =        -3.108645	    -178.112266
	 D(14,9,12,15)    =         3.106998	     178.017897
	 D(14,9,12,16)    =         1.012146	      57.991688
	 D(14,9,12,17)    =        -1.084392	     -62.131082

	Current energy   :      -345.0487534165

	Generating empirical Hessian (Schlegel '84) for each fragment.
	Taking RFO optimization step.
	Going to follow RFO solution 1.
	Using RFO vector 1.
	Norm of target step-size    0.02774
	Projected energy change by RFO approximation:        -0.0003369966

	Back-transformation to cartesian coordinates...
	Successfully converged to displaced geometry.

	--- Internal Coordinate Step in ANG or DEG, aJ/ANG or AJ/DEG ---
	 ---------------------------------------------------------------------------
	   Coordinate                Previous        Force       Change         New 
	   ----------                --------       ------       ------       ------
	    1 R(1,2)          =      0.952799    -0.066250    -0.007454     0.945345
	    2 R(2,3)          =      1.332465    -0.026668    -0.002905     1.329560
	    3 R(3,4)          =      1.507304    -0.015452    -0.003135     1.504169
	    4 R(3,5)          =      1.188011    -0.093531    -0.005406     1.182605
	    5 R(4,6)          =      1.525295    -0.015628    -0.003357     1.521938
	    6 R(4,7)          =      1.086725    -0.009718    -0.001772     1.084953
	    7 R(4,8)          =      1.086725    -0.009775    -0.001782     1.084942
	    8 R(6,9)          =      1.529153    -0.016774    -0.003647     1.525506
	    9 R(6,10)         =      1.085162    -0.006941    -0.001259     1.083903
	   10 R(6,11)         =      1.085961    -0.011273    -0.002050     1.083911
	   11 R(9,12)         =      1.529129    -0.020732    -0.004508     1.524621
	   12 R(9,13)         =      1.087403    -0.004531    -0.000828     1.086575
	   13 R(9,14)         =      1.088223    -0.008840    -0.001620     1.086603
	   14 R(12,15)        =      1.086788    -0.012356    -0.002253     1.084535
	   15 R(12,16)        =      1.085277    -0.009002    -0.001633     1.083644
	   16 R(12,17)        =      1.085763    -0.007064    -0.001284     1.084480
	   17 B(1,2,3)        =    108.038487     0.000063     0.297297   108.335784
	   18 B(2,3,4)        =    111.709562     0.000065     0.194260   111.903822
	   19 B(2,3,5)        =    122.173214    -0.000060    -0.181559   121.991655
	   20 B(3,4,6)        =    113.404154     0.000099     0.347581   113.751735
	   21 B(3,4,7)        =    107.245195    -0.000044    -0.180192   107.065003
	   22 B(3,4,8)        =    107.245195    -0.000043    -0.177241   107.067954
	   23 B(4,3,5)        =    126.117224    -0.000004    -0.012701   126.104524
	   24 B(4,6,9)        =    112.271562     0.000026     0.078487   112.350049
	   25 B(4,6,10)       =    109.270773    -0.000007    -0.026763   109.244010
	   26 B(4,6,11)       =    109.256032    -0.000008    -0.016282   109.239750
	   27 B(6,4,7)        =    111.348116    -0.000017    -0.016165   111.331951
	   28 B(6,4,8)        =    111.348116    -0.000018    -0.017102   111.331014
	   29 B(6,9,12)       =    112.651028     0.000032     0.112712   112.763740
	   30 B(6,9,13)       =    109.511009    -0.000009    -0.044078   109.466930
	   31 B(6,9,14)       =    109.543092    -0.000018    -0.087118   109.455974
	   32 B(7,4,8)        =    105.843023     0.000016     0.010818   105.853841
	   33 B(9,6,10)       =    109.885947    -0.000012    -0.065599   109.820349
	   34 B(9,6,11)       =    109.870697    -0.000010    -0.042850   109.827848
	   35 B(9,12,15)      =    111.074807    -0.000003    -0.006158   111.068649
	   36 B(9,12,16)      =    111.136836     0.000008     0.038324   111.175160
	   37 B(9,12,17)      =    111.128393    -0.000012    -0.067792   111.060600
	   38 B(10,6,11)      =    106.093328     0.000010     0.072680   106.166009
	   39 B(12,9,13)      =    109.346034    -0.000011    -0.033712   109.312322
	   40 B(12,9,14)      =    109.285381    -0.000002     0.035244   109.320625
	   41 B(13,9,14)      =    106.304076     0.000007     0.011210   106.315286
	   42 B(15,12,16)     =    107.809065     0.000000     0.019722   107.828788
	   43 B(15,12,17)     =    107.674799     0.000007     0.030679   107.705477
	   44 B(16,12,17)     =    107.857040     0.000000    -0.012753   107.844286
	   45 D(1,2,3,4)      =    180.000000     0.000000     0.001343   180.001343
	   46 D(1,2,3,5)      =      0.000000    -0.000000    -0.002185    -0.002185
	   47 D(2,3,4,6)      =    180.000000     0.000000     0.005399   180.005399
	   48 D(2,3,4,7)      =     56.653791    -0.000003    -0.071639    56.582153
	   49 D(2,3,4,8)      =    -56.653791     0.000003     0.083395   -56.570396
	   50 D(3,4,6,9)      =    180.000000     0.000000     0.022576   180.022576
	   51 D(3,4,6,10)     =    -57.820329    -0.000000    -0.027084   -57.847413
	   52 D(3,4,6,11)     =     57.850093     0.000000     0.035934    57.886027
	   53 D(4,6,9,12)     =    180.000000    -0.000001     0.021129   180.021129
	   54 D(4,6,9,13)     =     58.082748    -0.000001     0.019300    58.102048
	   55 D(4,6,9,14)     =    -58.137406     0.000001     0.080406   -58.057000
	   56 D(5,3,4,6)      =      0.000000     0.000000     0.009103     0.009103
	   57 D(5,3,4,7)      =   -123.346209    -0.000003    -0.067935  -123.414144
	   58 D(5,3,4,8)      =    123.346209     0.000003     0.087099   123.433307
	   59 D(6,9,12,15)    =    -59.973791     0.000000     0.082123   -59.891668
	   60 D(6,9,12,16)    =    180.000000    -0.000001     0.035683   180.035683
	   61 D(6,9,12,17)    =     59.877229    -0.000000     0.071610    59.948839
	   62 D(7,4,6,9)      =    -58.935187     0.000000     0.024998   -58.910189
	   63 D(7,4,6,10)     =     63.244484    -0.000000    -0.024662    63.219823
	   64 D(7,4,6,11)     =    178.914906     0.000001     0.038356   178.953262
	   65 D(8,4,6,9)      =     58.935187    -0.000000     0.016994    58.952181
	   66 D(8,4,6,10)     =   -178.885142    -0.000001    -0.032666  -178.917808
	   67 D(8,4,6,11)     =    -63.214720     0.000000     0.030351   -63.184369
	   68 D(10,6,9,12)    =     58.170409    -0.000000     0.048340    58.218749
	   69 D(10,6,9,13)    =    -63.746843    -0.000001     0.046511   -63.700332
	   70 D(10,6,9,14)    =   -179.966997     0.000001     0.107617  -179.859381
	   71 D(11,6,9,12)    =    -58.199996    -0.000000     0.023371   -58.176625
	   72 D(11,6,9,13)    =    179.882752    -0.000000     0.021542   179.904294
	   73 D(11,6,9,14)    =     63.662598     0.000001     0.082648    63.745246
	   74 D(13,9,12,15)   =     62.036713     0.000000     0.077907    62.114620
	   75 D(13,9,12,16)   =    -57.989495    -0.000000     0.031467   -57.958028
	   76 D(13,9,12,17)   =   -178.112266     0.000000     0.067394  -178.044872
	   77 D(14,9,12,15)   =    178.017897     0.000001     0.092217   178.110114
	   78 D(14,9,12,16)   =     57.991688    -0.000000     0.045777    58.037465
	   79 D(14,9,12,17)   =    -62.131082     0.000000     0.081704   -62.049378
	 ---------------------------------------------------------------------------

  ==> Convergence Check <==

  Measures of convergence in internal coordinates in au.
  Criteria marked as inactive (o), active & met (*), and active & unmet ( ).
  --------------------------------------------------------------------------------------------- ~
   Step     Total Energy     Delta E     MAX Force     RMS Force      MAX Disp      RMS Disp    ~
  --------------------------------------------------------------------------------------------- ~
    Convergence Criteria    1.00e-06 *    3.00e-04 *             o    1.20e-03 *             o  ~
  --------------------------------------------------------------------------------------------- ~
      1    -345.04875342   -3.45e+02      1.14e-02      1.73e-03 o    1.41e-02      3.12e-03 o  ~
  ---------------------------------------------------------------------------------------------

	Writing optimization data to binary file.
	Structure for next step:
	Cartesian Geometry (in Angstrom)
	    H    -3.4413718494  -0.1716346681   0.0001201447
	    O    -2.6593819369  -0.7028297558   0.0004572349
	    C    -1.6042384943   0.1061220974  -0.0000726916
	    C    -0.3098002993  -0.6600072494   0.0003795434
	    O    -1.7172743206   1.2833120879  -0.0008699236
	    C     0.9272466784   0.2265644656  -0.0000717011
	    H    -0.3267699150  -1.3142889784  -0.8649239052
	    H    -0.3267721859  -1.3133696683   0.8663641128
	    C     2.2206469698  -0.5823132740  -0.0001520990
	    H     0.9004000088   0.8768507085  -0.8668205086
	    H     0.9006242792   0.8772938989   0.8663614420
	    C     3.4662549185   0.2968507288  -0.0000849694
	    H     2.2404554946  -1.2334847538  -0.8697660508
	    H     2.2402613264  -1.2336164166   0.8694030628
	    H     3.4920276373   0.9365133863  -0.8755186290
	    H     4.3687403605  -0.3029853957  -0.0007734651
	    H     3.4924115931   0.9355544740   0.8759684027
			--------------------------
			 OPTKING Finished Execution 
			--------------------------

    Structure for next step:
    Molecular point group: c1
    Full point group: C1

    Geometry (in Angstrom), charge = 0, multiplicity = 1:

    H           -3.441793186146    -0.171370064896     0.000180948040
    O           -2.659803333307    -0.702565112072     0.000518038195
    C           -1.604659971309     0.106386679367    -0.000011888205
    C           -0.310221875120    -0.659742608952     0.000440346741
    O           -1.717695789008     1.283576579909    -0.000809120203
    C            0.926825008099     0.226829038353    -0.000010897775
    H           -0.327191489549    -1.314024287963    -0.864863035824
    H           -0.327193760487    -1.313104977928     0.866424849963
    C            2.220225200720    -0.582048639510    -0.000091295603
    H            0.899978340568     0.877115231618    -0.866759639048
    H            0.900202610860     0.877558421992     0.866422179220
    C            3.465833054241     0.297115296147    -0.000024166000
    H            2.240033724021    -1.233220069536    -0.869705181036
    H            2.239839555848    -1.233351732299     0.869463799771
    H            3.491605771098     0.936777904870    -0.875457758783
    H            4.368318427334    -0.302720782501    -0.000712661660
    H            3.491989726857     0.935818992647     0.876029139142

gradient() will perform analytic gradient computation.

*** tstart() called on cx1-27-2-3
*** at Fri Sep  9 20:14:43 2016


         ---------------------------------------------------------
                                   SCF
            by Justin Turney, Rob Parrish, and Andy Simmonett
                              RHF Reference
                        4 Threads,   2000 MiB Core
         ---------------------------------------------------------

  ==> Geometry <==

    Molecular point group: c1
    Full point group: C1

    Geometry (in Angstrom), charge = 0, multiplicity = 1:

       Center              X                  Y                   Z               Mass       
    ------------   -----------------  -----------------  -----------------  -----------------
           H         -3.441793186146    -0.171370064896     0.000180948040     1.007825032070
           O         -2.659803333307    -0.702565112072     0.000518038195    15.994914619560
           C         -1.604659971309     0.106386679367    -0.000011888205    12.000000000000
           C         -0.310221875120    -0.659742608952     0.000440346741    12.000000000000
           O         -1.717695789008     1.283576579909    -0.000809120203    15.994914619560
           C          0.926825008099     0.226829038353    -0.000010897775    12.000000000000
           H         -0.327191489549    -1.314024287963    -0.864863035824     1.007825032070
           H         -0.327193760487    -1.313104977928     0.866424849963     1.007825032070
           C          2.220225200720    -0.582048639510    -0.000091295603    12.000000000000
           H          0.899978340568     0.877115231618    -0.866759639048     1.007825032070
           H          0.900202610860     0.877558421992     0.866422179220     1.007825032070
           C          3.465833054241     0.297115296147    -0.000024166000    12.000000000000
           H          2.240033724021    -1.233220069536    -0.869705181036     1.007825032070
           H          2.239839555848    -1.233351732299     0.869463799771     1.007825032070
           H          3.491605771098     0.936777904870    -0.875457758783     1.007825032070
           H          4.368318427334    -0.302720782501    -0.000712661660     1.007825032070
           H          3.491989726857     0.935818992647     0.876029139142     1.007825032070

  Running in c1 symmetry.

  Rotational constants: A =      0.27452  B =      0.03513  C =      0.03186 [cm^-1]
  Rotational constants: A =   8229.89546  B =   1053.24529  C =    955.25813 [MHz]
  Nuclear repulsion =  304.844863554349331

  Charge       = 0
  Multiplicity = 1
  Electrons    = 56
  Nalpha       = 28
  Nbeta        = 28

  ==> Algorithm <==

  SCF Algorithm Type is DF.
  DIIS enabled.
  MOM disabled.
  Fractional occupation disabled.
  Guess Type is READ.
  Energy threshold   = 1.00e-08
  Density threshold  = 1.00e-08
  Integral threshold = 0.00e+00

  ==> Primary Basis <==

  Basis Set: CC-PVTZ
    Number of shells: 130
    Number of basis function: 350
    Number of Cartesian functions: 395
    Spherical Harmonics?: true
    Max angular momentum: 3

  ==> Pre-Iterations <==

   -------------------------------------------------------
    Irrep   Nso     Nmo     Nalpha   Nbeta   Ndocc  Nsocc
   -------------------------------------------------------
     A        350     350       0       0       0       0
   -------------------------------------------------------
    Total     350     350      28      28      28       0
   -------------------------------------------------------

 OEINTS: Overlap, kinetic, potential, dipole, and quadrupole integrals
         stored in file 35.

  ==> Integral Setup <==

  ==> DFJK: Density-Fitted J/K Matrices <==

    J tasked:                  Yes
    K tasked:                  Yes
    wK tasked:                  No
    OpenMP threads:              4
    Integrals threads:           4
    Memory (MB):              1430
    Algorithm:                Core
    Integral Cache:           NONE
    Schwarz Cutoff:          1E-12
    Fitting Condition:       1E-12

   => Auxiliary Basis Set <=

  Basis Set: 
    Number of shells: 275
    Number of basis function: 853
    Number of Cartesian functions: 1022
    Spherical Harmonics?: true
    Max angular momentum: 4

  Minimum eigenvalue in the overlap matrix is 2.8594091340E-04.
  Using Symmetric Orthogonalization.
  SCF Guess: Reading in previously saved MOs, projecting if necessary.

  Using orbitals from previous SCF, no projection.
  Recomputing DOCC and SOCC from number of alpha and beta electrons from previous calculation.
              A 
    DOCC [    28 ]

  ==> Iterations <==

                           Total Energy        Delta E     RMS |[F,P]|

   @DF-RHF iter   0:  -345.06996074529707   -3.45070e+02   8.96029e-05 
   @DF-RHF iter   1:  -345.04891833836064    2.10424e-02   1.12230e-05 
   @DF-RHF iter   2:  -345.04892663840963   -8.30005e-06   4.36984e-06 DIIS
   @DF-RHF iter   3:  -345.04892764896397   -1.01055e-06   1.08695e-06 DIIS
   @DF-RHF iter   4:  -345.04892778570218   -1.36738e-07   4.75597e-07 DIIS
   @DF-RHF iter   5:  -345.04892780070054   -1.49984e-08   1.51834e-07 DIIS
   @DF-RHF iter   6:  -345.04892780378441   -3.08387e-09   6.83107e-08 DIIS
   @DF-RHF iter   7:  -345.04892780424552   -4.61114e-10   2.02274e-08 DIIS
   @DF-RHF iter   8:  -345.04892780430191   -5.63887e-11   8.58121e-09 DIIS

  ==> Post-Iterations <==

    Orbital Energies (a.u.)
    -----------------------

    Doubly Occupied:                                                      

       1A    -20.604102     2A    -20.540485     3A    -11.373595  
       4A    -11.239437     5A    -11.221286     6A    -11.220631  
       7A    -11.210651     8A     -1.477955     9A     -1.368923  
      10A     -1.093125    11A     -1.020057    12A     -0.915003  
      13A     -0.824982    14A     -0.791124    15A     -0.703906  
      16A     -0.688207    17A     -0.672488    18A     -0.631597  
      19A     -0.593358    20A     -0.585466    21A     -0.574938  
      22A     -0.538616    23A     -0.509481    24A     -0.484539  
      25A     -0.482921    26A     -0.478518    27A     -0.472844  
      28A     -0.446344  

    Virtual:                                                              

      29A      0.136698    30A      0.150269    31A      0.166636  
      32A      0.167635    33A      0.182943    34A      0.196136  
      35A      0.216871    36A      0.230800    37A      0.234893  
      38A      0.243183    39A      0.274369    40A      0.302456  
      41A      0.330616    42A      0.354999    43A      0.359149  
      44A      0.377513    45A      0.398741    46A      0.404999  
      47A      0.434997    48A      0.444854    49A      0.456217  
      50A      0.470537    51A      0.496430    52A      0.498569  
      53A      0.510824    54A      0.558304    55A      0.566252  
      56A      0.585245    57A      0.598772    58A      0.622316  
      59A      0.622595    60A      0.631248    61A      0.638163  
      62A      0.644215    63A      0.656781    64A      0.659508  
      65A      0.676265    66A      0.677510    67A      0.681891  
      68A      0.696562    69A      0.713932    70A      0.725634  
      71A      0.758680    72A      0.782796    73A      0.787800  
      74A      0.809848    75A      0.817082    76A      0.841871  
      77A      0.858203    78A      0.881436    79A      0.899216  
      80A      0.918842    81A      0.931504    82A      0.932713  
      83A      0.949106    84A      0.970593    85A      0.981517  
      86A      1.006820    87A      1.018591    88A      1.046368  
      89A      1.089167    90A      1.114716    91A      1.118702  
      92A      1.140699    93A      1.168104    94A      1.174307  
      95A      1.229173    96A      1.229626    97A      1.258885  
      98A      1.260991    99A      1.273051   100A      1.300398  
     101A      1.307309   102A      1.327786   103A      1.335435  
     104A      1.338039   105A      1.343510   106A      1.372560  
     107A      1.387856   108A      1.399160   109A      1.405559  
     110A      1.407102   111A      1.425994   112A      1.474750  
     113A      1.474863   114A      1.493376   115A      1.493453  
     116A      1.516381   117A      1.544246   118A      1.547928  
     119A      1.563447   120A      1.587494   121A      1.591456  
     122A      1.612766   123A      1.618945   124A      1.633336  
     125A      1.648754   126A      1.678918   127A      1.711775  
     128A      1.750828   129A      1.758357   130A      1.793588  
     131A      1.796932   132A      1.799221   133A      1.832273  
     134A      1.840343   135A      1.874493   136A      1.904894  
     137A      1.928544   138A      2.000922   139A      2.017789  
     140A      2.041774   141A      2.062953   142A      2.250719  
     143A      2.286614   144A      2.330497   145A      2.335022  
     146A      2.378042   147A      2.466980   148A      2.478162  
     149A      2.529805   150A      2.556600   151A      2.601195  
     152A      2.648746   153A      2.663166   154A      2.696001  
     155A      2.708750   156A      2.716762   157A      2.739786  
     158A      2.783916   159A      2.801074   160A      2.812089  
     161A      2.818822   162A      2.887668   163A      2.894629  
     164A      2.916624   165A      2.920545   166A      2.946333  
     167A      2.954409   168A      2.962676   169A      2.971728  
     170A      2.996006   171A      3.028746   172A      3.037299  
     173A      3.055594   174A      3.106399   175A      3.115381  
     176A      3.141488   177A      3.169165   178A      3.181310  
     179A      3.219904   180A      3.240556   181A      3.252735  
     182A      3.261072   183A      3.278040   184A      3.280085  
     185A      3.324371   186A      3.329412   187A      3.345167  
     188A      3.367027   189A      3.391478   190A      3.405176  
     191A      3.412957   192A      3.413603   193A      3.430402  
     194A      3.435778   195A      3.441612   196A      3.450274  
     197A      3.459828   198A      3.469583   199A      3.493947  
     200A      3.499215   201A      3.531587   202A      3.547423  
     203A      3.561416   204A      3.573178   205A      3.597578  
     206A      3.602867   207A      3.625477   208A      3.636947  
     209A      3.657904   210A      3.687679   211A      3.732019  
     212A      3.734338   213A      3.755530   214A      3.784489  
     215A      3.786102   216A      3.808428   217A      3.831430  
     218A      3.831972   219A      3.857165   220A      3.877816  
     221A      3.890712   222A      3.904914   223A      3.934755  
     224A      3.941056   225A      3.981029   226A      3.990503  
     227A      4.003056   228A      4.019672   229A      4.035118  
     230A      4.062129   231A      4.083684   232A      4.128891  
     233A      4.138980   234A      4.151810   235A      4.160108  
     236A      4.168897   237A      4.186920   238A      4.192820  
     239A      4.208933   240A      4.212448   241A      4.214804  
     242A      4.234928   243A      4.252102   244A      4.265849  
     245A      4.271494   246A      4.288530   247A      4.330232  
     248A      4.368102   249A      4.393220   250A      4.397551  
     251A      4.404374   252A      4.417257   253A      4.447832  
     254A      4.453552   255A      4.459579   256A      4.494675  
     257A      4.543308   258A      4.555172   259A      4.576161  
     260A      4.583742   261A      4.606134   262A      4.615947  
     263A      4.632701   264A      4.638575   265A      4.640052  
     266A      4.677013   267A      4.682358   268A      4.710150  
     269A      4.724883   270A      4.749819   271A      4.776835  
     272A      4.789815   273A      4.806274   274A      4.834631  
     275A      4.926500   276A      4.975110   277A      5.007364  
     278A      5.014319   279A      5.050083   280A      5.079186  
     281A      5.080226   282A      5.127184   283A      5.179212  
     284A      5.218266   285A      5.222274   286A      5.250283  
     287A      5.254823   288A      5.255828   289A      5.316974  
     290A      5.342162   291A      5.368986   292A      5.381591  
     293A      5.401392   294A      5.404784   295A      5.448597  
     296A      5.468773   297A      5.522491   298A      5.529427  
     299A      5.608606   300A      5.628353   301A      5.640962  
     302A      5.655287   303A      5.702423   304A      5.745075  
     305A      5.747198   306A      5.758335   307A      5.801489  
     308A      5.817925   309A      5.871019   310A      5.871795  
     311A      5.891998   312A      5.905811   313A      5.907270  
     314A      5.934883   315A      5.937040   316A      6.025849  
     317A      6.039928   318A      6.053155   319A      6.078921  
     320A      6.271179   321A      6.279896   322A      6.328097  
     323A      6.333080   324A      6.379835   325A      6.454241  
     326A      6.506800   327A      6.635400   328A      6.803414  
     329A      6.806762   330A      6.873245   331A      6.987051  
     332A      7.040513   333A      7.040755   334A      7.102170  
     335A      7.217344   336A      7.281159   337A      7.315308  
     338A      7.407388   339A      7.485505   340A      7.604866  
     341A      7.753990   342A      7.844101   343A      8.024741  
     344A      9.942740   345A     13.161737   346A     13.407059  
     347A     13.502734   348A     14.023706   349A     14.267267  
     350A     14.392262  

    Final Occupation by Irrep:
              A 
    DOCC [    28 ]

  Energy converged.

  @DF-RHF Final Energy:  -345.04892780430191

   => Energetics <=

    Nuclear Repulsion Energy =            304.8448635543493310
    One-Electron Energy =               -1074.2584282521602290
    Two-Electron Energy =                 424.3646368935094415
    DFT Exchange-Correlation Energy =       0.0000000000000000
    Empirical Dispersion Energy =           0.0000000000000000
    PCM Polarization Energy =               0.0000000000000000
    EFP Energy =                            0.0000000000000000
    Total Energy =                       -345.0489278043014565

    Alert: EFP and PCM quantities not currently incorporated into SCF psivars.

Properties will be evaluated at   0.000000,   0.000000,   0.000000 Bohr
  ==> Properties <==


Properties computed using the SCF density matrix

  Nuclear Dipole Moment: (a.u.)
     X:    12.6684      Y:    -1.8164      Z:     0.0010

  Electronic Dipole Moment: (a.u.)
     X:   -12.5462      Y:     1.1376      Z:    -0.0005

  Dipole Moment: (a.u.)
     X:     0.1222      Y:    -0.6788      Z:     0.0004     Total:     0.6897

  Dipole Moment: (Debye)
     X:     0.3105      Y:    -1.7253      Z:     0.0011     Total:     1.7530


  Saving occupied orbitals to File 180.

*** tstop() called on cx1-27-2-3 at Fri Sep  9 20:14:55 2016
Module time:
	user time   =      38.71 seconds =       0.65 minutes
	system time =       0.54 seconds =       0.01 minutes
	total time  =         12 seconds =       0.20 minutes
Total time:
	user time   =     197.87 seconds =       3.30 minutes
	system time =       2.12 seconds =       0.04 minutes
	total time  =         58 seconds =       0.97 minutes

*** tstart() called on cx1-27-2-3
*** at Fri Sep  9 20:14:55 2016


         ------------------------------------------------------------
                                   SCF GRAD                          
                          Rob Parrish, Justin Turney,                
                       Andy Simmonett, and Alex Sokolov              
         ------------------------------------------------------------

  ==> Geometry <==

    Molecular point group: c1
    Full point group: C1

    Geometry (in Angstrom), charge = 0, multiplicity = 1:

       Center              X                  Y                   Z               Mass       
    ------------   -----------------  -----------------  -----------------  -----------------
           H         -3.441793186146    -0.171370064896     0.000180948040     1.007825032070
           O         -2.659803333307    -0.702565112072     0.000518038195    15.994914619560
           C         -1.604659971309     0.106386679367    -0.000011888205    12.000000000000
           C         -0.310221875120    -0.659742608952     0.000440346741    12.000000000000
           O         -1.717695789009     1.283576579909    -0.000809120203    15.994914619560
           C          0.926825008099     0.226829038353    -0.000010897775    12.000000000000
           H         -0.327191489549    -1.314024287963    -0.864863035824     1.007825032070
           H         -0.327193760487    -1.313104977928     0.866424849963     1.007825032070
           C          2.220225200720    -0.582048639510    -0.000091295603    12.000000000000
           H          0.899978340568     0.877115231618    -0.866759639048     1.007825032070
           H          0.900202610860     0.877558421992     0.866422179220     1.007825032070
           C          3.465833054241     0.297115296147    -0.000024166000    12.000000000000
           H          2.240033724021    -1.233220069536    -0.869705181036     1.007825032070
           H          2.239839555848    -1.233351732299     0.869463799771     1.007825032070
           H          3.491605771098     0.936777904870    -0.875457758783     1.007825032070
           H          4.368318427334    -0.302720782501    -0.000712661660     1.007825032070
           H          3.491989726857     0.935818992647     0.876029139142     1.007825032070

  Nuclear repulsion =  304.844863554349388

  ==> Basis Set <==

  Basis Set: CC-PVTZ
    Number of shells: 130
    Number of basis function: 350
    Number of Cartesian functions: 395
    Spherical Harmonics?: true
    Max angular momentum: 3

  ==> DFJKGrad: Density-Fitted SCF Gradients <==

    Gradient:                    1
    J tasked:                  Yes
    K tasked:                  Yes
    wK tasked:                  No
    OpenMP threads:              4
    Integrals threads:           4
    Memory (MB):              1430
    Schwarz Cutoff:          0E+00
    Fitting Condition:       1E-12

   => Auxiliary Basis Set <=

  Basis Set: 
    Number of shells: 275
    Number of basis function: 853
    Number of Cartesian functions: 1022
    Spherical Harmonics?: true
    Max angular momentum: 4


  -Total Gradient:
     Atom            X                  Y                   Z
    ------   -----------------  -----------------  -----------------
       1        0.000098101353     0.000070388887     0.000000420879
       2       -0.000038841701     0.000627626588    -0.000003565075
       3        0.000384003026    -0.001030758436     0.000006934898
       4        0.000013742478    -0.000117186581     0.000007281733
       5       -0.000407175230     0.000009822664    -0.000003721290
       6        0.000298070493     0.000282108088     0.000016564928
       7       -0.000045478857     0.000211814948     0.000064274896
       8       -0.000043961909     0.000215870142    -0.000067799672
       9       -0.000129233346    -0.000168697275    -0.000017357633
      10       -0.000001212023    -0.000173006609     0.000069459627
      11       -0.000017356141    -0.000167671925    -0.000069261783
      12        0.000119456752     0.000126832088     0.000024999194
      13        0.000040059940     0.000173755401     0.000045280345
      14        0.000005071038     0.000165460746    -0.000029910421
      15       -0.000081584811    -0.000089691162     0.000036830416
      16       -0.000083423413    -0.000025165785    -0.000018167357
      17       -0.000110237652    -0.000111501774    -0.000062263684


*** tstop() called on cx1-27-2-3 at Fri Sep  9 20:15:21 2016
Module time:
	user time   =      98.91 seconds =       1.65 minutes
	system time =       0.69 seconds =       0.01 minutes
	total time  =         26 seconds =       0.43 minutes
Total time:
	user time   =     296.80 seconds =       4.95 minutes
	system time =       2.81 seconds =       0.05 minutes
	total time  =         84 seconds =       1.40 minutes
CURRENT ENERGY: -345.0489278043

			-----------------------------------------
			 OPTKING 2.0: for geometry optimizations 
			  - R.A. King,  Bethel University        
			-----------------------------------------

	Previous internal coordinate definitions found.
	---Fragment 1 Geometry and Gradient---
	 H          -6.5040465278       -0.3238424900        0.0003419422
	 O          -5.0262998673       -1.3276556523        0.0009789503
	 C          -3.0323678822        0.2010416882       -0.0000224655
	 C          -0.5862343844       -1.2467328491        0.0008321347
	 O          -3.2459746208        2.4256082066       -0.0015290156
	 C           1.7514454384        0.4286447615       -0.0000205938
	 H          -0.6183023083       -2.4831460362       -1.6343542802
	 H          -0.6183065997       -2.4814087920        1.6373056812
	 C           4.1956175827       -1.0999125247       -0.0001725237
	 H           1.7007125892        1.6575075747       -1.6379383408
	 H           1.7011363986        1.6583450832        1.6373006342
	 C           6.5494752948        0.5614665396       -0.0000456671
	 H           4.2330502668       -2.3304481930       -1.6435046085
	 H           4.2326833422       -2.3306969996        1.6430484640
	 H           6.5981786714        1.7702536875       -1.6543754050
	 H           8.2549254889       -0.5720593737       -0.0013467354
	 H           6.5989042426        1.7684416061        1.6554551574
	             0.0000981014        0.0000703889        0.0000004209
	            -0.0000388417        0.0006276266       -0.0000035651
	             0.0003840030       -0.0010307584        0.0000069349
	             0.0000137425       -0.0001171866        0.0000072817
	            -0.0004071752        0.0000098227       -0.0000037213
	             0.0002980705        0.0002821081        0.0000165649
	            -0.0000454789        0.0002118149        0.0000642749
	            -0.0000439619        0.0002158701       -0.0000677997
	            -0.0001292333       -0.0001686973       -0.0000173576
	            -0.0000012120       -0.0001730066        0.0000694596
	            -0.0000173561       -0.0001676719       -0.0000692618
	             0.0001194568        0.0001268321        0.0000249992
	             0.0000400599        0.0001737554        0.0000452803
	             0.0000050710        0.0001654607       -0.0000299104
	            -0.0000815848       -0.0000896912        0.0000368304
	            -0.0000834234       -0.0000251658       -0.0000181674
	            -0.0001102377       -0.0001115018       -0.0000622637

	---Fragment 1 Intrafragment Coordinates---
	 - Coordinate -           - BOHR/RAD -       - ANG/DEG -
	 R(1,2)           =         1.786442	       0.945345
	 R(2,3)           =         2.512505	       1.329560
	 R(3,4)           =         2.842467	       1.504169
	 R(3,5)           =         2.234799	       1.182605
	 R(4,6)           =         2.876046	       1.521938
	 R(4,7)           =         2.050264	       1.084953
	 R(4,8)           =         2.050244	       1.084942
	 R(6,9)           =         2.882788	       1.525506
	 R(6,10)          =         2.048280	       1.083903
	 R(6,11)          =         2.048296	       1.083911
	 R(9,12)          =         2.881116	       1.524621
	 R(9,13)          =         2.053329	       1.086575
	 R(9,14)          =         2.053382	       1.086603
	 R(12,15)         =         2.049474	       1.084535
	 R(12,16)         =         2.047790	       1.083644
	 R(12,17)         =         2.049369	       1.084480
	 B(1,2,3)         =         1.890816	     108.335784
	 B(2,3,4)         =         1.953090	     111.903822
	 B(2,3,5)         =         2.129156	     121.991655
	 B(3,4,6)         =         1.985342	     113.751735
	 B(3,4,7)         =         1.868637	     107.065003
	 B(3,4,8)         =         1.868688	     107.067954
	 B(4,3,5)         =         2.200939	     126.104524
	 B(4,6,9)         =         1.960878	     112.350049
	 B(4,6,10)        =         1.906668	     109.244010
	 B(4,6,11)        =         1.906593	     109.239750
	 B(6,4,7)         =         1.943109	     111.331951
	 B(6,4,8)         =         1.943093	     111.331014
	 B(6,9,12)        =         1.968099	     112.763740
	 B(6,9,13)        =         1.910558	     109.466930
	 B(6,9,14)        =         1.910367	     109.455974
	 B(7,4,8)         =         1.847498	     105.853841
	 B(9,6,10)        =         1.916727	     109.820349
	 B(9,6,11)        =         1.916858	     109.827848
	 B(9,12,15)       =         1.938514	     111.068649
	 B(9,12,16)       =         1.940373	     111.175160
	 B(9,12,17)       =         1.938373	     111.060600
	 B(10,6,11)       =         1.852946	     106.166009
	 B(12,9,13)       =         1.907860	     109.312322
	 B(12,9,14)       =         1.908005	     109.320625
	 B(13,9,14)       =         1.855552	     106.315286
	 B(15,12,16)      =         1.881967	     107.828788
	 B(15,12,17)      =         1.879815	     107.705477
	 B(16,12,17)      =         1.882238	     107.844286
	 D(1,2,3,4)       =        -3.141569	    -179.998657
	 D(1,2,3,5)       =        -0.000038	      -0.002185
	 D(2,3,4,6)       =        -3.141498	    -179.994601
	 D(2,3,4,7)       =         0.987545	      56.582153
	 D(2,3,4,8)       =        -0.987340	     -56.570396
	 D(3,4,6,9)       =        -3.141199	    -179.977424
	 D(3,4,6,10)      =        -1.009628	     -57.847413
	 D(3,4,6,11)      =         1.010302	      57.886027
	 D(4,6,9,12)      =        -3.141224	    -179.978871
	 D(4,6,9,13)      =         1.014072	      58.102048
	 D(4,6,9,14)      =        -1.013286	     -58.057000
	 D(5,3,4,6)       =         0.000159	       0.009103
	 D(5,3,4,7)       =        -2.153983	    -123.414144
	 D(5,3,4,8)       =         2.154318	     123.433307
	 D(6,9,12,15)     =        -1.045307	     -59.891668
	 D(6,9,12,16)     =        -3.140970	    -179.964317
	 D(6,9,12,17)     =         1.046305	      59.948839
	 D(7,4,6,9)       =        -1.028177	     -58.910189
	 D(7,4,6,10)      =         1.103394	      63.219823
	 D(7,4,6,11)      =         3.123324	     178.953262
	 D(8,4,6,9)       =         1.028910	      58.952181
	 D(8,4,6,10)      =        -3.122705	    -178.917808
	 D(8,4,6,11)      =        -1.102775	     -63.184369
	 D(10,6,9,12)     =         1.016109	      58.218749
	 D(10,6,9,13)     =        -1.111781	     -63.700332
	 D(10,6,9,14)     =        -3.139138	    -179.859381
	 D(11,6,9,12)     =        -1.015374	     -58.176625
	 D(11,6,9,13)     =         3.139922	     179.904294
	 D(11,6,9,14)     =         1.112564	      63.745246
	 D(13,9,12,15)    =         1.084105	      62.114620
	 D(13,9,12,16)    =        -1.011558	     -57.958028
	 D(13,9,12,17)    =        -3.107469	    -178.044872
	 D(14,9,12,15)    =         3.108608	     178.110114
	 D(14,9,12,16)    =         1.012945	      58.037465
	 D(14,9,12,17)    =        -1.082966	     -62.049378

	Current energy   :      -345.0489278043

	Energy change for the previous step:
		Projected    :        -0.0003369966
		Actual       :        -0.0001743878

	Performing BFGS update.
	Previous computed or guess Hessian on step 1.
	Steps to be used in Hessian update: 1
	Taking RFO optimization step.
	Going to follow RFO solution 1.
	Using RFO vector 1.
	Norm of target step-size    0.00778
	Projected energy change by RFO approximation:        -0.0000120230

	Back-transformation to cartesian coordinates...
	Successfully converged to displaced geometry.

	--- Internal Coordinate Step in ANG or DEG, aJ/ANG or AJ/DEG ---
	 ---------------------------------------------------------------------------
	   Coordinate                Previous        Force       Change         New 
	   ----------                --------       ------       ------       ------
	    1 R(1,2)          =      0.945345     0.000343    -0.000096     0.945249
	    2 R(2,3)          =      1.329560     0.003886     0.000355     1.329915
	    3 R(3,4)          =      1.504169     0.001611     0.000258     1.504427
	    4 R(3,5)          =      1.182605    -0.000401    -0.000119     1.182486
	    5 R(4,6)          =      1.521938    -0.000325    -0.000127     1.521811
	    6 R(4,7)          =      1.084953     0.001469     0.000226     1.085178
	    7 R(4,8)          =      1.084942     0.001511     0.000233     1.085175
	    8 R(6,9)          =      1.525506     0.001986     0.000350     1.525855
	    9 R(6,10)         =      1.083903     0.001313     0.000206     1.084110
	   10 R(6,11)         =      1.083911     0.001282     0.000187     1.084099
	   11 R(9,12)         =      1.524621     0.001521     0.000237     1.524858
	   12 R(9,13)         =      1.086575     0.001150     0.000187     1.086762
	   13 R(9,14)         =      1.086603     0.001014     0.000149     1.086753
	   14 R(12,15)        =      1.084535     0.000697     0.000082     1.084617
	   15 R(12,16)        =      1.083644     0.000458     0.000051     1.083694
	   16 R(12,17)        =      1.084480     0.000977     0.000148     1.084627
	   17 B(1,2,3)        =    108.335784     0.000015     0.074888   108.410672
	   18 B(2,3,4)        =    111.903822    -0.000053    -0.150732   111.753090
	   19 B(2,3,5)        =    121.991655     0.000061     0.173215   122.164869
	   20 B(3,4,6)        =    113.751735    -0.000006     0.002278   113.754012
	   21 B(3,4,7)        =    107.065003     0.000005     0.035654   107.100657
	   22 B(3,4,8)        =    107.067954     0.000005     0.033979   107.101933
	   23 B(4,3,5)        =    126.104524    -0.000008    -0.022487   126.082037
	   24 B(4,6,9)        =    112.350049    -0.000002     0.007908   112.357957
	   25 B(4,6,10)       =    109.244010     0.000002     0.015206   109.259216
	   26 B(4,6,11)       =    109.239750     0.000003     0.019348   109.259099
	   27 B(6,4,7)        =    111.331951     0.000001    -0.001055   111.330896
	   28 B(6,4,8)        =    111.331014     0.000001    -0.000637   111.330376
	   29 B(6,9,12)       =    112.763740     0.000006     0.038040   112.801780
	   30 B(6,9,13)       =    109.466930    -0.000003    -0.011660   109.455270
	   31 B(6,9,14)       =    109.455974    -0.000001     0.001557   109.457530
	   32 B(7,4,8)        =    105.853841    -0.000006    -0.073452   105.780389
	   33 B(9,6,10)       =    109.820349     0.000001     0.008831   109.829180
	   34 B(9,6,11)       =    109.827848     0.000000    -0.001370   109.826477
	   35 B(9,12,15)      =    111.068649     0.000007     0.035146   111.103795
	   36 B(9,12,16)      =    111.175160     0.000003     0.012605   111.187765
	   37 B(9,12,17)      =    111.060600     0.000010     0.044978   111.105578
	   38 B(10,6,11)      =    106.166009    -0.000004    -0.053231   106.112778
	   39 B(12,9,13)      =    109.312322     0.000002     0.023442   109.335764
	   40 B(12,9,14)      =    109.320625    -0.000000     0.013094   109.333719
	   41 B(13,9,14)      =    106.315286    -0.000004    -0.071008   106.244278
	   42 B(15,12,16)     =    107.828788    -0.000006    -0.026412   107.802375
	   43 B(15,12,17)     =    107.705477    -0.000008    -0.031568   107.673909
	   44 B(16,12,17)     =    107.844286    -0.000008    -0.040153   107.804134
	   45 D(1,2,3,4)      =   -179.998657    -0.000000    -0.011482  -180.010139
	   46 D(1,2,3,5)      =     -0.002185     0.000000     0.014601     0.012416
	   47 D(2,3,4,6)      =   -179.994601     0.000000     0.013201  -179.981400
	   48 D(2,3,4,7)      =     56.582153    -0.000000    -0.012991    56.569162
	   49 D(2,3,4,8)      =    -56.570396     0.000000     0.038704   -56.531693
	   50 D(3,4,6,9)      =   -179.977424    -0.000000    -0.031305  -180.008729
	   51 D(3,4,6,10)     =    -57.847413     0.000000    -0.004040   -57.851453
	   52 D(3,4,6,11)     =     57.886027    -0.000000    -0.048510    57.837517
	   53 D(4,6,9,12)     =   -179.978871     0.000000    -0.036562  -180.015433
	   54 D(4,6,9,13)     =     58.102048    -0.000001    -0.084012    58.018037
	   55 D(4,6,9,14)     =    -58.057000     0.000001     0.007099   -58.049901
	   56 D(5,3,4,6)      =      0.009103    -0.000000    -0.014128    -0.005025
	   57 D(5,3,4,7)      =   -123.414144    -0.000000    -0.040319  -123.454463
	   58 D(5,3,4,8)      =    123.433307     0.000000     0.011375   123.444682
	   59 D(6,9,12,15)    =    -59.891668    -0.000000    -0.069985   -59.961653
	   60 D(6,9,12,16)    =   -179.964317     0.000000    -0.068615  -180.032933
	   61 D(6,9,12,17)    =     59.948839     0.000000    -0.056472    59.892368
	   62 D(7,4,6,9)      =    -58.910189     0.000001     0.016227   -58.893962
	   63 D(7,4,6,10)     =     63.219823     0.000001     0.043492    63.263314
	   64 D(7,4,6,11)     =    178.953262     0.000000    -0.000977   178.952284
	   65 D(8,4,6,9)      =     58.952181    -0.000001    -0.076958    58.875223
	   66 D(8,4,6,10)     =   -178.917808    -0.000000    -0.049693  -178.967501
	   67 D(8,4,6,11)     =    -63.184369    -0.000001    -0.094162   -63.278531
	   68 D(10,6,9,12)    =     58.218749    -0.000000    -0.067603    58.151146
	   69 D(10,6,9,13)    =    -63.700332    -0.000001    -0.115052   -63.815384
	   70 D(10,6,9,14)    =   -179.859381     0.000000    -0.023941  -179.883322
	   71 D(11,6,9,12)    =    -58.176625     0.000001    -0.007451   -58.184076
	   72 D(11,6,9,13)    =    179.904294    -0.000000    -0.054900   179.849394
	   73 D(11,6,9,14)    =     63.745246     0.000001     0.036210    63.781456
	   74 D(13,9,12,15)   =     62.114620     0.000000    -0.042411    62.072209
	   75 D(13,9,12,16)   =    -57.958028     0.000000    -0.041042   -57.999070
	   76 D(13,9,12,17)   =   -178.044872     0.000000    -0.028898  -178.073770
	   77 D(14,9,12,15)   =    178.110114    -0.000001    -0.107058   178.003057
	   78 D(14,9,12,16)   =     58.037465    -0.000001    -0.105688    57.931778
	   79 D(14,9,12,17)   =    -62.049378    -0.000000    -0.093544   -62.142922
	 ---------------------------------------------------------------------------

  ==> Convergence Check <==

  Measures of convergence in internal coordinates in au.
  Criteria marked as inactive (o), active & met (*), and active & unmet ( ).
  ---------------------------------------------------------------------------------------------
   Step     Total Energy     Delta E     MAX Force     RMS Force      MAX Disp      RMS Disp   
  ---------------------------------------------------------------------------------------------
    Convergence Criteria    1.00e-06 *    3.00e-04 *             o    1.20e-03 *             o
  ---------------------------------------------------------------------------------------------
      2    -345.04892780   -1.74e-04      8.02e-04      1.53e-04 o    3.02e-03      8.76e-04 o  ~
  ---------------------------------------------------------------------------------------------

	Writing optimization data to binary file.
	Structure for next step:
	Cartesian Geometry (in Angstrom)
	    H    -3.4426686279  -0.1755760670   0.0005865605
	    O    -2.6587919609  -0.7038116312   0.0003823762
	    C    -1.6053158361   0.1078917250   0.0000529915
	    C    -0.3108289334  -0.6586619659  -0.0000407511
	    O    -1.7176121262   1.2850336972   0.0002593636
	    C     0.9263505683   0.2275069495   0.0000364377
	    H    -0.3275731839  -1.3130896233  -0.8655211323
	    H    -0.3275335924  -1.3132778529   0.8652939078
	    C     2.2199439415  -0.5817216388   0.0001533010
	    H     0.8999249638   0.8785537721  -0.8664121630
	    H     0.8998203397   0.8785391951   0.8664793315
	    C     3.4664416482   0.2965925262  -0.0001472669
	    H     2.2390429121  -1.2338331609  -0.8690058394
	    H     2.2392030079  -1.2333965181   0.8696246982
	    H     3.4938647144   0.9353732835  -0.8762758596
	    H     4.3686261563  -0.3037874999   0.0005239886
	    H     3.4933990816   0.9366945283   0.8750437128
			--------------------------
			 OPTKING Finished Execution 
			--------------------------

    Structure for next step:
    Molecular point group: c1
    Full point group: C1

    Geometry (in Angstrom), charge = 0, multiplicity = 1:

    H           -3.442677311800    -0.175937363706     0.000476232516
    O           -2.658800704644    -0.704172887595     0.000272048204
    C           -1.605324660313     0.107530406623    -0.000057336441
    C           -0.310837856481    -0.659023225716    -0.000151079075
    O           -1.717620941803     1.284672289005     0.000149035643
    C            0.926341550783     0.227145621982    -0.000073890289
    H           -0.327582105667    -1.313450833161    -0.865631394122
    H           -0.327542514112    -1.313639062690     0.865183513749
    C            2.219934825188    -0.582082904486     0.000042973019
    H            0.899915948278     0.878192394865    -0.866522424750
    H            0.899811324228     0.878177817939     0.866368937351
    C            3.466432436684     0.296231193411    -0.000257594806
    H            2.239033794340    -1.234194376777    -0.869116101016
    H            2.239193890107    -1.233757734033     0.869514303795
    H            3.493855500832     0.935011902019    -0.876386120674
    H            4.368616875913    -0.304148786756     0.000413660637
    H            3.493389868082     0.936333146628     0.874933317991

gradient() will perform analytic gradient computation.

*** tstart() called on cx1-27-2-3
*** at Fri Sep  9 20:15:21 2016


         ---------------------------------------------------------
                                   SCF
            by Justin Turney, Rob Parrish, and Andy Simmonett
                              RHF Reference
                        4 Threads,   2000 MiB Core
         ---------------------------------------------------------

  ==> Geometry <==

    Molecular point group: c1
    Full point group: C1

    Geometry (in Angstrom), charge = 0, multiplicity = 1:

       Center              X                  Y                   Z               Mass       
    ------------   -----------------  -----------------  -----------------  -----------------
           H         -3.442677311800    -0.175937363706     0.000476232516     1.007825032070
           O         -2.658800704644    -0.704172887595     0.000272048204    15.994914619560
           C         -1.605324660313     0.107530406623    -0.000057336441    12.000000000000
           C         -0.310837856481    -0.659023225716    -0.000151079075    12.000000000000
           O         -1.717620941803     1.284672289005     0.000149035643    15.994914619560
           C          0.926341550783     0.227145621982    -0.000073890289    12.000000000000
           H         -0.327582105667    -1.313450833161    -0.865631394122     1.007825032070
           H         -0.327542514112    -1.313639062690     0.865183513749     1.007825032070
           C          2.219934825188    -0.582082904486     0.000042973019    12.000000000000
           H          0.899915948278     0.878192394865    -0.866522424750     1.007825032070
           H          0.899811324228     0.878177817939     0.866368937351     1.007825032070
[...]
	 C          -0.5869791911       -1.2450517814        0.0014953622
	 O          -3.2472115143        2.4275972171       -0.0011849866
	 C           1.7509837379        0.4294081520        0.0003367178
	 H          -0.6191259655       -2.4824976149       -1.6335689038
	 H          -0.6180182053       -2.4818417478        1.6370652412
	 C           4.1954864281       -1.0999560277       -0.0001660809
	 H           1.7006503644        1.6595964786       -1.6372394144
	 H           1.7017782113        1.6602766851        1.6374219185
	 C           6.5510934147        0.5593822334       -0.0008631354
	 H           4.2312344495       -2.3321015486       -1.6428945909
	 H           4.2320509931       -2.3318945571        1.6426826549
	 H           6.6018510489        1.7685138997       -1.6551868207
	 H           8.2558762297       -0.5754718725       -0.0022656334
	 H           6.6037594883        1.7672073196        1.6543755308
	            -0.0000184882       -0.0000370801       -0.0000037299
	             0.0000076096        0.0000782457       -0.0001770681
	            -0.0000145881       -0.0000314628        0.0006064160
	            -0.0000109148        0.0000347074       -0.0001868180
	            -0.0000075124        0.0000022157       -0.0002196155
	             0.0000024455       -0.0000157789       -0.0000079822
	             0.0000458982       -0.0000432392       -0.0000044515
	            -0.0000210234        0.0000036133       -0.0000022542
	             0.0000002907        0.0000069355        0.0000043423
	             0.0000013384        0.0000106039       -0.0000027146
	            -0.0000022256        0.0000030735       -0.0000046141
	             0.0000064507        0.0000005350       -0.0000062131
	             0.0000019938       -0.0000122368        0.0000000192
	            -0.0000013912       -0.0000086322       -0.0000017701
	             0.0000025576        0.0000023079        0.0000036101
	             0.0000009161        0.0000043905       -0.0000006523
	             0.0000066428        0.0000018016        0.0000034960

	---Fragment 1 Intrafragment Coordinates---
	 - Coordinate -           - BOHR/RAD -       - ANG/DEG -
	 R(1,2)           =         1.786484	       0.945367
	 R(2,3)           =         2.513361	       1.330014
	 R(3,4)           =         2.843413	       1.504669
	 R(3,5)           =         2.234333	       1.182358
	 R(4,6)           =         2.875741	       1.521777
	 R(4,7)           =         2.050790	       1.085232
	 R(4,8)           =         2.050781	       1.085227
	 R(6,9)           =         2.883496	       1.525880
	 R(6,10)          =         2.048793	       1.084175
	 R(6,11)          =         2.048782	       1.084169
	 R(9,12)          =         2.881369	       1.524755
	 R(9,13)          =         2.053781	       1.086814
	 R(9,14)          =         2.053768	       1.086807
	 R(12,15)         =         2.049723	       1.084667
	 R(12,16)         =         2.047970	       1.083739
	 R(12,17)         =         2.049739	       1.084675
	 B(1,2,3)         =         1.892917	     108.456183
	 B(2,3,4)         =         1.950445	     111.752241
	 B(2,3,5)         =         2.131733	     122.139280
	 B(3,4,6)         =         1.985544	     113.763310
	 B(3,4,7)         =         1.869302	     107.103127
	 B(3,4,8)         =         1.869227	     107.098797
	 B(4,3,5)         =         2.201003	     126.108181
	 B(4,6,9)         =         1.961019	     112.358087
	 B(4,6,10)        =         1.907069	     109.266997
	 B(4,6,11)        =         1.907067	     109.266918
	 B(6,4,7)         =         1.943102	     111.331572
	 B(6,4,8)         =         1.943123	     111.332734
	 B(6,9,12)        =         1.968851	     112.806843
	 B(6,9,13)        =         1.910380	     109.456732
	 B(6,9,14)        =         1.910388	     109.457149
	 B(7,4,8)         =         1.845982	     105.766995
	 B(9,6,10)        =         1.916815	     109.825415
	 B(9,6,11)        =         1.916804	     109.824804
	 B(9,12,15)       =         1.939230	     111.109700
	 B(9,12,16)       =         1.940581	     111.187101
	 B(9,12,17)       =         1.939231	     111.109736
	 B(10,6,11)       =         1.851829	     106.101967
	 B(12,9,13)       =         1.908237	     109.333931
	 B(12,9,14)       =         1.908244	     109.334303
	 B(13,9,14)       =         1.854216	     106.238737
	 B(15,12,16)      =         1.881490	     107.801413
	 B(15,12,17)      =         1.879181	     107.669145
	 B(16,12,17)      =         1.881463	     107.799909
	 D(1,2,3,4)       =        -3.139927	    -179.904557
	 D(1,2,3,5)       =        -0.001598	      -0.091572
	 D(2,3,4,6)       =         3.139863	     179.900873
	 D(2,3,4,7)       =         0.985110	      56.442634
	 D(2,3,4,8)       =        -0.988599	     -56.642571
	 D(3,4,6,9)       =         3.141536	     179.996732
	 D(3,4,6,10)      =        -1.009589	     -57.845205
	 D(3,4,6,11)      =         1.009490	      57.839504
	 D(4,6,9,12)      =        -3.141418	    -179.989984
	 D(4,6,9,13)      =         1.013013	      58.041348
	 D(4,6,9,14)      =        -1.012649	     -58.020541
	 D(5,3,4,6)       =         0.001691	       0.096881
	 D(5,3,4,7)       =        -2.153062	    -123.361358
	 D(5,3,4,8)       =         2.156414	     123.553437
	 D(6,9,12,15)     =        -1.045360	     -59.894718
	 D(6,9,12,16)     =        -3.141039	    -179.968300
	 D(6,9,12,17)     =         1.046499	      59.959997
	 D(7,4,6,9)       =        -1.027616	     -58.878048
	 D(7,4,6,10)      =         1.104445	      63.280015
	 D(7,4,6,11)      =         3.123524	     178.964724
	 D(8,4,6,9)       =         1.027585	      58.876311
	 D(8,4,6,10)      =        -3.123539	    -178.965626
	 D(8,4,6,11)      =        -1.104460	     -63.280917
	 D(10,6,9,12)     =         1.015245	      58.169234
	 D(10,6,9,13)     =        -1.113510	     -63.799434
	 D(10,6,9,14)     =        -3.139172	    -179.861323
	 D(11,6,9,12)     =        -1.014904	     -58.149735
	 D(11,6,9,13)     =         3.139526	     179.881597
	 D(11,6,9,14)     =         1.113864	      63.819708
	 D(13,9,12,15)    =         1.084602	      62.143130
	 D(13,9,12,16)    =        -1.011077	     -57.930452
	 D(13,9,12,17)    =        -3.106724	    -178.002155
	 D(14,9,12,15)    =         3.107849	     178.066634
	 D(14,9,12,16)    =         1.012170	      57.993053
	 D(14,9,12,17)    =        -1.083477	     -62.078651

	Current energy   :      -345.0489305850

	Energy change for the previous step:
		Projected    :        -0.0000007821
		Actual       :         0.0000005056

	Performing BFGS update.
	Previous computed or guess Hessian on step 1.
	Steps to be used in Hessian update: 3 2
	Taking RFO optimization step.
	Going to follow RFO solution 1.
	Using RFO vector 1.
	Norm of target step-size    0.00711
	Projected energy change by RFO approximation:        -0.0000036871

	Back-transformation to cartesian coordinates...
	Successfully converged to displaced geometry.

	--- Internal Coordinate Step in ANG or DEG, aJ/ANG or AJ/DEG ---
	 ---------------------------------------------------------------------------
	   Coordinate                Previous        Force       Change         New 
	   ----------                --------       ------       ------       ------
	    1 R(1,2)          =      0.945367     0.000044     0.000137     0.945503
	    2 R(2,3)          =      1.330014     0.000134     0.000103     1.330117
	    3 R(3,4)          =      1.504669    -0.000284     0.000227     1.504897
	    4 R(3,5)          =      1.182358    -0.000027    -0.000110     1.182249
	    5 R(4,6)          =      1.521777    -0.000094    -0.000028     1.521749
	    6 R(4,7)          =      1.085232    -0.000238     0.000043     1.085275
	    7 R(4,8)          =      1.085227     0.000030     0.000054     1.085280
	    8 R(6,9)          =      1.525880    -0.000143     0.000022     1.525903
	    9 R(6,10)         =      1.084175    -0.000070     0.000061     1.084236
	   10 R(6,11)         =      1.084169     0.000015     0.000072     1.084241
	   11 R(9,12)         =      1.524755    -0.000154    -0.000100     1.524655
	   12 R(9,13)         =      1.086814    -0.000061     0.000048     1.086863
	   13 R(9,14)         =      1.086807    -0.000031     0.000054     1.086861
	   14 R(12,15)        =      1.084667     0.000012     0.000054     1.084720
	   15 R(12,16)        =      1.083739     0.000014     0.000048     1.083787
	   16 R(12,17)        =      1.084675    -0.000033     0.000047     1.084722
	   17 B(1,2,3)        =    108.456183    -0.000006     0.036221   108.492404
	   18 B(2,3,4)        =    111.752241    -0.000001    -0.000165   111.752076
	   19 B(2,3,5)        =    122.139280     0.000001    -0.025389   122.113891
	   20 B(3,4,6)        =    113.763310    -0.000001     0.006514   113.769824
	   21 B(3,4,7)        =    107.103127    -0.000003    -0.005390   107.097737
	   22 B(3,4,8)        =    107.098797     0.000002     0.001858   107.100655
	   23 B(4,3,5)        =    126.108181    -0.000000     0.025815   126.133997
	   24 B(4,6,9)        =    112.358087    -0.000000    -0.000599   112.357488
	   25 B(4,6,10)       =    109.266997    -0.000000     0.006829   109.273826
	   26 B(4,6,11)       =    109.266918     0.000000     0.007918   109.274837
	   27 B(6,4,7)        =    111.331572     0.000003     0.002740   111.334313
	   28 B(6,4,8)        =    111.332734    -0.000001     0.002556   111.335290
	   29 B(6,9,12)       =    112.806843    -0.000000     0.003623   112.810466
	   30 B(6,9,13)       =    109.456732    -0.000000     0.001511   109.458243
	   31 B(6,9,14)       =    109.457149     0.000000    -0.000353   109.456796
	   32 B(7,4,8)        =    105.766995     0.000000    -0.009719   105.757276
	   33 B(9,6,10)       =    109.825415     0.000000    -0.003841   109.821575
	   34 B(9,6,11)       =    109.824804    -0.000000    -0.001518   109.823286
	   35 B(9,12,15)      =    111.109700    -0.000000     0.004942   111.114642
	   36 B(9,12,16)      =    111.187101    -0.000000    -0.001140   111.185962
	   37 B(9,12,17)      =    111.109736    -0.000000     0.003259   111.112994
	   38 B(10,6,11)      =    106.101967     0.000000    -0.009178   106.092789
	   39 B(12,9,13)      =    109.333931     0.000000    -0.002066   109.331864
	   40 B(12,9,14)      =    109.334303    -0.000000     0.000091   109.334394
	   41 B(13,9,14)      =    106.238737     0.000000    -0.003225   106.235512
	   42 B(15,12,16)     =    107.801413     0.000000    -0.000391   107.801022
	   43 B(15,12,17)     =    107.669145     0.000000    -0.004078   107.665067
	   44 B(16,12,17)     =    107.799909     0.000000    -0.003008   107.796901
	   45 D(1,2,3,4)      =   -179.904557    -0.000002    -0.128487  -180.033044
	   46 D(1,2,3,5)      =     -0.091572     0.000002     0.123572     0.032000
	   47 D(2,3,4,6)      =    179.900873     0.000002     0.137117   180.037990
	   48 D(2,3,4,7)      =     56.442634     0.000002     0.133262    56.575897
	   49 D(2,3,4,8)      =    -56.642571     0.000002     0.146036   -56.496535
	   50 D(3,4,6,9)      =    179.996732     0.000000     0.013128   180.009860
	   51 D(3,4,6,10)     =    -57.845205     0.000000     0.012656   -57.832550
	   52 D(3,4,6,11)     =     57.839504     0.000000     0.009875    57.849379
	   53 D(4,6,9,12)     =   -179.989984    -0.000000     0.017604  -179.972379
	   54 D(4,6,9,13)     =     58.041348     0.000000     0.016707    58.058055
	   55 D(4,6,9,14)     =    -58.020541    -0.000000     0.019928   -58.000613
	   56 D(5,3,4,6)      =      0.096881    -0.000002    -0.127105    -0.030224
	   57 D(5,3,4,7)      =   -123.361358    -0.000002    -0.130960  -123.492318
	   58 D(5,3,4,8)      =    123.553437    -0.000002    -0.118186   123.435251
	   59 D(6,9,12,15)    =    -59.894718    -0.000000     0.047433   -59.847286
	   60 D(6,9,12,16)    =   -179.968300    -0.000000     0.045373  -179.922928
	   61 D(6,9,12,17)    =     59.959997    -0.000000     0.047753    60.007750
	   62 D(7,4,6,9)      =    -58.878048    -0.000000     0.012828   -58.865220
	   63 D(7,4,6,10)     =     63.280015    -0.000000     0.012356    63.292371
	   64 D(7,4,6,11)     =    178.964724    -0.000000     0.009575   178.974299
	   65 D(8,4,6,9)      =     58.876311     0.000000     0.004073    58.880384
	   66 D(8,4,6,10)     =   -178.965626    -0.000000     0.003600  -178.962026
	   67 D(8,4,6,11)     =    -63.280917     0.000000     0.000820   -63.280097
	   68 D(10,6,9,12)    =     58.169234     0.000000     0.012009    58.181243
	   69 D(10,6,9,13)    =    -63.799434     0.000000     0.011112   -63.788322
	   70 D(10,6,9,14)    =   -179.861323    -0.000000     0.014333  -179.846990
	   71 D(11,6,9,12)    =    -58.149735    -0.000000     0.026236   -58.123500
	   72 D(11,6,9,13)    =    179.881597     0.000000     0.025338   179.906935
	   73 D(11,6,9,14)    =     63.819708    -0.000000     0.028559    63.848267
	   74 D(13,9,12,15)   =     62.143130    -0.000000     0.050339    62.193469
	   75 D(13,9,12,16)   =    -57.930452    -0.000000     0.048279   -57.882173
	   76 D(13,9,12,17)   =   -178.002155    -0.000000     0.050659  -177.951496
	   77 D(14,9,12,15)   =    178.066634     0.000000     0.045365   178.112000
	   78 D(14,9,12,16)   =     57.993053     0.000000     0.043305    58.036358
	   79 D(14,9,12,17)   =    -62.078651     0.000000     0.045686   -62.032965
	 ---------------------------------------------------------------------------

  ==> Convergence Check <==

  Measures of convergence in internal coordinates in au.
  Criteria marked as inactive (o), active & met (*), and active & unmet ( ).
  ---------------------------------------------------------------------------------------------
   Step     Total Energy     Delta E     MAX Force     RMS Force      MAX Disp      RMS Disp   
  ---------------------------------------------------------------------------------------------
    Convergence Criteria    1.00e-06 *    3.00e-04 *             o    1.20e-03 *             o
  ---------------------------------------------------------------------------------------------
      4    -345.04893059    5.06e-07 *    1.13e-04 *    3.61e-05 o    2.55e-03      8.00e-04 o  ~
  ---------------------------------------------------------------------------------------------


  **** Optimization is complete! (in 4 steps) ****

  ==> Optimization Summary <==

  Measures of convergence in internal coordinates in au.
  --------------------------------------------------------------------------------------------------------------- ~
   Step         Total Energy             Delta E       MAX Force       RMS Force        MAX Disp        RMS Disp  ~
  --------------------------------------------------------------------------------------------------------------- ~
      1    -345.048753416509   -345.048753416509      0.01135263      0.00173493      0.01408584      0.00312084  ~
      2    -345.048927804302     -0.000174387793      0.00080246      0.00015294      0.00302317      0.00087578  ~
      3    -345.048931090558     -0.000003286256      0.00022685      0.00005009      0.00220833      0.00075627  ~
      4    -345.048930585006      0.000000505551      0.00011326      0.00003612      0.00254881      0.00080028  ~
  --------------------------------------------------------------------------------------------------------------- ~

	Writing optimization data to binary file.
	Final energy is   -345.0489305850065
	Final (previous) structure:
	Cartesian Geometry (in Angstrom)
	    H    -3.4433068845  -0.1766347812  -0.0016556404
	    O    -2.6588481654  -0.7042151551  -0.0004598134
	    C    -1.6053967996   0.1076799127   0.0011455749
	    C    -0.3106160336  -0.6588530765   0.0007913117
	    O    -1.7183504560   1.2846292170  -0.0006270680
	    C     0.9265807575   0.2272330246   0.0001781834
	    H    -0.3276273752  -1.3136812585  -0.8644474986
	    H    -0.3270411737  -1.3133341885   0.8662976808
	    C     2.2201559662  -0.5820717048  -0.0000878862
	    H     0.8999454813   0.8782206990  -0.8663898493
	    H     0.9005423123   0.8785806488   0.8664864263
	    C     3.4666895911   0.2960123514  -0.0004567516
	    H     2.2390730059  -1.2340950819  -0.8693824400
	    H     2.2395051022  -1.2339855467   0.8692702883
	    H     3.4935493763   0.9358573203  -0.8758872083
	    H     4.3688218713  -0.3045266223  -0.0011989217
	    H     3.4945592791   0.9351659078   0.8754578922
	Saving final (previous) structure.
			--------------------------
			 OPTKING Finished Execution 
			--------------------------

    Final optimized geometry and variables:
    Molecular point group: c1
    Full point group: C1

    Geometry (in Angstrom), charge = 0, multiplicity = 1:

    H           -3.443306621538    -0.176634767727    -0.001655640268
    O           -2.658847962400    -0.704215101306    -0.000459813412
    C           -1.605396676967     0.107679904517     0.001145574850
    C           -0.310616009854    -0.658853026235     0.000791311618
    O           -1.718350324829     1.284629118931    -0.000627067903
    C            0.926580686711     0.227233007203     0.000178183387
    H           -0.327627350196    -1.313681158200    -0.864447432550
    H           -0.327041148755    -1.313334088237     0.866297614629
    C            2.220155796678    -0.582071660327    -0.000087886215
    H            0.899945412600     0.878220631946    -0.866389783120
    H            0.900542243494     0.878580581711     0.866486360132
    C            3.466689326402     0.296012328792    -0.000456751558
    H            2.239072834875    -1.234094987639    -0.869382373641
    H            2.239504931138    -1.233985452467     0.869270221943
    H            3.493549109566     0.935857248807    -0.875887141462
    H            4.368821537716    -0.304526599091    -0.001198921572
    H            3.494559012201     0.935165836386     0.875457825347

	Cleaning optimization helper files.


Properties will be evaluated at   0.000000,   0.000000,   0.000000 Bohr

Properties computed using the  density matrix

  Nuclear Dipole Moment: (a.u.)
     X:    12.6704      Y:    -1.8238      Z:    -0.0014

  Electronic Dipole Moment: (a.u.)
     X:   -12.5517      Y:     1.1448      Z:     0.0021

  Dipole Moment: (a.u.)
     X:     0.1187      Y:    -0.6790      Z:     0.0007     Total:     0.6893

  Dipole Moment: (Debye)
     X:     0.3017      Y:    -1.7258      Z:     0.0018     Total:     1.7520

  Quadrupole Moment: (Debye Ang)
    XX:   -39.2618     YY:   -48.9837     ZZ:   -42.3914
    XY:     1.2801     XZ:     0.0013     YZ:     0.0022

  Traceless Quadrupole Moment: (Debye Ang)
    XX:     4.2838     YY:    -5.4380     ZZ:     1.1542
    XY:     1.2801     XZ:     0.0013     YZ:     0.0022

  Mulliken Charges: (a.u.)
   Center  Symbol    Alpha    Beta     Spin     Total
       1     H     0.38244  0.38244  0.00000  0.23512
       2     O     4.15973  4.15973  0.00000 -0.31945
       3     C     2.80469  2.80469  0.00000  0.39061
       4     C     3.11092  3.11092  0.00000 -0.22183
       5     O     4.19113  4.19113  0.00000 -0.38227
       6     C     3.08199  3.08199  0.00000 -0.16399
       7     H     0.43813  0.43813  0.00000  0.12374
       8     H     0.43820  0.43820  0.00000  0.12359
       9     C     3.08605  3.08605  0.00000 -0.17209
      10     H     0.44622  0.44622  0.00000  0.10755
      11     H     0.44626  0.44626  0.00000  0.10749
      12     C     3.14924  3.14924  0.00000 -0.29849
      13     H     0.45484  0.45484  0.00000  0.09032
      14     H     0.45484  0.45484  0.00000  0.09032
      15     H     0.45366  0.45366  0.00000  0.09269
      16     H     0.44801  0.44801  0.00000  0.10399
      17     H     0.45366  0.45366  0.00000  0.09269

   Total alpha = 28.00000, Total beta = 28.00000, Total charge = -0.00000


*** PSI4 exiting successfully. Buy a developer a beer!
