    -----------------------------------------------------------------------
          Psi4: An Open-Source Ab Initio Electronic Structure Package
                              Psi4 1.0.54 Driver

                          Git: Rev {master} 8d4cec3 dirty

    J. M. Turney, A. C. Simmonett, R. M. Parrish, E. G. Hohenstein,
    F. A. Evangelista, J. T. Fermann, B. J. Mintz, L. A. Burns, J. J. Wilke,
    M. L. Abrams, N. J. Russ, M. L. Leininger, C. L. Janssen, E. T. Seidl,
    W. D. Allen, H. F. Schaefer, R. A. King, E. F. Valeev, C. D. Sherrill,
    and T. D. Crawford, WIREs Comput. Mol. Sci. 2, 556-565 (2012)
    (doi: 10.1002/wcms.93)

                         Additional Contributions by
    A. E. DePrince, U. Bozkaya, A. Yu. Sokolov, D. G. A. Smith, R. Di Remigio,
    R. M. Richard, J. F. Gonthier, H. R. McAlexander, M. Saitow, and
    B. P. Pritchard
    -----------------------------------------------------------------------


    Psi4 started on: Sat Sep 10 16:56:59 2016

    Process ID:  40310
    PSI4DATADIR: /export131/home/mjharvey/miniconda3/share/psi4
    Memory level set to 256.000 MB

  ==> Input File <==

--------------------------------------------------------------------------
set {
	reference rhf
	basis cc-pvtz
}


set_num_threads( 4 )
memory 2 gb

molecule MOL {
0 1

H	 1.933355	 -3.771547	 0.341952
C	 2.178583	 -2.719836	 0.253203
C	 0.917308	 -1.868921	 0.154304
H	 2.769318	 -2.444938	 1.120672
H	 2.805619	 -2.600327	 -0.624043
C	 1.215950	 -0.382441	 0.027187
H	 0.293395	 -2.024080	 1.027473
H	 0.332716	 -2.190533	 -0.704413
N	 0.000002	 0.398953	 -0.040851
H	 1.778471	 -0.054399	 0.896168
H	 1.862729	 -0.215664	 -0.839384
C	 -1.215959	 -0.382435	 0.027143
H	 -0.000012	 1.086078	 0.683841
C	 -2.451944	 0.502410	 -0.038737
H	 -1.221867	 -1.069392	 -0.813828
H	 -1.259993	 -0.999709	 0.929424
C	 -3.752217	 -0.292550	 0.005776
H	 -2.407325	 1.093801	 -0.946480
H	 -2.431979	 1.206234	 0.790023
H	 -3.817783	 -0.982946	 -0.828547
H	 -4.612613	 0.364348	 -0.042306
H	 -3.830160	 -0.871666	 0.919868

	symmetry c1
}
set optking {
	frozen_dihedral = ("
		10 6 9 12
	")
}

ee,wfn = optimize('scf', return_wfn=True)
oeprop( wfn, 'DIPOLE', 'QUADRUPOLE', 'MULLIKEN_CHARGES')
f=open( 'psi4out.xyz', 'w' )
f.write( "22  " )
f.write( str(ee) + "\n" )
f.write( MOL.save_string_xyz() )
f.close()
--------------------------------------------------------------------------

  Memory set to   2.000 GiB by Python script.
gradient() will perform analytic gradient computation.

*** tstart() called on cx1-27-1-1
*** at Sat Sep 10 16:57:00 2016


         ---------------------------------------------------------
                                   SCF
            by Justin Turney, Rob Parrish, and Andy Simmonett
                              RHF Reference
                        4 Threads,   2000 MiB Core
         ---------------------------------------------------------

  ==> Geometry <==

    Molecular point group: c1
    Full point group: C1

    Geometry (in Angstrom), charge = 0, multiplicity = 1:

       Center              X                  Y                   Z               Mass       
    ------------   -----------------  -----------------  -----------------  -----------------
           H          2.380015714359    -3.082083214547     0.277673789661     1.007825032070
           C          2.625243714359    -2.030372214547     0.188924789661    12.000000000000
           C          1.363968714359    -1.179457214547     0.090025789661    12.000000000000
           H          3.215978714359    -1.755474214547     1.056393789661     1.007825032070
           H          3.252279714359    -1.910863214547    -0.688321210339     1.007825032070
           C          1.662610714359     0.307022785453    -0.037091210339    12.000000000000
           H          0.740055714359    -1.334616214547     0.963194789661     1.007825032070
           H          0.779376714359    -1.501069214547    -0.768691210339     1.007825032070
           N          0.446662714359     1.088416785453    -0.105129210339    14.003074004780
           H          2.225131714359     0.635064785453     0.831889789661     1.007825032070
           H          2.309389714359     0.473799785453    -0.903662210339     1.007825032070
           C         -0.769298285641     0.307028785453    -0.037135210339    12.000000000000
           H          0.446648714359     1.775541785453     0.619562789661     1.007825032070
           C         -2.005283285641     1.191873785453    -0.103015210339    12.000000000000
           H         -0.775206285641    -0.379928214547    -0.878106210339     1.007825032070
           H         -0.813332285641    -0.310245214547     0.865145789661     1.007825032070
           C         -3.305556285641     0.396913785453    -0.058502210339    12.000000000000
           H         -1.960664285641     1.783264785453    -1.010758210339     1.007825032070
           H         -1.985318285641     1.895697785453     0.725744789661     1.007825032070
           H         -3.371122285641    -0.293482214547    -0.892825210339     1.007825032070
           H         -4.165952285641     1.053811785453    -0.106584210339     1.007825032070
           H         -3.383499285641    -0.182202214547     0.855589789661     1.007825032070

  Running in c1 symmetry.

  Rotational constants: A =      0.19936  B =      0.03455  C =      0.03049 [cm^-1]
  Rotational constants: A =   5976.63022  B =   1035.68254  C =    913.99201 [MHz]
  Nuclear repulsion =  323.427352297791117

  Charge       = 0
  Multiplicity = 1
  Electrons    = 58
  Nalpha       = 29
  Nbeta        = 29

  ==> Algorithm <==

  SCF Algorithm Type is DF.
  DIIS enabled.
  MOM disabled.
  Fractional occupation disabled.
  Guess Type is SAD.
  Energy threshold   = 1.00e-08
  Density threshold  = 1.00e-08
  Integral threshold = 0.00e+00

  ==> Primary Basis <==

  Basis Set: CC-PVTZ
    Number of shells: 160
    Number of basis function: 420
    Number of Cartesian functions: 470
    Spherical Harmonics?: true
    Max angular momentum: 3

  ==> Pre-Iterations <==

   -------------------------------------------------------
    Irrep   Nso     Nmo     Nalpha   Nbeta   Ndocc  Nsocc
   -------------------------------------------------------
     A        420     420       0       0       0       0
   -------------------------------------------------------
    Total     420     420      29      29      29       0
   -------------------------------------------------------

  ==> Integral Setup <==

  ==> DFJK: Density-Fitted J/K Matrices <==

    J tasked:                  Yes
    K tasked:                  Yes
    wK tasked:                  No
    OpenMP threads:              4
    Integrals threads:           4
    Memory (MB):              1430
    Algorithm:                Core
    Integral Cache:           NONE
    Schwarz Cutoff:          1E-12
    Fitting Condition:       1E-12

   => Auxiliary Basis Set <=

  Basis Set: 
    Number of shells: 325
    Number of basis function: 1003
    Number of Cartesian functions: 1197
    Spherical Harmonics?: true
    Max angular momentum: 4

  Minimum eigenvalue in the overlap matrix is 3.1535122519E-04.
  Using Symmetric Orthogonalization.
  SCF Guess: Superposition of Atomic Densities via on-the-fly atomic UHF.

  ==> Iterations <==

                           Total Energy        Delta E     RMS |[F,P]|

   @DF-RHF iter   0:  -294.16824859743258   -2.94168e+02   1.29717e-02 
   @DF-RHF iter   1:  -290.31669913985252    3.85155e+00   1.06470e-03 
   @DF-RHF iter   2:  -290.45139916734661   -1.34700e-01   3.80945e-04 DIIS
   @DF-RHF iter   3:  -290.46585932548192   -1.44602e-02   1.36163e-04 DIIS
   @DF-RHF iter   4:  -290.46840385524160   -2.54453e-03   2.76730e-05 DIIS
   @DF-RHF iter   5:  -290.46852183049236   -1.17975e-04   9.64127e-06 DIIS
   @DF-RHF iter   6:  -290.46853546520958   -1.36347e-05   2.43404e-06 DIIS
   @DF-RHF iter   7:  -290.46853639430947   -9.29100e-07   6.28209e-07 DIIS
   @DF-RHF iter   8:  -290.46853647138130   -7.70718e-08   1.91806e-07 DIIS
   @DF-RHF iter   9:  -290.46853647791397   -6.53267e-09   5.84261e-08 DIIS
   @DF-RHF iter  10:  -290.46853647868613   -7.72161e-10   1.35770e-08 DIIS
   @DF-RHF iter  11:  -290.46853647872501   -3.88809e-11   3.65728e-09 DIIS

  ==> Post-Iterations <==

    Orbital Energies (a.u.)
    -----------------------

    Doubly Occupied:                                                      

       1A    -15.524319     2A    -11.235497     3A    -11.232708  
       4A    -11.210345     5A    -11.209304     6A    -11.206677  
       7A    -11.206550     8A     -1.208649     9A     -1.054951  
      10A     -1.028106    11A     -0.928603    12A     -0.881007  
      13A     -0.820027    14A     -0.770603    15A     -0.675307  
      16A     -0.627672    17A     -0.621223    18A     -0.614251  
      19A     -0.569796    20A     -0.560734    21A     -0.540856  
      22A     -0.533492    23A     -0.503870    24A     -0.489887  
      25A     -0.481109    26A     -0.471032    27A     -0.465773  
      28A     -0.453175    29A     -0.350542  

    Virtual:                                                              

      30A      0.134569    31A      0.152552    32A      0.154595  
      33A      0.178447    34A      0.182484    35A      0.194027  
      36A      0.205777    37A      0.221896    38A      0.223839  
      39A      0.233386    40A      0.246417    41A      0.250653  
      42A      0.271735    43A      0.275507    44A      0.291886  
      45A      0.311784    46A      0.317627    47A      0.350912  
      48A      0.364169    49A      0.385273    50A      0.386860  
      51A      0.402872    52A      0.414479    53A      0.418608  
      54A      0.424143    55A      0.443212    56A      0.485707  
      57A      0.490181    58A      0.503222    59A      0.513389  
      60A      0.528686    61A      0.547346    62A      0.574873  
      63A      0.575668    64A      0.587515    65A      0.598423  
      66A      0.601805    67A      0.615000    68A      0.620660  
      69A      0.634557    70A      0.640529    71A      0.653535  
      72A      0.657968    73A      0.658568    74A      0.666118  
      75A      0.668624    76A      0.673344    77A      0.684924  
      78A      0.686190    79A      0.709832    80A      0.712543  
      81A      0.722919    82A      0.737685    83A      0.754000  
      84A      0.788748    85A      0.796040    86A      0.810628  
      87A      0.819578    88A      0.840513    89A      0.854337  
      90A      0.879218    91A      0.914754    92A      0.921972  
      93A      0.930087    94A      0.936809    95A      0.947897  
      96A      0.975121    97A      0.997970    98A      1.005215  
      99A      1.017046   100A      1.034438   101A      1.072210  
     102A      1.074789   103A      1.091383   104A      1.105434  
     105A      1.135009   106A      1.151989   107A      1.153330  
     108A      1.178085   109A      1.188955   110A      1.197939  
     111A      1.220439   112A      1.237305   113A      1.239143  
     114A      1.263397   115A      1.273927   116A      1.277718  
     117A      1.293252   118A      1.294604   119A      1.316083  
     120A      1.324137   121A      1.338628   122A      1.344685  
     123A      1.349553   124A      1.357037   125A      1.360297  
     126A      1.368603   127A      1.379369   128A      1.394676  
     129A      1.398987   130A      1.407586   131A      1.415298  
     132A      1.442781   133A      1.453436   134A      1.458285  
     135A      1.486562   136A      1.488505   137A      1.506803  
     138A      1.519334   139A      1.532774   140A      1.538069  
     141A      1.553333   142A      1.569457   143A      1.577990  
     144A      1.591561   145A      1.609485   146A      1.621081  
     147A      1.624772   148A      1.633553   149A      1.659594  
     150A      1.665277   151A      1.684561   152A      1.695986  
     153A      1.705793   154A      1.720670   155A      1.725378  
     156A      1.741849   157A      1.766000   158A      1.788616  
     159A      1.806206   160A      1.818049   161A      1.854590  
     162A      1.869616   163A      1.897981   164A      1.911239  
     165A      1.922689   166A      1.935472   167A      1.937279  
     168A      2.042328   169A      2.090461   170A      2.109178  
     171A      2.210076   172A      2.234775   173A      2.329522  
     174A      2.499331   175A      2.511469   176A      2.588628  
     177A      2.611400   178A      2.630492   179A      2.642279  
     180A      2.672627   181A      2.682862   182A      2.690419  
     183A      2.734199   184A      2.752529   185A      2.775103  
     186A      2.791954   187A      2.797409   188A      2.811648  
     189A      2.820131   190A      2.835116   191A      2.871448  
     192A      2.883700   193A      2.913890   194A      2.918993  
     195A      2.927769   196A      2.941119   197A      2.978393  
     198A      2.997542   199A      3.005691   200A      3.045733  
     201A      3.048683   202A      3.062716   203A      3.070690  
     204A      3.080333   205A      3.111947   206A      3.122334  
     207A      3.129366   208A      3.136881   209A      3.143448  
     210A      3.164170   211A      3.172353   212A      3.191199  
     213A      3.195353   214A      3.212209   215A      3.224855  
     216A      3.237591   217A      3.255301   218A      3.278427  
     219A      3.295370   220A      3.299314   221A      3.330800  
     222A      3.335962   223A      3.366559   224A      3.368975  
     225A      3.377813   226A      3.379152   227A      3.399822  
     228A      3.405531   229A      3.418644   230A      3.424502  
     231A      3.431380   232A      3.444344   233A      3.448126  
     234A      3.468167   235A      3.482935   236A      3.484648  
     237A      3.488071   238A      3.496432   239A      3.510359  
     240A      3.516840   241A      3.529055   242A      3.538350  
     243A      3.545652   244A      3.551259   245A      3.573965  
     246A      3.596701   247A      3.610196   248A      3.630576  
     249A      3.632114   250A      3.645068   251A      3.656515  
     252A      3.674444   253A      3.682420   254A      3.705079  
     255A      3.724023   256A      3.742408   257A      3.752028  
     258A      3.767527   259A      3.774984   260A      3.810045  
     261A      3.813393   262A      3.819715   263A      3.833501  
     264A      3.841265   265A      3.847533   266A      3.869069  
     267A      3.873259   268A      3.890462   269A      3.909110  
     270A      3.929508   271A      3.936996   272A      3.943826  
     273A      3.961752   274A      3.970736   275A      4.023740  
     276A      4.034049   277A      4.057134   278A      4.072232  
     279A      4.080964   280A      4.094885   281A      4.109115  
     282A      4.125051   283A      4.138372   284A      4.145082  
     285A      4.149073   286A      4.157026   287A      4.166374  
     288A      4.175620   289A      4.177464   290A      4.195317  
     291A      4.224872   292A      4.232998   293A      4.235881  
     294A      4.245337   295A      4.260237   296A      4.279856  
     297A      4.289878   298A      4.302565   299A      4.328608  
     300A      4.332271   301A      4.354245   302A      4.360273  
     303A      4.367628   304A      4.385904   305A      4.395954  
     306A      4.399963   307A      4.411106   308A      4.424529  
     309A      4.426779   310A      4.447659   311A      4.458930  
     312A      4.465156   313A      4.476399   314A      4.479682  
     315A      4.490224   316A      4.514093   317A      4.535104  
     318A      4.542627   319A      4.553305   320A      4.576036  
     321A      4.600589   322A      4.607150   323A      4.616472  
     324A      4.643092   325A      4.652452   326A      4.658447  
     327A      4.669203   328A      4.682312   329A      4.700403  
     330A      4.715869   331A      4.738862   332A      4.739968  
     333A      4.747963   334A      4.783678   335A      4.824064  
     336A      4.834564   337A      4.892023   338A      4.907983  
     339A      4.928209   340A      4.958619   341A      4.983320  
     342A      4.997416   343A      5.017000   344A      5.057751  
     345A      5.069750   346A      5.091544   347A      5.107070  
     348A      5.135055   349A      5.157436   350A      5.186352  
     351A      5.199280   352A      5.225814   353A      5.246295  
     354A      5.258903   355A      5.264827   356A      5.266639  
     357A      5.282436   358A      5.289888   359A      5.307972  
     360A      5.317623   361A      5.362401   362A      5.375096  
     363A      5.376664   364A      5.408163   365A      5.425391  
     366A      5.461560   367A      5.475221   368A      5.493239  
     369A      5.520915   370A      5.544244   371A      5.568373  
     372A      5.573614   373A      5.586943   374A      5.593686  
     375A      5.626922   376A      5.681263   377A      5.717490  
     378A      5.738817   379A      5.743261   380A      5.751569  
     381A      5.764804   382A      5.773732   383A      5.779553  
     384A      5.793059   385A      5.807033   386A      5.819370  
     387A      5.852475   388A      5.865674   389A      5.900666  
     390A      5.915240   391A      5.918243   392A      5.950175  
     393A      5.974088   394A      5.984995   395A      6.005279  
     396A      6.019634   397A      6.071638   398A      6.104373  
     399A      6.198668   400A      6.212725   401A      6.290260  
     402A      6.314091   403A      6.323322   404A      6.324925  
     405A      6.337247   406A      6.347954   407A      6.381313  
     408A      6.404888   409A      6.481933   410A      6.489619  
     411A      6.588613   412A      6.626957   413A      7.147910  
     414A     12.427336   415A     13.138881   416A     13.649208  
     417A     13.859145   418A     14.256393   419A     14.285980  
     420A     14.671745  

    Final Occupation by Irrep:
              A 
    DOCC [    29 ]

  Energy converged.

  @DF-RHF Final Energy:  -290.46853647872501

   => Energetics <=

    Nuclear Repulsion Energy =            323.4273522977911171
    One-Electron Energy =               -1032.8396500010176169
    Two-Electron Energy =                 418.9437612245014861
    DFT Exchange-Correlation Energy =       0.0000000000000000
    Empirical Dispersion Energy =           0.0000000000000000
    PCM Polarization Energy =               0.0000000000000000
    EFP Energy =                            0.0000000000000000
    Total Energy =                       -290.4685364787250137


  Saving occupied orbitals to File 180.

*** tstop() called on cx1-27-1-1 at Sat Sep 10 16:57:13 2016
Module time:
	user time   =      46.34 seconds =       0.77 minutes
	system time =       0.90 seconds =       0.01 minutes
	total time  =         13 seconds =       0.22 minutes
Total time:
	user time   =      46.34 seconds =       0.77 minutes
	system time =       0.90 seconds =       0.01 minutes
	total time  =         13 seconds =       0.22 minutes


Properties will be evaluated at   0.000000,   0.000000,   0.000000 Bohr

Properties computed using the SCF density matrix

  Nuclear Dipole Moment: (a.u.)
     X:    -1.0383      Y:    -2.9400      Z:     0.8874

  Electronic Dipole Moment: (a.u.)
     X:     1.0106      Y:     2.7653      Z:    -0.5012

  Dipole Moment: (a.u.)
     X:    -0.0277      Y:    -0.1748      Z:     0.3862     Total:     0.4248

  Dipole Moment: (Debye)
     X:    -0.0704      Y:    -0.4443      Z:     0.9815     Total:     1.0797


*** tstart() called on cx1-27-1-1
*** at Sat Sep 10 16:57:13 2016


         ------------------------------------------------------------
                                   SCF GRAD                          
                          Rob Parrish, Justin Turney,                
                       Andy Simmonett, and Alex Sokolov              
         ------------------------------------------------------------

  ==> Geometry <==

    Molecular point group: c1
    Full point group: C1

    Geometry (in Angstrom), charge = 0, multiplicity = 1:

       Center              X                  Y                   Z               Mass       
    ------------   -----------------  -----------------  -----------------  -----------------
           H          2.380015714359    -3.082083214547     0.277673789661     1.007825032070
           C          2.625243714359    -2.030372214547     0.188924789661    12.000000000000
           C          1.363968714359    -1.179457214547     0.090025789661    12.000000000000
           H          3.215978714359    -1.755474214547     1.056393789661     1.007825032070
           H          3.252279714359    -1.910863214547    -0.688321210339     1.007825032070
           C          1.662610714359     0.307022785453    -0.037091210339    12.000000000000
           H          0.740055714359    -1.334616214547     0.963194789661     1.007825032070
           H          0.779376714359    -1.501069214547    -0.768691210339     1.007825032070
           N          0.446662714359     1.088416785453    -0.105129210339    14.003074004780
           H          2.225131714359     0.635064785453     0.831889789661     1.007825032070
           H          2.309389714359     0.473799785453    -0.903662210339     1.007825032070
           C         -0.769298285641     0.307028785453    -0.037135210339    12.000000000000
           H          0.446648714359     1.775541785453     0.619562789661     1.007825032070
           C         -2.005283285641     1.191873785453    -0.103015210339    12.000000000000
           H         -0.775206285641    -0.379928214547    -0.878106210339     1.007825032070
           H         -0.813332285641    -0.310245214547     0.865145789661     1.007825032070
           C         -3.305556285641     0.396913785453    -0.058502210339    12.000000000000
           H         -1.960664285641     1.783264785453    -1.010758210339     1.007825032070
           H         -1.985318285641     1.895697785453     0.725744789661     1.007825032070
           H         -3.371122285641    -0.293482214547    -0.892825210339     1.007825032070
           H         -4.165952285641     1.053811785453    -0.106584210339     1.007825032070
           H         -3.383499285641    -0.182202214547     0.855589789661     1.007825032070

  Nuclear repulsion =  323.427352297791117

  ==> Basis Set <==

  Basis Set: CC-PVTZ
    Number of shells: 160
    Number of basis function: 420
    Number of Cartesian functions: 470
    Spherical Harmonics?: true
    Max angular momentum: 3

  ==> DFJKGrad: Density-Fitted SCF Gradients <==

    Gradient:                    1
    J tasked:                  Yes
    K tasked:                  Yes
    wK tasked:                  No
    OpenMP threads:              4
    Integrals threads:           4
    Memory (MB):              1430
    Schwarz Cutoff:          0E+00
    Fitting Condition:       1E-12

   => Auxiliary Basis Set <=

  Basis Set: 
    Number of shells: 325
    Number of basis function: 1003
    Number of Cartesian functions: 1197
    Spherical Harmonics?: true
    Max angular momentum: 4


  -Total Gradient:
     Atom            X                  Y                   Z
    ------   -----------------  -----------------  -----------------
       1       -0.000015143502     0.000185913001     0.000068092378
       2       -0.000006724346    -0.000898770622    -0.000648454765
       3       -0.012718587801     0.010268228581     0.000799587056
       4       -0.000446253593     0.000132753326    -0.000047985612
       5       -0.000018780093    -0.000145219059     0.000015486269
       6       -0.007233394718     0.004641627375    -0.003173501080
       7       -0.007204962035     0.004884258898     0.001805889386
       8       -0.006340224662     0.001993691576    -0.003736730173
       9        0.007663056906    -0.006622755545     0.000561575948
      10       -0.004526368609     0.003055786845     0.000453288609
      11        0.005427187231    -0.001015204424    -0.002021627244
      12        0.012801107199    -0.005715147897     0.000910760478
      13        0.001466229904     0.001202040870     0.003463664409
      14       -0.001443103180    -0.000755341033     0.000308117373
      15        0.005588174969    -0.005055585210    -0.002696323539
      16        0.006659061362    -0.005658403137     0.004028234949
      17       -0.000236168064     0.000005341165    -0.000025934766
      18        0.000241043856    -0.000296696944     0.000019032932
      19        0.000208687294    -0.000300047169    -0.000054354535
      20        0.000028470374     0.000035105396     0.000045764107
      21        0.000055733941     0.000014469640    -0.000007262455
      22        0.000050957564     0.000043954371    -0.000067319724


*** tstop() called on cx1-27-1-1 at Sat Sep 10 16:57:26 2016
Module time:
	user time   =      47.99 seconds =       0.80 minutes
	system time =       0.88 seconds =       0.01 minutes
	total time  =         13 seconds =       0.22 minutes
Total time:
	user time   =      94.44 seconds =       1.57 minutes
	system time =       1.79 seconds =       0.03 minutes
	total time  =         26 seconds =       0.43 minutes

			-----------------------------------------
			 OPTKING 2.0: for geometry optimizations 
			  - R.A. King,  Bethel University        
			-----------------------------------------

	Internal coordinates to be generated automatically.
	Detected frag 1 with atoms:  1 2 3 4 5 6 7 8 9 10 11 12 13 14 15 16 17 18 19 20
	 21 22
	---Fragment 1 Bond Connectivity---
	 1 : 2
	 2 : 1 3 4 5
	 3 : 2 6 7 8
	 4 : 2
	 5 : 2
	 6 : 3 9 10 11
	 7 : 3
	 8 : 3
	 9 : 6 12 13
	 10 : 6
	 11 : 6
	 12 : 9 14 15 16
	 13 : 9
	 14 : 12 17 18 19
	 15 : 12
	 16 : 12
	 17 : 14 20 21 22
	 18 : 14
	 19 : 14
	 20 : 17
	 21 : 17
	 22 : 17

	Assuming in current code that numbering for constraints corresponds to unified fragment.
	Frozen dihedral atom list: 
	    10     6     9    12
	---Fragment 1 Geometry and Gradient---
	 H           4.4975778921       -5.8242931943        0.5247274167
	 C           4.9609916522       -3.8368474333        0.3570161122
	 C           2.5775273240       -2.2288511210        0.1701240874
	 H           6.0773190193       -3.3173654988        1.9962949509
	 H           6.1459179677       -3.6110081529       -1.3007385790
	 C           3.1418789157        0.5801889811       -0.0700922295
	 H           1.3985026232       -2.5220591380        1.8201743651
	 H           1.4728085445       -2.8366097220       -1.4526158683
	 N           0.8440702039        2.0568096429       -0.1986654161
	 H           4.2048895497        1.2000985211        1.5720438752
	 H           4.3641140942        0.8953518363       -1.7076740942
	 C          -1.4537630744        0.5802003194       -0.0701753774
	 H           0.8440437477        3.3552877120        1.1708039946
	 C          -3.7894362287        2.2523150395       -0.1946705351
	 H          -1.4649275764       -0.7179602757       -1.6593802531
	 H          -1.5369752749       -0.5862784895        1.6348886075
	 C          -6.2465960967        0.7500583529       -0.1105531557
	 H          -3.7051185384        3.3698820669       -1.9100562041
	 H          -3.7517078465        3.5823496452        1.3714588948
	 H          -6.3704978803       -0.5546010104       -1.6871951321
	 H          -7.8725089025        1.9914156701       -0.2014149676
	 H          -6.3938870207       -0.3443122863        1.6168303846
	            -0.0000151435        0.0001859130        0.0000680924
	            -0.0000067243       -0.0008987706       -0.0006484548
	            -0.0127185878        0.0102682286        0.0007995871
	            -0.0004462536        0.0001327533       -0.0000479856
	            -0.0000187801       -0.0001452191        0.0000154863
	            -0.0072333947        0.0046416274       -0.0031735011
	            -0.0072049620        0.0048842589        0.0018058894
	            -0.0063402247        0.0019936916       -0.0037367302
	             0.0076630569       -0.0066227555        0.0005615759
	            -0.0045263686        0.0030557868        0.0004532886
	             0.0054271872       -0.0010152044       -0.0020216272
	             0.0128011072       -0.0057151479        0.0009107605
	             0.0014662299        0.0012020409        0.0034636644
	            -0.0014431032       -0.0007553410        0.0003081174
	             0.0055881750       -0.0050555852       -0.0026963235
	             0.0066590614       -0.0056584031        0.0040282349
	            -0.0002361681        0.0000053412       -0.0000259348
	             0.0002410439       -0.0002966969        0.0000190329
	             0.0002086873       -0.0003000472       -0.0000543545
	             0.0000284704        0.0000351054        0.0000457641
	             0.0000557339        0.0000144696       -0.0000072625
	             0.0000509576        0.0000439544       -0.0000673197

	Previous optimization step data not found.  Starting new optimization.

	---Fragment 1 Intrafragment Coordinates---
	 - Coordinate -           - BOHR/RAD -       - ANG/DEG -
	 R(1,2)           =         2.047638	       1.083563
	 R(2,3)           =         2.881229	       1.524681
	 R(2,4)           =         2.050191	       1.084914
	 R(2,5)           =         2.050172	       1.084904
	 R(3,6)           =         2.875222	       1.521502
	 R(3,7)           =         2.049082	       1.084327
	 R(3,8)           =         2.055008	       1.087464
	 R(6,9)           =         2.734386	       1.446975
	 R(6,10)          =         2.052045	       1.085896
	 R(6,11)          =         2.067574	       1.094113
	 R(9,12)          =         2.734396	       1.446980
	 R(9,13)          =         1.887192	       0.998659
	 R(12,14)         =         2.875211	       1.521496
	 R(12,15)         =         2.052052	       1.085899
	 R(12,16)         =         2.067569	       1.094110
	 R(14,17)         =         2.881230	       1.524681
	 R(14,18)         =         2.049052	       1.084312
	 R(14,19)         =         2.055037	       1.087479
	 R(17,20)         =         2.050192	       1.084915
	 R(17,21)         =         2.047637	       1.083563
	 R(17,22)         =         2.050170	       1.084903
	 B(1,2,3)         =         1.938832	     111.086895
	 B(1,2,4)         =         1.879343	     107.678405
	 B(1,2,5)         =         1.879631	     107.694916
	 B(2,3,6)         =         1.969578	     112.848489
	 B(2,3,7)         =         1.921857	     110.114271
	 B(2,3,8)         =         1.908021	     109.321554
	 B(3,2,4)         =         1.940012	     111.154519
	 B(3,2,5)         =         1.943556	     111.357574
	 B(3,6,9)         =         1.946121	     111.504541
	 B(3,6,10)        =         1.907058	     109.266369
	 B(3,6,11)        =         1.908292	     109.337066
	 B(4,2,5)         =         1.879598	     107.693017
	 B(6,3,7)         =         1.896541	     108.663804
	 B(6,3,8)         =         1.905490	     109.176551
	 B(6,9,12)        =         1.995824	     114.352309
	 B(6,9,13)        =         1.915002	     109.721554
	 B(7,3,8)         =         1.859013	     106.513589
	 B(9,6,10)        =         1.885787	     108.047660
	 B(9,6,11)        =         1.957571	     112.160580
	 B(9,12,14)       =         1.946112	     111.504004
	 B(9,12,15)       =         1.885780	     108.047255
	 B(9,12,16)       =         1.957607	     112.162597
	 B(10,6,11)       =         1.856196	     106.352217
	 B(12,9,13)       =         1.914996	     109.721210
	 B(12,14,17)      =         1.969579	     112.848552
	 B(12,14,18)      =         1.896535	     108.663470
	 B(12,14,19)      =         1.905489	     109.176501
	 B(14,12,15)      =         1.907050	     109.265911
	 B(14,12,16)      =         1.908286	     109.336714
	 B(14,17,20)      =         1.940010	     111.154371
	 B(14,17,21)      =         1.938837	     111.087194
	 B(14,17,22)      =         1.943554	     111.357450
	 B(15,12,16)      =         1.856191	     106.351912
	 B(17,14,18)      =         1.921870	     110.115025
	 B(17,14,19)      =         1.908009	     109.320840
	 B(18,14,19)      =         1.859018	     106.513882
	 B(20,17,21)      =         1.879343	     107.678409
	 B(20,17,22)      =         1.879597	     107.692996
	 B(21,17,22)      =         1.879631	     107.694905
	 D(1,2,3,6)       =        -3.141032	    -179.967865
	 D(1,2,3,7)       =         1.019661	      58.422293
	 D(1,2,3,8)       =        -1.016981	     -58.268724
	 D(2,3,6,9)       =        -3.123961	    -178.989759
	 D(2,3,6,10)      =        -1.040545	     -59.618860
	 D(2,3,6,11)      =         0.984441	      56.404343
	 D(3,6,9,12)      =         0.001596	       0.091450
	 D(3,6,9,13)      =         2.161635	     123.852576
	 D(4,2,3,6)       =         1.049834	      60.151081
	 D(4,2,3,7)       =        -1.072658	     -61.458761
	 D(4,2,3,8)       =        -3.109300	    -178.149778
	 D(5,2,3,6)       =        -1.045976	     -59.930024
	 D(5,2,3,7)       =         3.114717	     178.460134
	 D(5,2,3,8)       =         1.078074	      61.769117
	 D(6,9,12,14)     =         3.133736	     179.549867
	 D(6,9,12,15)     =        -1.053478	     -60.359857
	 D(6,9,12,16)     =         0.986826	      56.540990
	 D(7,3,6,9)       =        -0.987220	     -56.563523
	 D(7,3,6,10)      =         1.096196	      62.807376
	 D(7,3,6,11)      =         3.121182	     178.830579
	 D(8,3,6,9)       =         1.033745	      59.229243
	 D(8,3,6,10)      =         3.117161	     178.600143
	 D(8,3,6,11)      =        -1.141038	     -65.376654
	 D(9,12,14,17)    =         3.123905	     178.986582
	 D(9,12,14,18)    =         0.987151	      56.559580
	 D(9,12,14,19)    =        -1.033817	     -59.233325
	*D(10,6,9,12)     =        -2.094395	    -119.999977
	 D(10,6,9,13)     =         0.065644	       3.761148
	 D(11,6,9,12)     =         2.148495	     123.099705
	 D(11,6,9,13)     =        -1.974651	    -113.139170
	 D(12,14,17,20)   =        -1.049744	     -60.145892
	 D(12,14,17,21)   =         3.141120	     179.972947
	 D(12,14,17,22)   =         1.046063	      59.935002
	 D(13,9,12,14)    =         0.973694	      55.788557
	 D(13,9,12,15)    =         3.069665	     175.878833
	 D(13,9,12,16)    =        -1.173216	     -67.220320
	 D(15,12,14,17)   =         1.040510	      59.616817
	 D(15,12,14,18)   =        -1.096245	     -62.810185
	 D(15,12,14,19)   =        -3.117212	    -178.603090
	 D(16,12,14,17)   =        -0.984463	     -56.405565
	 D(16,12,14,18)   =        -3.121217	    -178.832567
	 D(16,12,14,19)   =         1.141001	      65.374528
	 D(18,14,17,20)   =         1.072751	      61.464109
	 D(18,14,17,21)   =        -1.019570	     -58.417052
	 D(18,14,17,22)   =        -3.114627	    -178.454997
	 D(19,14,17,20)   =         3.109400	     178.155497
	 D(19,14,17,21)   =         1.017079	      58.274336
	 D(19,14,17,22)   =        -1.077978	     -61.763609

	Current energy   :      -290.4685364787

	Generating empirical Hessian (Schlegel '84) for each fragment.
	Taking RFO optimization step.
	Going to follow RFO solution 1.
	Using RFO vector 1.
	Norm of target step-size    0.47834
	Projected energy change by RFO approximation:        -0.0492948782

	Back-transformation to cartesian coordinates...
	Could not converge backtransformation.
	Using first guess instead.

	Back-transformation to cartesian coordinates to adjust frozen coordinates...
	Successfully converged to displaced geometry.

	--- Internal Coordinate Step in ANG or DEG, aJ/ANG or AJ/DEG ---
	 ---------------------------------------------------------------------------
	   Coordinate                Previous        Force       Change         New 
	   ----------                --------       ------       ------       ------
	    1 R(1,2)          =      1.083563     0.001412     0.065695     1.149258
	    2 R(2,3)          =      1.524681     0.000311     0.092259     1.616940
	    3 R(2,4)          =      1.084914     0.002041     0.020114     1.105029
	    4 R(2,5)          =      1.084904     0.000324     0.026851     1.111755
	    5 R(3,6)          =      1.521502     0.090115     0.095039     1.616541
	    6 R(3,7)          =      1.084327    -0.040378     0.027433     1.111760
	    7 R(3,8)          =      1.087464    -0.047533     0.016796     1.104260
	    8 R(6,9)          =      1.446975     0.334345     0.052126     1.499100
	    9 R(6,10)         =      1.085896     0.008724     0.004273     1.090169
	   10 R(6,11)         =      1.094113    -0.038349     0.004731     1.098844
	   11 R(9,12)         =      1.446980     0.086220     0.040162     1.487142
	   12 R(9,13)         =      0.998659    -0.027521    -0.002624     0.996034
	   13 R(12,14)        =      1.521496    -0.001242     0.039839     1.561335
	   14 R(12,15)        =      1.085899    -0.043303     0.004531     1.090430
	   15 R(12,16)        =      1.094110    -0.051462     0.010634     1.104744
	   16 R(14,17)        =      1.524681    -0.000272     0.038502     1.563183
	   17 R(14,18)        =      1.084312     0.001383     0.013143     1.097455
	   18 R(14,19)        =      1.087479     0.001910     0.009142     1.096621
	   19 R(17,20)        =      1.084915     0.000488     0.008358     1.093272
	   20 R(17,21)        =      1.083563     0.000290     0.028110     1.111673
	   21 R(17,22)        =      1.084903     0.000691     0.013136     1.098039
	   22 B(1,2,3)        =    111.086895     0.000003     0.015949   111.102844
	   23 B(1,2,4)        =    107.678405    -0.000014     0.415415   108.093820
	   24 B(1,2,5)        =    107.694916     0.000003     0.915608   108.610524
	   25 B(2,3,6)        =    112.848489    -0.000460    -1.429872   111.418617
	   26 B(2,3,7)        =    110.114271    -0.000216    -0.535540   109.578731
	   27 B(2,3,8)        =    109.321554    -0.000078    -0.062139   109.259415
	   28 B(3,2,4)        =    111.154519     0.000044     1.021684   112.176203
	   29 B(3,2,5)        =    111.357574    -0.000021     0.759229   112.116803
	   30 B(3,6,9)        =    111.504541     0.005147    13.850870   125.355411
	   31 B(3,6,10)       =    109.266369    -0.001979    -5.286834   103.979534
	   32 B(3,6,11)       =    109.337066    -0.001512    -3.147390   106.189677
	   33 B(4,2,5)        =    107.693017    -0.000016    -3.260289   104.432728
	   34 B(6,3,7)        =    108.663804     0.000457     3.104666   111.768470
	   35 B(6,3,8)        =    109.176551     0.000304     2.083633   111.260184
	   36 B(6,9,12)       =    114.352309     0.005898    15.178390   129.530698
	   37 B(6,9,13)       =    109.721554    -0.001612    -3.190900   106.530655
	   38 B(7,3,8)        =    106.513589     0.000026    -3.276695   103.236894
	   39 B(9,6,10)       =    108.047660    -0.001007    -1.430316   106.617344
	   40 B(9,6,11)       =    112.160580    -0.001841    -5.076603   107.083978
	   41 B(9,12,14)      =    111.504004    -0.000600    -1.853755   109.650249
	   42 B(9,12,15)      =    108.047255     0.000413     1.838276   109.885531
	   43 B(9,12,16)      =    112.162597     0.000517     2.937476   115.100073
	   44 B(10,6,11)      =    106.352217     0.000953    -0.052301   106.299916
	   45 B(12,9,13)      =    109.721210    -0.002135    -5.162471   104.558739
	   46 B(12,14,17)     =    112.848552    -0.000041    -0.137816   112.710736
	   47 B(12,14,18)     =    108.663470     0.000027     0.133152   108.796622
	   48 B(12,14,19)     =    109.176501     0.000023     0.741058   109.917558
	   49 B(14,12,15)     =    109.265911    -0.000161    -0.516434   108.749477
	   50 B(14,12,16)     =    109.336714    -0.000208    -1.352899   107.983814
	   51 B(14,17,20)     =    111.154371     0.000001    -0.077683   111.076688
	   52 B(14,17,21)     =    111.087194     0.000004    -0.024330   111.062865
	   53 B(14,17,22)     =    111.357450     0.000003     0.796580   112.154030
	   54 B(15,12,16)     =    106.351912     0.000065    -1.111321   105.240590
	   55 B(17,14,18)     =    110.115025     0.000003     0.738344   110.853370
	   56 B(17,14,19)     =    109.320840     0.000003    -0.148217   109.172623
	   57 B(18,14,19)     =    106.513882    -0.000014    -1.400047   105.113835
	   58 B(20,17,21)     =    107.678409    -0.000003     0.610294   108.288702
	   59 B(20,17,22)     =    107.692996    -0.000002    -1.357852   106.335144
	   60 B(21,17,22)     =    107.694905    -0.000004     0.010085   107.704990
	   61 D(1,2,3,6)      =   -179.967865     0.000009     0.173386  -179.794479
	   62 D(1,2,3,7)      =     58.422293    -0.000017    -2.434062    55.988231
	   63 D(1,2,3,8)      =    -58.268724     0.000014     1.817539   -56.451185
	   64 D(2,3,6,9)      =   -178.989759    -0.000039    -1.158730  -180.148489
	   65 D(2,3,6,10)     =    -59.618860     0.000115     2.016231   -57.602629
	   66 D(2,3,6,11)     =     56.404343    -0.000072    -2.078254    54.326089
	   67 D(3,6,9,12)     =      0.091450     0.000005     1.298103     1.389553
	   68 D(3,6,9,13)     =    123.852576     0.000062     3.332374   127.184949
	   69 D(4,2,3,6)      =     60.151081     0.000006    -1.063287    59.087794
	   70 D(4,2,3,7)      =    -61.458761    -0.000020    -3.670735   -65.129496
	   71 D(4,2,3,8)      =   -178.149778     0.000011     0.580866  -177.568912
	   72 D(5,2,3,6)      =    -59.930024     0.000007     1.876772   -58.053252
	   73 D(5,2,3,7)      =    178.460134    -0.000019    -0.730676   177.729458
	   74 D(5,2,3,8)      =     61.769117     0.000012     3.520924    65.290041
	   75 D(6,9,12,14)    =    179.549867     0.000061     1.458695   181.008562
	   76 D(6,9,12,15)    =    -60.359857    -0.000007     0.847463   -59.512393
	   77 D(6,9,12,16)    =     56.540990     0.000138     2.509856    59.050846
	   78 D(7,3,6,9)      =    -56.563523    -0.000098    -0.611652   -57.175175
	   79 D(7,3,6,10)     =     62.807376     0.000056     2.563309    65.370685
	   80 D(7,3,6,11)     =    178.830579    -0.000131    -1.531176   177.299403
	   81 D(8,3,6,9)      =     59.229243     0.000005    -1.573666    57.655577
	   82 D(8,3,6,10)     =    178.600143     0.000159     1.601294   180.201437
	   83 D(8,3,6,11)     =    -65.376654    -0.000028    -2.493191   -67.869845
	   84 D(9,12,14,17)   =    178.986582    -0.000004     0.038049   179.024631
	   85 D(9,12,14,18)   =     56.559580    -0.000003    -0.908093    55.651487
	   86 D(9,12,14,19)   =    -59.233325    -0.000006     0.285047   -58.948278
	   87 *D(10,6,9,12)   =   -119.999977     0.000000    -0.000000  -119.999977
	   88 D(10,6,9,13)    =      3.761148     0.000056     2.034271     5.795419
	   89 D(11,6,9,12)    =    123.099705     0.000118     3.438360   126.538064
	   90 D(11,6,9,13)    =   -113.139170     0.000174     5.472631  -107.666539
	   91 D(12,14,17,20)  =    -60.145892    -0.000000     0.695881   -59.450012
	   92 D(12,14,17,21)  =    179.972947    -0.000000    -0.007497   179.965450
	   93 D(12,14,17,22)  =     59.935002    -0.000000    -0.545002    59.390000
	   94 D(13,9,12,14)   =     55.788557    -0.000059    -1.325717    54.462839
	   95 D(13,9,12,15)   =    175.878833    -0.000127    -1.936949   173.941884
	   96 D(13,9,12,16)   =    -67.220320     0.000018    -0.274556   -67.494876
	   97 D(15,12,14,17)  =     59.616817    -0.000012    -0.765853    58.850964
	   98 D(15,12,14,18)  =    -62.810185    -0.000011    -1.711996   -64.522180
	   99 D(15,12,14,19)  =   -178.603090    -0.000014    -0.518856  -179.121945
	  100 D(16,12,14,17)  =    -56.405565     0.000017     1.550145   -54.855420
	  101 D(16,12,14,18)  =   -178.832567     0.000018     0.604003  -178.228564
	  102 D(16,12,14,19)  =     65.374528     0.000016     1.797143    67.171671
	  103 D(18,14,17,20)  =     61.464109     0.000002     1.308276    62.772385
	  104 D(18,14,17,21)  =    -58.417052     0.000002     0.604898   -57.812153
	  105 D(18,14,17,22)  =   -178.454997     0.000002     0.067393  -178.387604
	  106 D(19,14,17,20)  =    178.155497    -0.000001    -0.051954   178.103543
	  107 D(19,14,17,21)  =     58.274336    -0.000001    -0.755332    57.519005
	  108 D(19,14,17,22)  =    -61.763609    -0.000001    -1.292837   -63.056446
	 ---------------------------------------------------------------------------
	Successfully symmetrized geometry.

  ==> Convergence Check <==

  Measures of convergence in internal coordinates in au.
  Criteria marked as inactive (o), active & met (*), and active & unmet ( ).
  --------------------------------------------------------------------------------------------- ~
   Step     Total Energy     Delta E     MAX Force     RMS Force      MAX Disp      RMS Disp    ~
  --------------------------------------------------------------------------------------------- ~
    Convergence Criteria    1.00e-06 *    3.00e-04 *             o    1.20e-03 *             o  ~
  --------------------------------------------------------------------------------------------- ~
      1    -290.46853648   -2.90e+02      7.75e-02      1.24e-02 o    2.65e-01      5.66e-02 o  ~
  ---------------------------------------------------------------------------------------------

	Writing optimization data to binary file.
	Structure for next step:
	Cartesian Geometry (in Angstrom)
	    H     3.4209615970  -3.1144550170   0.2592459669
	    C     3.2938536835  -1.9759423968   0.1674446672
	    C     1.7302231633  -1.5657743526   0.1311685525
	    H     3.8300270030  -1.5017666102   1.0093256629
	    H     3.8384476430  -1.6299992925  -0.7379506088
	    C     1.5425909191   0.0342019525  -0.0032763161
	    H     1.2189209627  -1.9664952870   1.0333902571
	    H     1.2331164394  -2.0983558206  -0.6986694745
	    N     0.2275445924   0.7509625518  -0.0681550984
	    H     2.0739279974   0.4351449202   0.8600852720
	    H     2.1192919378   0.3370186878  -0.8882483001
	    C    -1.1533785261   0.2032810172   0.0003193700
	    H     0.2531280384   1.4544159371   0.6365317245
	    C    -2.1866500678   1.3654075814  -0.1396030219
	    H    -1.3117069833  -0.5062465248  -0.8124171050
	    H    -1.3908711312  -0.3549732472   0.9235797636
	    C    -3.6669640120   0.8646529817  -0.1014275782
	    H    -1.9823600288   1.9100824929  -1.0701950332
	    H    -2.0339974467   2.0994096646   0.6607192767
	    H    -3.8627698120   0.1545874834  -0.9093333652
	    H    -4.3783943120   1.7128752694  -0.2024349491
	    H    -3.9028119412   0.3406112885   0.8342247098
			--------------------------
			 OPTKING Finished Execution 
			--------------------------

    Structure for next step:
    Molecular point group: c1
    Full point group: C1

    Geometry (in Angstrom), charge = 0, multiplicity = 1:

    H            3.450426576380    -3.063784867447     0.253253047268
    C            3.323318662862    -1.925272247279     0.161451747549
    C            1.759688142700    -1.515104203064     0.125175632840
    H            3.859491982366    -1.451096460714     1.003332743300
    H            3.867912622325    -1.579329142926    -0.743943528468
    C            1.572055898470     0.084872102083    -0.009269235709
    H            1.248385942033    -1.915825137503     1.027397337473
    H            1.262581418798    -2.047685671046    -0.704662394173
    N            0.257009571770     0.801632701339    -0.074148018039
    H            2.103392976780     0.485815069760     0.854092352343
    H            2.148756917115     0.387688837330    -0.894241219715
    C           -1.123913546772     0.253951166780    -0.005673549672
    H            0.282593017773     1.505086086604     0.630538804825
    C           -2.157185088417     1.416077730952    -0.145595941500
    H           -1.282242003943    -0.455576375303    -0.818410024612
    H           -1.361406151881    -0.304303097662     0.917586843987
    C           -3.637499032647     0.915323131195    -0.107420497855
    H           -1.952895049480     1.960752642478    -1.076187952805
    H           -2.004532467394     2.150079814149     0.654726357075
    H           -3.833304832670     0.205257632962    -0.915326284784
    H           -4.348929332621     1.763545418968    -0.208427868697
    H           -3.873346961893     0.391281438033     0.828231790127

gradient() will perform analytic gradient computation.

*** tstart() called on cx1-27-1-1
*** at Sat Sep 10 16:57:27 2016


         ---------------------------------------------------------
                                   SCF
            by Justin Turney, Rob Parrish, and Andy Simmonett
                              RHF Reference
                        4 Threads,   2000 MiB Core
         ---------------------------------------------------------

  ==> Geometry <==

    Molecular point group: c1
    Full point group: C1

    Geometry (in Angstrom), charge = 0, multiplicity = 1:

       Center              X                  Y                   Z               Mass       
    ------------   -----------------  -----------------  -----------------  -----------------
           H          3.450426576380    -3.063784867447     0.253253047268     1.007825032070
           C          3.323318662862    -1.925272247279     0.161451747549    12.000000000000
           C          1.759688142700    -1.515104203064     0.125175632840    12.000000000000
           H          3.859491982366    -1.451096460714     1.003332743300     1.007825032070
           H          3.867912622325    -1.579329142926    -0.743943528468     1.007825032070
           C          1.572055898470     0.084872102083    -0.009269235709    12.000000000000
           H          1.248385942033    -1.915825137503     1.027397337473     1.007825032070
           H          1.262581418798    -2.047685671046    -0.704662394173     1.007825032070
           N          0.257009571770     0.801632701339    -0.074148018039    14.003074004780
           H          2.103392976780     0.485815069760     0.854092352343     1.007825032070
           H          2.148756917115     0.387688837330    -0.894241219715     1.007825032070
           C         -1.123913546772     0.253951166780    -0.005673549672    12.000000000000
           H          0.282593017773     1.505086086604     0.630538804825     1.007825032070
           C         -2.157185088417     1.416077730952    -0.145595941500    12.000000000000
           H         -1.282242003943    -0.455576375303    -0.818410024612     1.007825032070
           H         -1.361406151881    -0.304303097662     0.917586843987     1.007825032070
           C         -3.637499032647     0.915323131195    -0.107420497855    12.000000000000
           H         -1.952895049480     1.960752642478    -1.076187952805     1.007825032070
           H         -2.004532467394     2.150079814149     0.654726357075     1.007825032070
           H         -3.833304832670     0.205257632962    -0.915326284784     1.007825032070
           H         -4.348929332621     1.763545418968    -0.208427868697     1.007825032070
           H         -3.873346961893     0.391281438033     0.828231790127     1.007825032070

  Running in c1 symmetry.

  Rotational constants: A =      0.28549  B =      0.02557  C =      0.02412 [cm^-1]
  Rotational constants: A =   8558.67746  B =    766.49525  C =    723.20127 [MHz]
  Nuclear repulsion =  304.077817805839743

  Charge       = 0
  Multiplicity = 1
  Electrons    = 58
  Nalpha       = 29
  Nbeta        = 29

  ==> Algorithm <==

  SCF Algorithm Type is DF.
  DIIS enabled.
  MOM disabled.
  Fractional occupation disabled.
  Guess Type is READ.
  Energy threshold   = 1.00e-08
  Density threshold  = 1.00e-08
  Integral threshold = 0.00e+00

  ==> Primary Basis <==

  Basis Set: CC-PVTZ
    Number of shells: 160
    Number of basis function: 420
    Number of Cartesian functions: 470
    Spherical Harmonics?: true
    Max angular momentum: 3

  ==> Pre-Iterations <==

   -------------------------------------------------------
    Irrep   Nso     Nmo     Nalpha   Nbeta   Ndocc  Nsocc
   -------------------------------------------------------
     A        420     420       0       0       0       0
   -------------------------------------------------------
    Total     420     420      29      29      29       0
   -------------------------------------------------------

  ==> Integral Setup <==

  ==> DFJK: Density-Fitted J/K Matrices <==

    J tasked:                  Yes
    K tasked:                  Yes
    wK tasked:                  No
    OpenMP threads:              4
    Integrals threads:           4
    Memory (MB):              1430
    Algorithm:                Core
    Integral Cache:           NONE
    Schwarz Cutoff:          1E-12
    Fitting Condition:       1E-12

   => Auxiliary Basis Set <=

  Basis Set: 
    Number of shells: 325
    Number of basis function: 1003
    Number of Cartesian functions: 1197
    Spherical Harmonics?: true
    Max angular momentum: 4

  Minimum eigenvalue in the overlap matrix is 5.9310031046E-04.
  Using Symmetric Orthogonalization.
  SCF Guess: Reading in previously saved MOs, projecting if necessary.

  Using orbitals from previous SCF, no projection.
  Recomputing DOCC and SOCC from number of alpha and beta electrons from previous calculation.
              A 
    DOCC [    29 ]

  ==> Iterations <==

                           Total Energy        Delta E     RMS |[F,P]|

   @DF-RHF iter   0:  -289.98870401651897   -2.89989e+02   1.50876e-03 
   @DF-RHF iter   1:  -290.42825728311124   -4.39553e-01   4.10471e-04 
   @DF-RHF iter   2:  -290.44737416281686   -1.91169e-02   1.78215e-04 DIIS
   @DF-RHF iter   3:  -290.45049901562942   -3.12485e-03   4.39203e-05 DIIS
   @DF-RHF iter   4:  -290.45086863025580   -3.69615e-04   7.47559e-06 DIIS
   @DF-RHF iter   5:  -290.45087574578912   -7.11553e-06   2.79995e-06 DIIS
   @DF-RHF iter   6:  -290.45087677997520   -1.03419e-06   6.37409e-07 DIIS
   @DF-RHF iter   7:  -290.45087686227447   -8.22993e-08   2.29209e-07 DIIS
   @DF-RHF iter   8:  -290.45087687162203   -9.34756e-09   6.11133e-08 DIIS
   @DF-RHF iter   9:  -290.45087687255972   -9.37689e-10   1.77734e-08 DIIS
   @DF-RHF iter  10:  -290.45087687264089   -8.11724e-11   4.80138e-09 DIIS

  ==> Post-Iterations <==

    Orbital Energies (a.u.)
    -----------------------

    Doubly Occupied:                                                      

       1A    -15.531113     2A    -11.254141     3A    -11.248333  
       4A    -11.238261     5A    -11.232978     6A    -11.222647  
       7A    -11.217907     8A     -1.176980     9A     -1.037311  
      10A     -1.006249    11A     -0.922424    12A     -0.865356  
      13A     -0.809430    14A     -0.783104    15A     -0.652372  
      16A     -0.611898    17A     -0.602621    18A     -0.596265  
      19A     -0.561418    20A     -0.547273    21A     -0.530198  
      22A     -0.529796    23A     -0.496551    24A     -0.483987  
      25A     -0.481488    26A     -0.472424    27A     -0.459888  
      28A     -0.453638    29A     -0.350716  

    Virtual:                                                              

      30A      0.135146    31A      0.148267    32A      0.159007  
      33A      0.166385    34A      0.182759    35A      0.191452  
      36A      0.202883    37A      0.212512    38A      0.221100  
      39A      0.227339    40A      0.239340    41A      0.248208  
      42A      0.252722    43A      0.273861    44A      0.286374  
      45A      0.301334    46A      0.307825    47A      0.331141  
      48A      0.335801    49A      0.368897    50A      0.376109  
      51A      0.389577    52A      0.399190    53A      0.408895  
      54A      0.425690    55A      0.429318    56A      0.454223  
      57A      0.461109    58A      0.485514    59A      0.498370  
      60A      0.516793    61A      0.529719    62A      0.570826  
      63A      0.571888    64A      0.583066    65A      0.588472  
      66A      0.602958    67A      0.603515    68A      0.610025  
      69A      0.614952    70A      0.625413    71A      0.636318  
      72A      0.647959    73A      0.648289    74A      0.654768  
      75A      0.656541    76A      0.658774    77A      0.668395  
      78A      0.672259    79A      0.675080    80A      0.679654  
      81A      0.697686    82A      0.710407    83A      0.731194  
      84A      0.739573    85A      0.766267    86A      0.778258  
      87A      0.799259    88A      0.816539    89A      0.823697  
      90A      0.884509    91A      0.895550    92A      0.907840  
      93A      0.918015    94A      0.924359    95A      0.933019  
      96A      0.945564    97A      0.959036    98A      0.962009  
      99A      0.988300   100A      1.008578   101A      1.025265  
     102A      1.067243   103A      1.074873   104A      1.094701  
     105A      1.111214   106A      1.118609   107A      1.129993  
     108A      1.148654   109A      1.171749   110A      1.186843  
     111A      1.194125   112A      1.220861   113A      1.226594  
     114A      1.243031   115A      1.249613   116A      1.265601  
     117A      1.268050   118A      1.276415   119A      1.291289  
     120A      1.301675   121A      1.310320   122A      1.322095  
     123A      1.330019   124A      1.338270   125A      1.347582  
     126A      1.350289   127A      1.361168   128A      1.363643  
     129A      1.374978   130A      1.390470   131A      1.408136  
     132A      1.412330   133A      1.420507   134A      1.440351  
     135A      1.449966   136A      1.468766   137A      1.485485  
     138A      1.488282   139A      1.496009   140A      1.511697  
     141A      1.519963   142A      1.533815   143A      1.542260  
     144A      1.552168   145A      1.558303   146A      1.583799  
     147A      1.586684   148A      1.599339   149A      1.603959  
     150A      1.639119   151A      1.645697   152A      1.650491  
     153A      1.669451   154A      1.677916   155A      1.698083  
     156A      1.707159   157A      1.739192   158A      1.752365  
     159A      1.757209   160A      1.769680   161A      1.788750  
     162A      1.819095   163A      1.832936   164A      1.835116  
     165A      1.849753   166A      1.881024   167A      1.911993  
     168A      1.944739   169A      2.047296   170A      2.077385  
     171A      2.169422   172A      2.194185   173A      2.237466  
     174A      2.497740   175A      2.524729   176A      2.569975  
     177A      2.588391   178A      2.591004   179A      2.620407  
     180A      2.646483   181A      2.648299   182A      2.667491  
     183A      2.696323   184A      2.714688   185A      2.722584  
     186A      2.745947   187A      2.770129   188A      2.779925  
     189A      2.793655   190A      2.800563   191A      2.826762  
     192A      2.835970   193A      2.847568   194A      2.850385  
     195A      2.869786   196A      2.894723   197A      2.914253  
     198A      2.921649   199A      2.947584   200A      2.962987  
     201A      2.981951   202A      3.020653   203A      3.045916  
     204A      3.058265   205A      3.078161   206A      3.091053  
     207A      3.103805   208A      3.108621   209A      3.115295  
     210A      3.130916   211A      3.147013   212A      3.166347  
     213A      3.177894   214A      3.191710   215A      3.201096  
     216A      3.216517   217A      3.236431   218A      3.239727  
     219A      3.255871   220A      3.260966   221A      3.273507  
     222A      3.298918   223A      3.315553   224A      3.322546  
     225A      3.341924   226A      3.345345   227A      3.361621  
     228A      3.378064   229A      3.390513   230A      3.393323  
     231A      3.403730   232A      3.409934   233A      3.414775  
     234A      3.419864   235A      3.426436   236A      3.427908  
     237A      3.446714   238A      3.460245   239A      3.462640  
     240A      3.464531   241A      3.488131   242A      3.495756  
     243A      3.518936   244A      3.529422   245A      3.539828  
     246A      3.548996   247A      3.551196   248A      3.569454  
     249A      3.609953   250A      3.615276   251A      3.626623  
     252A      3.629484   253A      3.642081   254A      3.652030  
     255A      3.670541   256A      3.689912   257A      3.704946  
     258A      3.729482   259A      3.734417   260A      3.740809  
     261A      3.756929   262A      3.766568   263A      3.776481  
     264A      3.793013   265A      3.796488   266A      3.805201  
     267A      3.818606   268A      3.827556   269A      3.852815  
     270A      3.865414   271A      3.893321   272A      3.896952  
     273A      3.910561   274A      3.924396   275A      3.949328  
     276A      3.965724   277A      3.982746   278A      3.993381  
     279A      4.012701   280A      4.022015   281A      4.039654  
     282A      4.057190   283A      4.064751   284A      4.080795  
     285A      4.086743   286A      4.095395   287A      4.100860  
     288A      4.118849   289A      4.120388   290A      4.124544  
     291A      4.156100   292A      4.163792   293A      4.179908  
     294A      4.183952   295A      4.194205   296A      4.208560  
     297A      4.225939   298A      4.235016   299A      4.252474  
     300A      4.262226   301A      4.272557   302A      4.294018  
     303A      4.306561   304A      4.311632   305A      4.323625  
     306A      4.336270   307A      4.352068   308A      4.362389  
     309A      4.366280   310A      4.378424   311A      4.391722  
     312A      4.396453   313A      4.409718   314A      4.414053  
     315A      4.428821   316A      4.433536   317A      4.447497  
     318A      4.484026   319A      4.491153   320A      4.499210  
     321A      4.510345   322A      4.522229   323A      4.531733  
     324A      4.541528   325A      4.559214   326A      4.577302  
     327A      4.590059   328A      4.605027   329A      4.608487  
     330A      4.616411   331A      4.626089   332A      4.667493  
     333A      4.690670   334A      4.692182   335A      4.711582  
     336A      4.737374   337A      4.750403   338A      4.777872  
     339A      4.789859   340A      4.800668   341A      4.817674  
     342A      4.848270   343A      4.889427   344A      4.937289  
     345A      4.967148   346A      4.995111   347A      5.011186  
     348A      5.023066   349A      5.053355   350A      5.072300  
     351A      5.086207   352A      5.089668   353A      5.100851  
     354A      5.140894   355A      5.143867   356A      5.163426  
     357A      5.196407   358A      5.217705   359A      5.223181  
     360A      5.230057   361A      5.243162   362A      5.263253  
     363A      5.284194   364A      5.291481   365A      5.299325  
     366A      5.335306   367A      5.358089   368A      5.362489  
     369A      5.368386   370A      5.401774   371A      5.421185  
     372A      5.458428   373A      5.479162   374A      5.490307  
     375A      5.509404   376A      5.535293   377A      5.554467  
     378A      5.563766   379A      5.624884   380A      5.651485  
     381A      5.658846   382A      5.671524   383A      5.687385  
     384A      5.721142   385A      5.729689   386A      5.732245  
     387A      5.745932   388A      5.763558   389A      5.776280  
     390A      5.800207   391A      5.812544   392A      5.819075  
     393A      5.846618   394A      5.871534   395A      5.896270  
     396A      5.925045   397A      5.961040   398A      5.981862  
     399A      6.125112   400A      6.159495   401A      6.193538  
     402A      6.234310   403A      6.239212   404A      6.267540  
     405A      6.283462   406A      6.292529   407A      6.302587  
     408A      6.349169   409A      6.374326   410A      6.425574  
     411A      6.571952   412A      6.596353   413A      6.974304  
     414A     12.036034   415A     12.399290   416A     12.861643  
     417A     12.980896   418A     13.119711   419A     13.374666  
     420A     13.759654  

    Final Occupation by Irrep:
              A 
    DOCC [    29 ]

  Energy converged.

  @DF-RHF Final Energy:  -290.45087687264089

   => Energetics <=

    Nuclear Repulsion Energy =            304.0778178058397430
    One-Electron Energy =                -994.3038561971089848
    Two-Electron Energy =                 399.7751615186281242
    DFT Exchange-Correlation Energy =       0.0000000000000000
    Empirical Dispersion Energy =           0.0000000000000000
    PCM Polarization Energy =               0.0000000000000000
    EFP Energy =                            0.0000000000000000
    Total Energy =                       -290.4508768726410608


  Saving occupied orbitals to File 180.

*** tstop() called on cx1-27-1-1 at Sat Sep 10 16:57:38 2016
Module time:
	user time   =      38.39 seconds =       0.64 minutes
	system time =       0.70 seconds =       0.01 minutes
	total time  =         11 seconds =       0.18 minutes
Total time:
	user time   =     135.24 seconds =       2.25 minutes
	system time =       2.58 seconds =       0.04 minutes
	total time  =         38 seconds =       0.63 minutes


Properties will be evaluated at   0.000000,   0.000000,   0.000000 Bohr

Properties computed using the SCF density matrix

  Nuclear Dipole Moment: (a.u.)
     X:    -0.4068      Y:    -1.8474      Z:     0.7577

  Electronic Dipole Moment: (a.u.)
     X:     0.4097      Y:     1.7292      Z:    -0.4086

  Dipole Moment: (a.u.)
     X:     0.0030      Y:    -0.1181      Z:     0.3491     Total:     0.3685

  Dipole Moment: (Debye)
     X:     0.0075      Y:    -0.3003      Z:     0.8872     Total:     0.9367


*** tstart() called on cx1-27-1-1
*** at Sat Sep 10 16:57:38 2016


         ------------------------------------------------------------
                                   SCF GRAD                          
                          Rob Parrish, Justin Turney,                
                       Andy Simmonett, and Alex Sokolov              
         ------------------------------------------------------------

  ==> Geometry <==

    Molecular point group: c1
    Full point group: C1

    Geometry (in Angstrom), charge = 0, multiplicity = 1:

       Center              X                  Y                   Z               Mass       
    ------------   -----------------  -----------------  -----------------  -----------------
           H          3.450426576380    -3.063784867447     0.253253047268     1.007825032070
           C          3.323318662862    -1.925272247279     0.161451747549    12.000000000000
           C          1.759688142700    -1.515104203064     0.125175632840    12.000000000000
           H          3.859491982366    -1.451096460714     1.003332743300     1.007825032070
           H          3.867912622325    -1.579329142926    -0.743943528468     1.007825032070
           C          1.572055898470     0.084872102083    -0.009269235709    12.000000000000
           H          1.248385942033    -1.915825137503     1.027397337473     1.007825032070
           H          1.262581418798    -2.047685671046    -0.704662394173     1.007825032070
           N          0.257009571770     0.801632701339    -0.074148018039    14.003074004780
           H          2.103392976780     0.485815069760     0.854092352343     1.007825032070
           H          2.148756917115     0.387688837330    -0.894241219715     1.007825032070
           C         -1.123913546772     0.253951166780    -0.005673549672    12.000000000000
           H          0.282593017773     1.505086086604     0.630538804825     1.007825032070
           C         -2.157185088417     1.416077730952    -0.145595941500    12.000000000000
           H         -1.282242003943    -0.455576375303    -0.818410024612     1.007825032070
           H         -1.361406151881    -0.304303097662     0.917586843987     1.007825032070
           C         -3.637499032647     0.915323131195    -0.107420497855    12.000000000000
           H         -1.952895049480     1.960752642478    -1.076187952805     1.007825032070
           H         -2.004532467394     2.150079814149     0.654726357075     1.007825032070
           H         -3.833304832670     0.205257632962    -0.915326284784     1.007825032070
           H         -4.348929332621     1.763545418968    -0.208427868697     1.007825032070
           H         -3.873346961893     0.391281438033     0.828231790127     1.007825032070

  Nuclear repulsion =  304.077817805839743

  ==> Basis Set <==

  Basis Set: CC-PVTZ
    Number of shells: 160
    Number of basis function: 420
    Number of Cartesian functions: 470
    Spherical Harmonics?: true
    Max angular momentum: 3

  ==> DFJKGrad: Density-Fitted SCF Gradients <==

    Gradient:                    1
    J tasked:                  Yes
    K tasked:                  Yes
    wK tasked:                  No
    OpenMP threads:              4
    Integrals threads:           4
    Memory (MB):              1430
    Schwarz Cutoff:          0E+00
    Fitting Condition:       1E-12

   => Auxiliary Basis Set <=

  Basis Set: 
    Number of shells: 325
    Number of basis function: 1003
    Number of Cartesian functions: 1197
    Spherical Harmonics?: true
    Max angular momentum: 4


  -Total Gradient:
     Atom            X                  Y                   Z
    ------   -----------------  -----------------  -----------------
       1        0.006253220300    -0.038876806472     0.003739798253
       2        0.013789170262     0.007471030726     0.001620210577
       3       -0.000573788513    -0.005904816625     0.000506261266
       4        0.011514094187     0.007505260407     0.006536707507
       5        0.013591960413     0.008394668994    -0.010849923606
       6       -0.006037370100     0.023539535293    -0.001442871803
       7       -0.011410739270    -0.011174458765     0.009912546567
       8       -0.009394814536    -0.009479676096    -0.005381218500
       9        0.011091974132     0.008810827013    -0.010265937846
      10        0.001319648946    -0.000396559697     0.004236699138
      11        0.006293178526     0.004355465051    -0.007078597628
      12       -0.005346702380     0.002203953850     0.003150841035
      13       -0.004090132164    -0.001368749572     0.002058490350
      14        0.000346719830     0.007293973889     0.000761115812
      15       -0.002539632467    -0.004223371605    -0.001340072783
      16       -0.006922162171    -0.005965791654     0.005134208517
      17       -0.004116080650    -0.007759111389     0.000007617999
      18        0.003395798564     0.007181426440    -0.006172650325
      19        0.000556530303     0.006803124605     0.002670042818
      20       -0.001295851448    -0.005834935433    -0.002741657121
      21       -0.012413060665     0.013811085023    -0.001134596973
      22       -0.004011961096    -0.006386073981     0.006072986744


*** tstop() called on cx1-27-1-1 at Sat Sep 10 16:57:51 2016
Module time:
	user time   =      47.79 seconds =       0.80 minutes
	system time =       0.86 seconds =       0.01 minutes
	total time  =         13 seconds =       0.22 minutes
Total time:
	user time   =     183.14 seconds =       3.05 minutes
	system time =       3.44 seconds =       0.06 minutes
	total time  =         51 seconds =       0.85 minutes

			-----------------------------------------
			 OPTKING 2.0: for geometry optimizations 
			  - R.A. King,  Bethel University        
			-----------------------------------------

	Previous internal coordinate definitions found.
	---Fragment 1 Geometry and Gradient---
	 H           6.5203612710       -5.7897143296        0.4785789017
	 C           6.2801621251       -3.6382372786        0.3050995865
	 C           3.3253286690       -2.8631320066        0.2365476646
	 H           7.2933828587       -2.7421749031        1.8960241050
	 H           7.3092955621       -2.9844995538       -1.4058495271
	 C           2.9707551137        0.1603850293       -0.0175163170
	 H           2.3591075386       -3.6203848284        1.9414995975
	 H           2.3859331020       -3.8695651245       -1.3316189411
	 N           0.4856777042        1.5148662647       -0.1401194474
	 H           3.9748366759        0.9180574331        1.6140006381
	 H           4.0605620995        0.7326257273       -1.6898710020
	 C          -2.1238888004        0.4798981563       -0.0107214551
	 H           0.5340234107        2.8442005101        1.1915456573
	 C          -4.0764890351        2.6759990944       -0.2751364555
	 H          -2.4230862235       -0.8609145819       -1.5465708109
	 H          -2.5726847827       -0.5750495160        1.7339878383
	 C          -6.8738769803        1.7297100411       -0.2029953220
	 H          -3.6904368098        3.7052855086       -2.0337004983
	 H          -3.7880173879        4.0630620126        1.2372535069
	 H          -7.2438963176        0.3878807130       -1.7297160005
	 H          -8.2182854099        3.3326178648       -0.3938715903
	 H          -7.3195649756        0.7394147588        1.5651312579
	             0.0062532203       -0.0388768065        0.0037397983
	             0.0137891703        0.0074710307        0.0016202106
	            -0.0005737885       -0.0059048166        0.0005062613
	             0.0115140942        0.0075052604        0.0065367075
	             0.0135919604        0.0083946690       -0.0108499236
	            -0.0060373701        0.0235395353       -0.0014428718
	            -0.0114107393       -0.0111744588        0.0099125466
	            -0.0093948145       -0.0094796761       -0.0053812185
	             0.0110919741        0.0088108270       -0.0102659378
	             0.0013196489       -0.0003965597        0.0042366991
	             0.0062931785        0.0043554651       -0.0070785976
	            -0.0053467024        0.0022039538        0.0031508410
	            -0.0040901322       -0.0013687496        0.0020584904
	             0.0003467198        0.0072939739        0.0007611158
	            -0.0025396325       -0.0042233716       -0.0013400728
	            -0.0069221622       -0.0059657917        0.0051342085
	            -0.0041160806       -0.0077591114        0.0000076180
	             0.0033957986        0.0071814264       -0.0061726503
	             0.0005565303        0.0068031246        0.0026700428
	            -0.0012958514       -0.0058349354       -0.0027416571
	            -0.0124130607        0.0138110850       -0.0011345970
	            -0.0040119611       -0.0063860740        0.0060729867

	---Fragment 1 Intrafragment Coordinates---
	 - Coordinate -           - BOHR/RAD -       - ANG/DEG -
	 R(1,2)           =         2.171784	       1.149258
	 R(2,3)           =         3.055573	       1.616940
	 R(2,4)           =         2.088201	       1.105029
	 R(2,5)           =         2.100913	       1.111755
	 R(3,6)           =         3.054820	       1.616541
	 R(3,7)           =         2.100923	       1.111760
	 R(3,8)           =         2.086748	       1.104260
	 R(6,9)           =         2.832889	       1.499100
	 R(6,10)          =         2.060120	       1.090169
	 R(6,11)          =         2.076514	       1.098844
	 R(9,12)          =         2.810292	       1.487142
	 R(9,13)          =         1.882232	       0.996034
	 R(12,14)         =         2.950495	       1.561335
	 R(12,15)         =         2.060614	       1.090430
	 R(12,16)         =         2.087664	       1.104744
	 R(14,17)         =         2.953988	       1.563183
	 R(14,18)         =         2.073889	       1.097455
	 R(14,19)         =         2.072313	       1.096621
	 R(17,20)         =         2.065986	       1.093272
	 R(17,21)         =         2.100757	       1.111673
	 R(17,22)         =         2.074993	       1.098039
	 B(1,2,3)         =         1.939110	     111.102844
	 B(1,2,4)         =         1.886593	     108.093820
	 B(1,2,5)         =         1.895611	     108.610524
	 B(2,3,6)         =         1.944622	     111.418617
	 B(2,3,7)         =         1.912510	     109.578731
	 B(2,3,8)         =         1.906937	     109.259415
	 B(3,2,4)         =         1.957844	     112.176203
	 B(3,2,5)         =         1.956807	     112.116803
	 B(3,6,9)         =         2.187865	     125.355411
	 B(3,6,10)        =         1.814785	     103.979534
	 B(3,6,11)        =         1.853359	     106.189677
	 B(4,2,5)         =         1.822695	     104.432728
	 B(6,3,7)         =         1.950728	     111.768470
	 B(6,3,8)         =         1.941857	     111.260184
	 B(6,9,12)        =         2.260737	     129.530698
	 B(6,9,13)        =         1.859311	     106.530655
	 B(7,3,8)         =         1.801824	     103.236894
	 B(9,6,10)        =         1.860824	     106.617344
	 B(9,6,11)        =         1.868968	     107.083978
	 B(9,12,14)       =         1.913758	     109.650249
	 B(9,12,15)       =         1.917864	     109.885531
	 B(9,12,16)       =         2.008875	     115.100073
	 B(10,6,11)       =         1.855284	     106.299916
	 B(12,9,13)       =         1.824894	     104.558739
	 B(12,14,17)      =         1.967173	     112.710736
	 B(12,14,18)      =         1.898859	     108.796622
	 B(12,14,19)      =         1.918423	     109.917558
	 B(14,12,15)      =         1.898036	     108.749477
	 B(14,12,16)      =         1.884673	     107.983814
	 B(14,17,20)      =         1.938654	     111.076688
	 B(14,17,21)      =         1.938413	     111.062865
	 B(14,17,22)      =         1.957457	     112.154030
	 B(15,12,16)      =         1.836795	     105.240590
	 B(17,14,18)      =         1.934756	     110.853370
	 B(17,14,19)      =         1.905422	     109.172623
	 B(18,14,19)      =         1.834583	     105.113835
	 B(20,17,21)      =         1.889994	     108.288702
	 B(20,17,22)      =         1.855898	     106.335144
	 B(21,17,22)      =         1.879807	     107.704990
	 D(1,2,3,6)       =        -3.138006	    -179.794479
	 D(1,2,3,7)       =         0.977179	      55.988231
	 D(1,2,3,8)       =        -0.985259	     -56.451185
	 D(2,3,6,9)       =         3.139001	     179.851511
	 D(2,3,6,10)      =        -1.005356	     -57.602629
	 D(2,3,6,11)      =         0.948169	      54.326089
	 D(3,6,9,12)      =         0.024252	       1.389553
	 D(3,6,9,13)      =         2.219796	     127.184949
	 D(4,2,3,6)       =         1.031277	      59.087794
	 D(4,2,3,7)       =        -1.136724	     -65.129496
	 D(4,2,3,8)       =        -3.099162	    -177.568912
	 D(5,2,3,6)       =        -1.013220	     -58.053252
	 D(5,2,3,7)       =         3.101964	     177.729458
	 D(5,2,3,8)       =         1.139526	      65.290041
	 D(6,9,12,14)     =        -3.123990	    -178.991438
	 D(6,9,12,15)     =        -1.038687	     -59.512393
	 D(6,9,12,16)     =         1.030632	      59.050846
	 D(7,3,6,9)       =        -0.997895	     -57.175175
	 D(7,3,6,10)      =         1.140934	      65.370685
	 D(7,3,6,11)      =         3.094458	     177.299403
	 D(8,3,6,9)       =         1.006280	      57.655577
	 D(8,3,6,10)      =        -3.138077	    -179.798563
	 D(8,3,6,11)      =        -1.184552	     -67.869845
	 D(9,12,14,17)    =         3.124569	     179.024631
	 D(9,12,14,18)    =         0.971302	      55.651487
	 D(9,12,14,19)    =        -1.028842	     -58.948278
	*D(10,6,9,12)     =        -2.094395	    -119.999977
	 D(10,6,9,13)     =         0.101149	       5.795419
	 D(11,6,9,12)     =         2.208506	     126.538064
	 D(11,6,9,13)     =        -1.879136	    -107.666539
	 D(12,14,17,20)   =        -1.037598	     -59.450012
	 D(12,14,17,21)   =         3.140990	     179.965450
	 D(12,14,17,22)   =         1.036551	      59.390000
	 D(13,9,12,14)    =         0.950556	      54.462839
[...]
	 D(1,2,3,8)       =        -1.007069	     -57.700796
	 D(2,3,6,9)       =         3.132387	     179.472562
	 D(2,3,6,10)      =        -0.999336	     -57.257746
	 D(2,3,6,11)      =         0.990088	      56.727853
	 D(3,6,9,12)      =         0.044049	       2.523801
	 D(3,6,9,13)      =         2.299609	     131.757866
	 D(4,2,3,6)       =         1.059952	      60.730798
	 D(4,2,3,7)       =        -1.070126	     -61.313694
	 D(4,2,3,8)       =        -3.101107	    -177.680341
	 D(5,2,3,6)       =        -1.035703	     -59.341425
	 D(5,2,3,7)       =         3.117404	     178.614082
	 D(5,2,3,8)       =         1.086423	      62.247436
	 D(6,9,12,14)     =        -3.111884	    -178.297835
	 D(6,9,12,15)     =        -1.030879	     -59.064992
	 D(6,9,12,16)     =         1.040444	      59.613048
	 D(7,3,6,9)       =        -1.030994	     -59.071607
	 D(7,3,6,10)      =         1.120468	      64.198085
	 D(7,3,6,11)      =         3.109892	     178.183684
	 D(8,3,6,9)       =         1.021021	      58.500172
	 D(8,3,6,10)      =        -3.110703	    -178.230136
	 D(8,3,6,11)      =        -1.121279	     -64.244537
	 D(9,12,14,17)    =         3.128991	     179.277965
	 D(9,12,14,18)    =         0.991276	      56.795914
	 D(9,12,14,19)    =        -1.029894	     -59.008564
	*D(10,6,9,12)     =        -2.094395	    -119.999977
	 D(10,6,9,13)     =         0.161165	       9.234088
	 D(11,6,9,12)     =         2.178133	     124.797812
	 D(11,6,9,13)     =        -1.849493	    -105.968122
	 D(12,14,17,20)   =        -1.049796	     -60.148904
	 D(12,14,17,21)   =         3.141353	     179.986275
	 D(12,14,17,22)   =         1.046520	      59.961157
	 D(13,9,12,14)    =         0.913947	      52.365285
	 D(13,9,12,15)    =         2.994952	     171.598128
	 D(13,9,12,16)    =        -1.216910	     -69.723832
	 D(15,12,14,17)   =         1.042546	      59.733461
	 D(15,12,14,18)   =        -1.095169	     -62.748590
	 D(15,12,14,19)   =        -3.116339	    -178.553068
	 D(16,12,14,17)   =        -0.975362	     -55.884101
	 D(16,12,14,18)   =        -3.113077	    -178.366152
	 D(16,12,14,19)   =         1.148939	      65.829370
	 D(18,14,17,20)   =         1.073365	      61.499306
	 D(18,14,17,21)   =        -1.018670	     -58.365514
	 D(18,14,17,22)   =        -3.113504	    -178.390632
	 D(19,14,17,20)   =         3.109980	     178.188751
	 D(19,14,17,21)   =         1.017945	      58.323931
	 D(19,14,17,22)   =        -1.076889	     -61.701187

	Current energy   :      -290.4786688250

	Energy change for the previous step:
		Projected    :        -0.0000003730
		Actual       :        -0.0000005688
	Energy ratio indicates good step: Trust radius increased to 3.750e-01.


	Performing BFGS update.
	Previous computed or guess Hessian on step 1.
	Steps to be used in Hessian update: 8 7
	Taking RFO optimization step.
	Going to follow RFO solution 1.
	Using RFO vector 1.
	Norm of target step-size    0.00262
	Projected energy change by RFO approximation:         0.0000000909

	Back-transformation to cartesian coordinates...
	Successfully converged to displaced geometry.

	Back-transformation to cartesian coordinates to adjust frozen coordinates...
	Successfully converged to displaced geometry.

	--- Internal Coordinate Step in ANG or DEG, aJ/ANG or AJ/DEG ---
	 ---------------------------------------------------------------------------
	   Coordinate                Previous        Force       Change         New 
	   ----------                --------       ------       ------       ------
	    1 R(1,2)          =      1.083593    -0.000034    -0.000007     1.083586
	    2 R(2,3)          =      1.525625    -0.000018    -0.000002     1.525623
	    3 R(2,4)          =      1.084909     0.000050     0.000012     1.084920
	    4 R(2,5)          =      1.084715    -0.000051    -0.000007     1.084708
	    5 R(3,6)          =      1.526667    -0.000152    -0.000031     1.526636
	    6 R(3,7)          =      1.084354    -0.000108    -0.000015     1.084339
	    7 R(3,8)          =      1.084170     0.000044     0.000010     1.084180
	    8 R(6,9)          =      1.463325     0.000284     0.000045     1.463370
	    9 R(6,10)         =      1.087229     0.000045     0.000006     1.087235
	   10 R(6,11)         =      1.087017    -0.000031    -0.000006     1.087010
	   11 R(9,12)         =      1.447731    -0.000040    -0.000001     1.447730
	   12 R(9,13)         =      0.994519    -0.000064    -0.000007     0.994512
	   13 R(12,14)        =      1.522737    -0.000087    -0.000011     1.522726
	   14 R(12,15)        =      1.083514    -0.000081    -0.000012     1.083502
	   15 R(12,16)        =      1.091849     0.000022     0.000002     1.091851
	   16 R(14,17)        =      1.524681    -0.000071    -0.000010     1.524672
	   17 R(14,18)        =      1.084231     0.000018     0.000002     1.084233
	   18 R(14,19)        =      1.087643    -0.000027    -0.000002     1.087640
	   19 R(17,20)        =      1.084952     0.000020     0.000005     1.084957
	   20 R(17,21)        =      1.083644    -0.000011     0.000000     1.083644
	   21 R(17,22)        =      1.084922     0.000001     0.000001     1.084923
	   22 B(1,2,3)        =    111.027038     0.000000     0.001275   111.028312
	   23 B(1,2,4)        =    107.724541    -0.000000     0.000368   107.724909
	   24 B(1,2,5)        =    107.732533     0.000000    -0.000099   107.732434
	   25 B(2,3,6)        =    111.303010     0.000000    -0.000524   111.302486
	   26 B(2,3,7)        =    109.273040    -0.000000    -0.004446   109.268594
	   27 B(2,3,8)        =    109.009203     0.000000     0.004467   109.013669
	   28 B(3,2,4)        =    111.274736     0.000001     0.002899   111.277634
	   29 B(3,2,5)        =    111.212726    -0.000001    -0.002967   111.209758
	   30 B(3,6,9)        =    116.974605     0.000002     0.005532   116.980136
	   31 B(3,6,10)       =    107.693379    -0.000001    -0.003803   107.689575
	   32 B(3,6,11)       =    107.782321    -0.000001    -0.005889   107.776433
	   33 B(4,2,5)        =    107.699035    -0.000000    -0.001545   107.697489
	   34 B(6,3,7)        =    110.285977     0.000000    -0.002354   110.283624
	   35 B(6,3,8)        =    110.064674    -0.000000     0.003502   110.068176
	   36 B(6,9,12)       =    120.868123     0.000001     0.000749   120.868872
	   37 B(6,9,13)       =    109.875435     0.000001     0.002309   109.877745
	   38 B(7,3,8)        =    106.789216    -0.000000    -0.000618   106.788598
	   39 B(9,6,10)       =    109.142247     0.000000     0.005778   109.148024
	   40 B(9,6,11)       =    108.692679    -0.000001    -0.003446   108.689233
	   41 B(9,12,14)      =    110.228838    -0.000001    -0.002885   110.225953
	   42 B(9,12,15)      =    109.145232    -0.000000    -0.006518   109.138714
	   43 B(9,12,16)      =    113.396618     0.000001     0.006128   113.402746
	   44 B(10,6,11)      =    106.019030     0.000000     0.001437   106.020467
	   45 B(12,9,13)      =    109.641279    -0.000001    -0.007582   109.633698
	   46 B(12,14,17)     =    112.826627    -0.000001    -0.001830   112.824797
	   47 B(12,14,18)     =    108.679263     0.000000     0.001918   108.681181
	   48 B(12,14,19)     =    109.184929    -0.000000    -0.001113   109.183817
	   49 B(14,12,15)     =    108.632224     0.000000    -0.002703   108.629521
	   50 B(14,12,16)     =    108.673928     0.000000     0.004630   108.678558
	   51 B(14,17,20)     =    111.168480     0.000000     0.001134   111.169614
	   52 B(14,17,21)     =    111.077324    -0.000000    -0.001466   111.075859
	   53 B(14,17,22)     =    111.379961    -0.000000    -0.000140   111.379821
	   54 B(15,12,16)     =    106.608923    -0.000000     0.001149   106.610072
	   55 B(17,14,18)     =    110.160873     0.000000     0.000026   110.160898
	   56 B(17,14,19)     =    109.275408     0.000000     0.001666   109.277073
	   57 B(18,14,19)     =    106.512463    -0.000000    -0.000619   106.511843
	   58 B(20,17,21)     =    107.663237     0.000000     0.000060   107.663297
	   59 B(20,17,22)     =    107.696501    -0.000000    -0.000324   107.696177
	   60 B(21,17,22)     =    107.678101     0.000000     0.000764   107.678864
	   61 D(1,2,3,6)      =   -179.289657    -0.000000    -0.033376  -179.323033
	   62 D(1,2,3,7)      =     58.665850     0.000000    -0.027052    58.638798
	   63 D(1,2,3,8)      =    -57.700796     0.000000    -0.026338   -57.727134
	   64 D(2,3,6,9)      =    179.472562     0.000000     0.011493   179.484055
	   65 D(2,3,6,10)     =    -57.257746     0.000000     0.020029   -57.237717
	   66 D(2,3,6,11)     =     56.727853     0.000000     0.016925    56.744778
	   67 D(3,6,9,12)     =      2.523801     0.000000     0.003736     2.527536
	   68 D(3,6,9,13)     =    131.757866    -0.000000    -0.004506   131.753360
	   69 D(4,2,3,6)      =     60.730798    -0.000000    -0.036634    60.694164
	   70 D(4,2,3,7)      =    -61.313694    -0.000000    -0.030311   -61.344005
	   71 D(4,2,3,8)      =   -177.680341    -0.000000    -0.029597  -177.709937
	   72 D(5,2,3,6)      =    -59.341425    -0.000000    -0.034627   -59.376052
	   73 D(5,2,3,7)      =    178.614082    -0.000000    -0.028304   178.585779
	   74 D(5,2,3,8)      =     62.247436     0.000000    -0.027590    62.219846
	   75 D(6,9,12,14)    =   -178.297835     0.000000     0.029373  -178.268462
	   76 D(6,9,12,15)    =    -59.064992     0.000000     0.020303   -59.044689
	   77 D(6,9,12,16)    =     59.613048     0.000000     0.021173    59.634221
	   78 D(7,3,6,9)      =    -59.071607    -0.000000     0.003903   -59.067704
	   79 D(7,3,6,10)     =     64.198085     0.000000     0.012439    64.210524
	   80 D(7,3,6,11)     =    178.183684    -0.000000     0.009335   178.193019
	   81 D(8,3,6,9)      =     58.500172    -0.000000     0.003850    58.504022
	   82 D(8,3,6,10)     =   -178.230136     0.000000     0.012386  -178.217750
	   83 D(8,3,6,11)     =    -64.244537    -0.000000     0.009282   -64.235255
	   84 D(9,12,14,17)   =    179.277965    -0.000000    -0.033076   179.244889
	   85 D(9,12,14,18)   =     56.795914    -0.000000    -0.033254    56.762660
	   86 D(9,12,14,19)   =    -59.008564    -0.000000    -0.032967   -59.041531
	   87 *D(10,6,9,12)   =   -119.999977    -0.000000     0.000000  -119.999977
	   88 D(10,6,9,13)    =      9.234088    -0.000000    -0.008241     9.225847
	   89 D(11,6,9,12)    =    124.797812    -0.000000    -0.002940   124.794872
	   90 D(11,6,9,13)    =   -105.968122    -0.000000    -0.011181  -105.979303
	   91 D(12,14,17,20)  =    -60.148904    -0.000000     0.012404   -60.136500
	   92 D(12,14,17,21)  =    179.986275    -0.000000     0.012551   179.998826
	   93 D(12,14,17,22)  =     59.961157    -0.000000     0.012667    59.973824
	   94 D(13,9,12,14)   =     52.365285     0.000000     0.033264    52.398549
	   95 D(13,9,12,15)   =    171.598128    -0.000000     0.024193   171.622321
	   96 D(13,9,12,16)   =    -69.723832    -0.000000     0.025064   -69.698768
	   97 D(15,12,14,17)  =     59.733461     0.000000    -0.021735    59.711727
	   98 D(15,12,14,18)  =    -62.748590     0.000000    -0.021913   -62.770503
	   99 D(15,12,14,19)  =   -178.553068     0.000000    -0.021626  -178.574693
	  100 D(16,12,14,17)  =    -55.884101    -0.000000    -0.024127   -55.908228
	  101 D(16,12,14,18)  =   -178.366152     0.000000    -0.024305  -178.390457
	  102 D(16,12,14,19)  =     65.829370     0.000000    -0.024018    65.805352
	  103 D(18,14,17,20)  =     61.499306     0.000000     0.013625    61.512932
	  104 D(18,14,17,21)  =    -58.365514     0.000000     0.013772   -58.351742
	  105 D(18,14,17,22)  =   -178.390632     0.000000     0.013888  -178.376744
	  106 D(19,14,17,20)  =    178.188751     0.000000     0.013867   178.202619
	  107 D(19,14,17,21)  =     58.323931     0.000000     0.014014    58.337945
	  108 D(19,14,17,22)  =    -61.701187     0.000000     0.014130   -61.687057
	 ---------------------------------------------------------------------------
	Successfully symmetrized geometry.

  ==> Convergence Check <==

  Measures of convergence in internal coordinates in au.
  Criteria marked as inactive (o), active & met (*), and active & unmet ( ).
  ---------------------------------------------------------------------------------------------
   Step     Total Energy     Delta E     MAX Force     RMS Force      MAX Disp      RMS Disp   
  ---------------------------------------------------------------------------------------------
    Convergence Criteria    1.00e-06 *    3.00e-04 *             o    1.20e-03 *             o
  ---------------------------------------------------------------------------------------------
      9    -290.47866882   -5.69e-07 *    3.44e-05 *    6.72e-06 o    6.39e-04 *    2.52e-04 o  ~
  ---------------------------------------------------------------------------------------------


  **** Optimization is complete! (in 9 steps) ****

  ==> Optimization Summary <==

  Measures of convergence in internal coordinates in au.
  --------------------------------------------------------------------------------------------------------------- ~
   Step         Total Energy             Delta E       MAX Force       RMS Force        MAX Disp        RMS Disp  ~
  --------------------------------------------------------------------------------------------------------------- ~
      1    -290.468536478725   -290.468536478725      0.07751512      0.01242058      0.26491287      0.05659324  ~
      2    -290.450876872641      0.017659606084      0.04761678      0.01150730      0.15532052      0.03338798  ~
      3    -290.475108428600     -0.024231555959      0.02502628      0.00427875      0.04954287      0.01319518  ~
      4    -290.477994590552     -0.002886161952      0.01191241      0.00202231      0.04868049      0.01071769  ~
      5    -290.478553065493     -0.000558474942      0.00541664      0.00093181      0.01814174      0.00540491  ~
      6    -290.478654480280     -0.000101414786      0.00185448      0.00029460      0.01983898      0.00567848  ~
      7    -290.478664839589     -0.000010359309      0.00042662      0.00008631      0.01463857      0.00448012  ~
      8    -290.478668256167     -0.000003416578      0.00005129      0.00001689      0.00403794      0.00148490  ~
      9    -290.478668824953     -0.000000568787      0.00003444      0.00000672      0.00063939      0.00025239  ~
  --------------------------------------------------------------------------------------------------------------- ~

	Writing optimization data to binary file.
	Final energy is   -290.4786688249533
	Final (previous) structure:
	Cartesian Geometry (in Angstrom)
	    H     2.8130585897  -3.0428703590   0.2147660942
	    C     2.8932200204  -1.9635512923   0.1616720282
	    C     1.5138730014  -1.3145221029   0.1008788638
	    H     3.4470543092  -1.6302241028   1.0329859138
	    H     3.4812211961  -1.7187300174  -0.7163503670
	    C     1.6197882357   0.2056497903   0.0082970962
	    H     0.9454405288  -1.5989723049   0.9793982259
	    H     0.9783198905  -1.7030617974  -0.7579830223
	    N     0.3652321035   0.9549526872  -0.0688737279
	    H     2.1885444889   0.5502524835   0.8684320992
	    H     2.2221443682   0.4439134271  -0.8646304495
	    C    -0.9112497908   0.2751827866  -0.0022943761
	    H     0.3788425670   1.7052606991   0.5837519647
	    C    -2.0492233302   1.2765383284  -0.1473147949
	    H    -0.9750790217  -0.4411442591  -0.8127289149
	    H    -1.0556100153  -0.2865108739   0.9227973989
	    C    -3.4244098904   0.6196104617  -0.1030282644
	    H    -1.9218273028   1.8142687949  -1.0801455239
	    H    -1.9785519639   2.0154954684   0.6476159077
	    H    -3.5397611417  -0.1022762528  -0.9047109447
	    H    -4.2119021945   1.3565335704  -0.2083108629
	    H    -3.5838915220   0.0987668066   0.8352382494
	Saving final (previous) structure.
			--------------------------
			 OPTKING Finished Execution 
			--------------------------

    Final optimized geometry and variables:
    Molecular point group: c1
    Full point group: C1

    Geometry (in Angstrom), charge = 0, multiplicity = 1:

    H            2.813058589662    -3.042870359017     0.214766094187
    C            2.893220020447    -1.963551292251     0.161672028183
    C            1.513873001355    -1.314522102937     0.100878863836
    H            3.447054309162    -1.630224102813     1.032985913761
    H            3.481221196120    -1.718730017362    -0.716350367043
    C            1.619788235738     0.205649790343     0.008297096173
    H            0.945440528834    -1.598972304897     0.979398225901
    H            0.978319890474    -1.703061797359    -0.757983022315
    N            0.365232103474     0.954952687159    -0.068873727933
    H            2.188544488944     0.550252483486     0.868432099220
    H            2.222144368206     0.443913427137    -0.864630449477
    C           -0.911249790813     0.275182786598    -0.002294376112
    H            0.378842567024     1.705260699107     0.583751964712
    C           -2.049223330163     1.276538328351    -0.147314794933
    H           -0.975079021674    -0.441144259104    -0.812728914898
    H           -1.055610015264    -0.286510873924     0.922797398925
    C           -3.424409890407     0.619610461707    -0.103028264422
    H           -1.921827302785     1.814268794930    -1.080145523860
    H           -1.978551963926     2.015495468446     0.647615907738
    H           -3.539761141695    -0.102276252758    -0.904710944692
    H           -4.211902194536     1.356533570387    -0.208310862887
    H           -3.583891522000     0.098766806554     0.835238249401

	Cleaning optimization helper files.


Properties will be evaluated at   0.000000,   0.000000,   0.000000 Bohr

Properties computed using the  density matrix

  Nuclear Dipole Moment: (a.u.)
     X:    -0.7623      Y:    -2.3833      Z:     0.6940

  Electronic Dipole Moment: (a.u.)
     X:     0.7621      Y:     2.2550      Z:    -0.3512

  Dipole Moment: (a.u.)
     X:    -0.0001      Y:    -0.1283      Z:     0.3429     Total:     0.3661

  Dipole Moment: (Debye)
     X:    -0.0003      Y:    -0.3261      Z:     0.8715     Total:     0.9305

  Quadrupole Moment: (Debye Ang)
    XX:   -47.9162     YY:   -47.7402     ZZ:   -47.2560
    XY:    -0.3243     XZ:     0.6270     YZ:     2.1466

  Traceless Quadrupole Moment: (Debye Ang)
    XX:    -0.2787     YY:    -0.1027     ZZ:     0.3815
    XY:    -0.3243     XZ:     0.6270     YZ:     2.1466

  Mulliken Charges: (a.u.)
   Center  Symbol    Alpha    Beta     Spin     Total
       1     H     0.44723  0.44723  0.00000  0.10555
       2     C     3.15229  3.15229  0.00000 -0.30459
       3     C     3.09787  3.09787  0.00000 -0.19574
       4     H     0.45546  0.45546  0.00000  0.08909
       5     H     0.45417  0.45417  0.00000  0.09167
       6     C     3.01829  3.01829  0.00000 -0.03657
       7     H     0.45111  0.45111  0.00000  0.09777
       8     H     0.45001  0.45001  0.00000  0.09999
       9     N     3.64506  3.64506  0.00000 -0.29012
      10     H     0.46634  0.46634  0.00000  0.06732
      11     H     0.46033  0.46033  0.00000  0.07933
      12     C     3.02391  3.02391  0.00000 -0.04781
      13     H     0.44368  0.44368  0.00000  0.11263
      14     C     3.08114  3.08114  0.00000 -0.16229
      15     H     0.45810  0.45810  0.00000  0.08380
      16     H     0.47219  0.47219  0.00000  0.05561
      17     C     3.15366  3.15366  0.00000 -0.30732
      18     H     0.44953  0.44953  0.00000  0.10094
      19     H     0.46058  0.46058  0.00000  0.07883
      20     H     0.45499  0.45499  0.00000  0.09002
      21     H     0.44778  0.44778  0.00000  0.10443
      22     H     0.45628  0.45628  0.00000  0.08744

   Total alpha = 29.00000, Total beta = 29.00000, Total charge =  0.00000


*** Psi4 exiting successfully. Buy a developer a beer!
