    -----------------------------------------------------------------------
          Psi4: An Open-Source Ab Initio Electronic Structure Package
                              Psi4 (no tag) Driver

                          Git: Rev {detached?}  

    J. M. Turney, A. C. Simmonett, R. M. Parrish, E. G. Hohenstein,
    F. A. Evangelista, J. T. Fermann, B. J. Mintz, L. A. Burns, J. J. Wilke,
    M. L. Abrams, N. J. Russ, M. L. Leininger, C. L. Janssen, E. T. Seidl,
    W. D. Allen, H. F. Schaefer, R. A. King, E. F. Valeev, C. D. Sherrill,
    and T. D. Crawford, WIREs Comput. Mol. Sci. 2, 556-565 (2012)
    (doi: 10.1002/wcms.93)

                         Additional Contributions by
    A. E. DePrince, M. Saitow, U. Bozkaya, A. Yu. Sokolov
    -----------------------------------------------------------------------


    Psi4 started on: Fri Sep  2 12:05:06 2016

    Process ID:  21633
    PSI4DATADIR: /export131/home/mjharvey/miniconda3/share
    Memory level set to 256.000 MB

  ==> Input File <==

--------------------------------------------------------------------------
set {
	reference rhf
	basis 6-31G*
}


set_num_threads( 4 )
memory 2 gb

molecule MOL {
0 1

H	 3.276176	 0.174363	 -0.109463
N	 2.434251	 -0.367735	 -0.081097
C	 1.267428	 0.496480	 0.024474
H	 2.501951	 -0.965776	 0.720575
C	 -0.016086	 -0.325158	 -0.029487
H	 1.288818	 1.183521	 -0.816092
H	 1.267576	 1.109062	 0.929528
C	 -1.282277	 0.529072	 0.046735
H	 -0.012495	 -0.908639	 -0.945788
H	 -0.015903	 -1.041248	 0.791956
C	 -1.988392	 0.426005	 1.398208
H	 -1.968968	 0.226614	 -0.741276
H	 -1.031956	 1.569603	 -0.149710
H	 -2.283281	 -0.597981	 1.608477
H	 -2.883267	 1.040107	 1.422700
H	 -1.339535	 0.754390	 2.205283

	symmetry c1
}
set optking {
	frozen_dihedral = ("
		12 8 5 9
	")
}

ee = optimize('scf')
oeprop('DIPOLE', 'QUADRUPOLE', 'MULLIKEN_CHARGES')
f=open( 'psi4out.xyz', 'w' )
f.write( "16  " )
f.write( str(ee) + "\n" )
f.write( MOL.save_string_xyz() )
f.close()
--------------------------------------------------------------------------

  Memory set to   2.000 GiB by Python script.
gradient() will perform analytic gradient computation.

*** tstart() called on cx1-1-4-2.cx1.hpc.ic.ac.uk
*** at Fri Sep  2 12:05:06 2016


         ---------------------------------------------------------
                                   SCF
            by Justin Turney, Rob Parrish, and Andy Simmonett
                              RHF Reference
                        4 Threads,   2000 MiB Core
         ---------------------------------------------------------

  ==> Geometry <==

    Molecular point group: c1
    Full point group: C1

    Geometry (in Angstrom), charge = 0, multiplicity = 1:

       Center              X                  Y                   Z               Mass       
    ------------   -----------------  -----------------  -----------------  -----------------
           H          3.157898635721     0.024801940886    -0.398127079926     1.007825032070
           N          2.315973635721    -0.517296059114    -0.369761079926    14.003074004780
           C          1.149150635721     0.346918940886    -0.264190079926    12.000000000000
           H          2.383673635721    -1.115337059114     0.431910920074     1.007825032070
           C         -0.134363364279    -0.474719059114    -0.318151079926    12.000000000000
           H          1.170540635721     1.033959940886    -1.104756079926     1.007825032070
           H          1.149298635721     0.959500940886     0.640863920074     1.007825032070
           C         -1.400554364279     0.379510940886    -0.241929079926    12.000000000000
           H         -0.130772364279    -1.058200059114    -1.234452079926     1.007825032070
           H         -0.134180364279    -1.190809059114     0.503291920074     1.007825032070
           C         -2.106669364279     0.276443940886     1.109543920074    12.000000000000
           H         -2.087245364279     0.077052940886    -1.029940079926     1.007825032070
           H         -1.150233364279     1.420041940886    -0.438374079926     1.007825032070
           H         -2.401558364279    -0.747542059114     1.319812920074     1.007825032070
           H         -3.001544364279     0.890545940886     1.134035920074     1.007825032070
           H         -1.457812364279     0.604828940886     1.916618920074     1.007825032070

  Running in c1 symmetry.

  Rotational constants: A =      0.46995  B =      0.07004  C =      0.06889 [cm^-1]
  Rotational constants: A =  14088.85757  B =   2099.80627  C =   2065.39763 [MHz]
  Nuclear repulsion =  187.634283994683614

  Charge       = 0
  Multiplicity = 1
  Electrons    = 42
  Nalpha       = 21
  Nbeta        = 21

  ==> Algorithm <==

  SCF Algorithm Type is DF.
  DIIS enabled.
  MOM disabled.
  Fractional occupation disabled.
  Guess Type is CORE.
  Energy threshold   = 1.00e-08
  Density threshold  = 1.00e-08
  Integral threshold = 0.00e+00

  ==> Primary Basis <==

  Basis Set: 6-31G*
    Number of shells: 52
    Number of basis function: 97
    Number of Cartesian functions: 97
    Spherical Harmonics?: false
    Max angular momentum: 2

  ==> Pre-Iterations <==

   -------------------------------------------------------
    Irrep   Nso     Nmo     Nalpha   Nbeta   Ndocc  Nsocc
   -------------------------------------------------------
     A         97      97       0       0       0       0
   -------------------------------------------------------
    Total      97      97      21      21      21       0
   -------------------------------------------------------

 OEINTS: Overlap, kinetic, potential, dipole, and quadrupole integrals
         stored in file 35.

  ==> Integral Setup <==

  ==> DFJK: Density-Fitted J/K Matrices <==

    J tasked:                  Yes
    K tasked:                  Yes
    wK tasked:                  No
    OpenMP threads:              4
    Integrals threads:           4
    Memory (MB):              1430
    Algorithm:                Core
    Integral Cache:           NONE
    Schwarz Cutoff:          1E-12
    Fitting Condition:       1E-12

   => Auxiliary Basis Set <=

  Basis Set: 
    Number of shells: 219
    Number of basis function: 680
    Number of Cartesian functions: 680
    Spherical Harmonics?: false
    Max angular momentum: 3

  Minimum eigenvalue in the overlap matrix is 3.9949707044E-03.
  Using Symmetric Orthogonalization.
  SCF Guess: Core (One-Electron) Hamiltonian.

  ==> Iterations <==

                           Total Energy        Delta E     RMS |[F,P]|

   @DF-RHF iter   1:  -160.97651574909392   -1.60977e+02   7.89243e-02 
   @DF-RHF iter   2:   -93.10125838852005    6.78753e+01   8.97004e-02 DIIS
   @DF-RHF iter   3:  -176.63103476589529   -8.35298e+01   4.59992e-02 DIIS
   @DF-RHF iter   4:  -151.42805850275275    2.52030e+01   7.26045e-02 DIIS
   @DF-RHF iter   5:  -208.97896259993624   -5.75509e+01   1.95035e-02 DIIS
   @DF-RHF iter   6:  -212.10012330163138   -3.12116e+00   6.94957e-03 DIIS
   @DF-RHF iter   7:  -212.29326674768114   -1.93143e-01   1.97700e-03 DIIS
   @DF-RHF iter   8:  -212.31082215272565   -1.75554e-02   3.53226e-04 DIIS
   @DF-RHF iter   9:  -212.31197002980403   -1.14788e-03   8.45317e-05 DIIS
   @DF-RHF iter  10:  -212.31204759893043   -7.75691e-05   2.26038e-05 DIIS
   @DF-RHF iter  11:  -212.31205271443699   -5.11551e-06   7.96057e-06 DIIS
   @DF-RHF iter  12:  -212.31205330686382   -5.92427e-07   2.94234e-06 DIIS
   @DF-RHF iter  13:  -212.31205337677321   -6.99094e-08   7.83538e-07 DIIS
   @DF-RHF iter  14:  -212.31205338175275   -4.97954e-09   2.26951e-07 DIIS
   @DF-RHF iter  15:  -212.31205338229503   -5.42286e-10   4.15412e-08 DIIS
   @DF-RHF iter  16:  -212.31205338231197   -1.69393e-11   1.23649e-08 DIIS
   @DF-RHF iter  17:  -212.31205338231305   -1.08002e-12   3.06390e-09 DIIS

  ==> Post-Iterations <==

    Orbital Energies (a.u.)
    -----------------------

    Doubly Occupied:                                                      

       1A    -15.532514     2A    -11.240412     3A    -11.213846  
       4A    -11.208704     5A    -11.208168     6A     -1.176777  
       7A     -1.060029     8A     -0.957037     9A     -0.848922  
      10A     -0.789172    11A     -0.659610    12A     -0.637077  
      13A     -0.608531    14A     -0.581145    15A     -0.561936  
      16A     -0.524317    17A     -0.505496    18A     -0.470469  
      19A     -0.459869    20A     -0.458934    21A     -0.381161  

    Virtual:                                                              

      22A      0.229424    23A      0.239045    24A      0.274216  
      25A      0.281625    26A      0.299195    27A      0.316558  
      28A      0.325175    29A      0.328723    30A      0.344009  
      31A      0.353222    32A      0.379248    33A      0.413951  
      34A      0.451707    35A      0.464733    36A      0.472920  
      37A      0.723623    38A      0.730690    39A      0.747217  
      40A      0.789796    41A      0.804928    42A      0.824815  
      43A      0.858914    44A      0.941373    45A      0.960941  
      46A      0.963652    47A      1.004716    48A      1.019020  
      49A      1.074063    50A      1.130887    51A      1.145855  
      52A      1.152168    53A      1.158100    54A      1.188029  
      55A      1.193201    56A      1.203490    57A      1.229225  
      58A      1.236531    59A      1.245965    60A      1.258009  
      61A      1.278353    62A      1.290314    63A      1.321652  
      64A      1.490956    65A      1.599044    66A      1.719400  
      67A      1.733211    68A      1.828282    69A      1.894733  
      70A      1.988611    71A      2.006345    72A      2.139682  
      73A      2.166317    74A      2.210833    75A      2.256547  
      76A      2.299049    77A      2.328948    78A      2.365827  
      79A      2.399197    80A      2.482179    81A      2.563061  
      82A      2.583063    83A      2.646239    84A      2.693322  
      85A      2.724760    86A      2.767207    87A      2.783052  
      88A      2.865150    89A      2.937262    90A      3.002275  
      91A      3.094257    92A      3.157726    93A      4.218103  
      94A      4.579088    95A      4.685074    96A      4.859501  
      97A      4.972409  

    Final Occupation by Irrep:
              A 
    DOCC [    21 ]

  Energy converged.

  @DF-RHF Final Energy:  -212.31205338231305

   => Energetics <=

    Nuclear Repulsion Energy =            187.6342839946836136
    One-Electron Energy =                -657.7244245704212062
    Two-Electron Energy =                 257.7780871934245397
    DFT Exchange-Correlation Energy =       0.0000000000000000
    Empirical Dispersion Energy =           0.0000000000000000
    PCM Polarization Energy =               0.0000000000000000
    EFP Energy =                            0.0000000000000000
    Total Energy =                       -212.3120533823130245

    Alert: EFP and PCM quantities not currently incorporated into SCF psivars.

Properties will be evaluated at   0.000000,   0.000000,   0.000000 Bohr
  ==> Properties <==


Properties computed using the SCF density matrix

  Nuclear Dipole Moment: (a.u.)
     X:    -2.3522      Y:     0.8441      Z:     1.6331

  Electronic Dipole Moment: (a.u.)
     X:     2.4235      Y:    -0.5509      Z:    -1.1919

  Dipole Moment: (a.u.)
     X:     0.0713      Y:     0.2933      Z:     0.4412     Total:     0.5345

  Dipole Moment: (Debye)
     X:     0.1812      Y:     0.7454      Z:     1.1213     Total:     1.3586


  Saving occupied orbitals to File 180.

*** tstop() called on cx1-1-4-2.cx1.hpc.ic.ac.uk at Fri Sep  2 12:05:11 2016
Module time:
	user time   =      10.68 seconds =       0.18 minutes
	system time =       0.18 seconds =       0.00 minutes
	total time  =          5 seconds =       0.08 minutes
Total time:
	user time   =      10.68 seconds =       0.18 minutes
	system time =       0.18 seconds =       0.00 minutes
	total time  =          5 seconds =       0.08 minutes

*** tstart() called on cx1-1-4-2.cx1.hpc.ic.ac.uk
*** at Fri Sep  2 12:05:11 2016


         ------------------------------------------------------------
                                   SCF GRAD                          
                          Rob Parrish, Justin Turney,                
                       Andy Simmonett, and Alex Sokolov              
         ------------------------------------------------------------

  ==> Geometry <==

    Molecular point group: c1
    Full point group: C1

    Geometry (in Angstrom), charge = 0, multiplicity = 1:

       Center              X                  Y                   Z               Mass       
    ------------   -----------------  -----------------  -----------------  -----------------
           H          3.157898635721     0.024801940886    -0.398127079926     1.007825032070
           N          2.315973635721    -0.517296059114    -0.369761079926    14.003074004780
           C          1.149150635721     0.346918940886    -0.264190079926    12.000000000000
           H          2.383673635721    -1.115337059114     0.431910920074     1.007825032070
           C         -0.134363364279    -0.474719059114    -0.318151079926    12.000000000000
           H          1.170540635721     1.033959940886    -1.104756079926     1.007825032070
           H          1.149298635721     0.959500940886     0.640863920074     1.007825032070
           C         -1.400554364279     0.379510940886    -0.241929079926    12.000000000000
           H         -0.130772364279    -1.058200059114    -1.234452079926     1.007825032070
           H         -0.134180364279    -1.190809059114     0.503291920074     1.007825032070
           C         -2.106669364279     0.276443940886     1.109543920074    12.000000000000
           H         -2.087245364279     0.077052940886    -1.029940079926     1.007825032070
           H         -1.150233364279     1.420041940886    -0.438374079926     1.007825032070
           H         -2.401558364279    -0.747542059114     1.319812920074     1.007825032070
           H         -3.001544364279     0.890545940886     1.134035920074     1.007825032070
           H         -1.457812364279     0.604828940886     1.916618920074     1.007825032070

  Nuclear repulsion =  187.634283994683642

  ==> Basis Set <==

  Basis Set: 6-31G*
    Number of shells: 52
    Number of basis function: 97
    Number of Cartesian functions: 97
    Spherical Harmonics?: false
    Max angular momentum: 2

  ==> DFJKGrad: Density-Fitted SCF Gradients <==

    Gradient:                    1
    J tasked:                  Yes
    K tasked:                  Yes
    wK tasked:                  No
    OpenMP threads:              4
    Integrals threads:           4
    Memory (MB):              1430
    Schwarz Cutoff:          0E+00
    Fitting Condition:       1E-12

   => Auxiliary Basis Set <=

  Basis Set: 
    Number of shells: 219
    Number of basis function: 680
    Number of Cartesian functions: 680
    Spherical Harmonics?: false
    Max angular momentum: 3


  -Total Gradient:
     Atom            X                  Y                   Z
    ------   -----------------  -----------------  -----------------
       1       -0.000109062067     0.000026187018     0.000008476180
       2        0.000138044558    -0.000451972452    -0.000355831422
       3       -0.001487596627     0.001561820180    -0.000339146010
       4       -0.000014072298     0.000070558573     0.000037878810
       5       -0.003860818784     0.004070378468     0.002499794674
       6        0.000291592933     0.000288221099    -0.000013540802
       7        0.000219877011    -0.000418588030    -0.000195005411
       8        0.005103959062    -0.001393768393    -0.000110933281
       9       -0.002466328194    -0.000298544958    -0.001165864083
      10       -0.001333887493     0.000537919849     0.001566999936
      11        0.001575394831    -0.002393666990    -0.000005009689
      12        0.000272741196    -0.001454299385    -0.001932375579
      13        0.001702889041     0.000038127744     0.000465256346
      14       -0.000038805276    -0.000028594977     0.000381077401
      15        0.000205588873    -0.000205896445    -0.000543662974
      16       -0.000199516764     0.000052118699    -0.000298114098


*** tstop() called on cx1-1-4-2.cx1.hpc.ic.ac.uk at Fri Sep  2 12:05:14 2016
Module time:
	user time   =      11.52 seconds =       0.19 minutes
	system time =       0.16 seconds =       0.00 minutes
	total time  =          3 seconds =       0.05 minutes
Total time:
	user time   =      22.23 seconds =       0.37 minutes
	system time =       0.34 seconds =       0.01 minutes
	total time  =          8 seconds =       0.13 minutes
CURRENT ENERGY: -212.3120533823

			-----------------------------------------
			 OPTKING 2.0: for geometry optimizations 
			  - R.A. King,  Bethel University        
			-----------------------------------------

	Internal coordinates to be generated automatically.
	Detected frag with atoms:  1 2 3 4 5 6 7 8 9 10 11 12 13 14 15 16
	---Fragment 1 Bond Connectivity---
	 1 : 2
	 2 : 1 3 4
	 3 : 2 5 6 7
	 4 : 2
	 5 : 3 8 9 10
	 6 : 3
	 7 : 3
	 8 : 5 11 12 13
	 9 : 5
	 10 : 5
	 11 : 8 14 15 16
	 12 : 8
	 13 : 8
	 14 : 11
	 15 : 11
	 16 : 11

	Assuming in current code that numbering for constraints corresponds to unified fragment.
	Frozen dihedral atom list: 
	    12     8     5     9
	---Fragment 1 Geometry and Gradient---
	 H           5.9675635769        0.0468688758       -0.7523511471
	 N           4.3765559025       -0.9775478813       -0.6987471757
	 C           2.1715799869        0.6555817886       -0.4992468981
	 H           4.5044903617       -2.1076815876        0.8161933527
	 C          -0.2539099608       -0.8970890118       -0.6012184099
	 H           2.2120012289        1.9539011206       -2.0876864347
	 H           2.1718596664        1.8131940025        1.2110572974
	 C          -2.6466641827        0.7171717427       -0.4571797046
	 H          -0.2471239542       -1.9997083055       -2.3327763552
	 H          -0.2535641409       -2.2503029983        0.9510838938
	 C          -3.9810281510        0.5224033394        2.0967341413
	 H          -3.9443221106        0.1456089560       -1.9463046843
	 H          -2.1736260474        2.6834903655       -0.8284069548
	 H          -4.5382876006       -1.4126497645        2.4940849656
	 H          -5.6720968242        1.6828879370        2.1430173138
	 H          -2.7548661216        1.1429610555        3.6218848600
	            -0.0001090621        0.0000261870        0.0000084762
	             0.0001380446       -0.0004519725       -0.0003558314
	            -0.0014875966        0.0015618202       -0.0003391460
	            -0.0000140723        0.0000705586        0.0000378788
	            -0.0038608188        0.0040703785        0.0024997947
	             0.0002915929        0.0002882211       -0.0000135408
	             0.0002198770       -0.0004185880       -0.0001950054
	             0.0051039591       -0.0013937684       -0.0001109333
	            -0.0024663282       -0.0002985450       -0.0011658641
	            -0.0013338875        0.0005379198        0.0015669999
	             0.0015753948       -0.0023936670       -0.0000050097
	             0.0002727412       -0.0014542994       -0.0019323756
	             0.0017028890        0.0000381277        0.0004652563
	            -0.0000388053       -0.0000285950        0.0003810774
	             0.0002055889       -0.0002058964       -0.0005436630
	            -0.0001995168        0.0000521187       -0.0002981141

	Previous optimization step data not found.  Starting new optimization.

	---Fragment 1 Intrafragment Coordinates---
	 - Coordinate -           - BOHR/RAD -       - ANG/DEG -
	 R(1,2)           =         1.893042	       1.001755
	 R(2,3)           =         2.751151	       1.455847
	 R(2,4)           =         1.894364	       1.002454
	 R(3,5)           =         2.881699	       1.524929
	 R(3,6)           =         2.051928	       1.085833
	 R(3,7)           =         2.065238	       1.092877
	 R(5,8)           =         2.889958	       1.529300
	 R(5,9)           =         2.052829	       1.086311
	 R(5,10)          =         2.059328	       1.089749
	 R(8,11)          =         2.888068	       1.528300
	 R(8,12)          =         2.056233	       1.088112
	 R(8,13)          =         2.056206	       1.088098
	 R(11,14)         =         2.052524	       1.086149
	 R(11,15)         =         2.051482	       1.085598
	 R(11,16)         =         2.052961	       1.086380
	 B(1,2,3)         =         1.933087	     110.757749
	 B(1,2,4)         =         1.863688	     106.781477
	 B(2,3,5)         =         1.930697	     110.620805
	 B(2,3,6)         =         1.879345	     107.678541
	 B(2,3,7)         =         1.974340	     113.121346
	 B(3,2,4)         =         1.928660	     110.504074
	 B(3,5,8)         =         1.975942	     113.213133
	 B(3,5,9)         =         1.892801	     108.449517
	 B(3,5,10)        =         1.904179	     109.101401
	 B(5,3,6)         =         1.907212	     109.275202
	 B(5,3,7)         =         1.908615	     109.355608
	 B(5,8,11)        =         1.970279	     112.888658
	 B(5,8,12)        =         1.908318	     109.338580
	 B(5,8,13)        =         1.912067	     109.553391
	 B(6,3,7)         =         1.861281	     106.643549
	 B(8,5,9)         =         1.922823	     110.169653
	 B(8,5,10)        =         1.906695	     109.245562
	 B(8,11,14)       =         1.939291	     111.113198
	 B(8,11,15)       =         1.941914	     111.263470
	 B(8,11,16)       =         1.939719	     111.137685
	 B(9,5,10)        =         1.857582	     106.431583
	 B(11,8,12)       =         1.907191	     109.273969
	 B(11,8,13)       =         1.907559	     109.295058
	 B(12,8,13)       =         1.854852	     106.275192
	 B(14,11,15)      =         1.880878	     107.766391
	 B(14,11,16)      =         1.878963	     107.656649
	 B(15,11,16)      =         1.880297	     107.733103
	 D(1,2,3,5)       =         3.073475	     176.097137
	 D(1,2,3,6)       =         0.990452	      56.748737
	 D(1,2,3,7)       =        -1.061674	     -60.829417
	 D(2,3,5,8)       =        -3.120123	    -178.769860
	 D(2,3,5,9)       =        -0.980576	     -56.182883
	 D(2,3,5,10)      =         1.035938	      59.354871
	 D(3,5,8,11)      =        -1.858965	    -106.510852
	 D(3,5,8,12)      =         2.297313	     131.626330
	 D(3,5,8,13)      =         0.271105	      15.533161
	 D(4,2,3,5)       =        -1.148048	     -65.778299
	 D(4,2,3,6)       =         3.052115	     174.873301
	 D(4,2,3,7)       =         0.999989	      57.295147
	 D(5,8,11,14)     =        -1.043753	     -59.802654
	 D(5,8,11,15)     =        -3.139595	    -179.885524
	 D(5,8,11,16)     =         1.048197	      60.057260
	 D(6,3,5,8)       =        -1.053994	     -60.389387
	 D(6,3,5,9)       =         1.085553	      62.197591
	 D(6,3,5,10)      =         3.102067	     177.735345
	 D(7,3,5,8)       =         0.977363	      55.998780
	 D(7,3,5,9)       =         3.116909	     178.585758
	 D(7,3,5,10)      =        -1.149762	     -65.876489
	 D(9,5,8,11)      =         2.301439	     131.862767
	*D(9,5,8,12)      =         0.174532	       9.999949
	 D(9,5,8,13)      =        -1.851676	    -106.093220
	 D(10,5,8,11)     =         0.266751	      15.283678
	 D(10,5,8,12)     =        -1.860157	    -106.579139
	 D(10,5,8,13)     =         2.396820	     137.327692
	 D(12,8,11,14)    =         1.083789	      62.096554
	 D(12,8,11,15)    =        -1.012052	     -57.986316
	 D(12,8,11,16)    =        -3.107446	    -178.043532
	 D(13,8,11,14)    =         3.106829	     178.008206
	 D(13,8,11,15)    =         1.010988	      57.925336
	 D(13,8,11,16)    =        -1.084406	     -62.131880

	Current energy   :      -212.3120533823

	Generating empirical Hessian (Schlegel '84) for each fragment.
	Taking RFO optimization step.
	Going to follow RFO solution 1.
	Using RFO vector 1.
	Norm of target step-size    0.25775
	Projected energy change by RFO approximation:         0.0045945256

	Back-transformation to cartesian coordinates...
	Successfully converged to displaced geometry.

	Back-transformation to cartesian coordinates to adjust frozen coordinates...
	Successfully converged to displaced geometry.

	--- Internal Coordinate Step in ANG or DEG, aJ/ANG or AJ/DEG ---
	 ---------------------------------------------------------------------------
	   Coordinate                Previous        Force       Change         New 
	   ----------                --------       ------       ------       ------
	    1 R(1,2)          =      1.001755     0.000640     0.000087     1.001841
	    2 R(2,3)          =      1.455847    -0.002021    -0.000345     1.455501
	    3 R(2,4)          =      1.002454     0.000105     0.000014     1.002468
	    4 R(3,5)          =      1.524929     0.002138     0.000458     1.525387
	    5 R(3,6)          =      1.085833    -0.001636    -0.000297     1.085537
	    6 R(3,7)          =      1.092877     0.003263     0.000606     1.093483
	    7 R(5,8)          =      1.529300     0.084440     0.018331     1.547631
	    8 R(5,9)          =      1.086311    -0.009356    -0.001700     1.084610
	    9 R(5,10)         =      1.089749    -0.006817    -0.001253     1.088496
	   10 R(8,11)         =      1.528300     0.007834     0.001695     1.529995
	   11 R(8,12)         =      1.088112    -0.013442    -0.002458     1.085654
	   12 R(8,13)         =      1.088098    -0.002836    -0.000518     1.087579
	   13 R(11,14)        =      1.086149    -0.000917    -0.000167     1.085983
	   14 R(11,15)        =      1.085598     0.002457     0.000445     1.086043
	   15 R(11,16)        =      1.086380     0.002677     0.000487     1.086867
	   16 B(1,2,3)        =    110.757749     0.000010     0.063745   110.821494
	   17 B(1,2,4)        =    106.781477    -0.000004     0.017750   106.799227
	   18 B(2,3,5)        =    110.620805     0.000050     0.191866   110.812672
	   19 B(2,3,6)        =    107.678541     0.000005     0.102868   107.781410
	   20 B(2,3,7)        =    113.121346    -0.000011     0.022734   113.144080
	   21 B(3,2,4)        =    110.504074     0.000006     0.046045   110.550119
	   22 B(3,5,8)        =    113.213133     0.000012     0.313839   113.526972
	   23 B(3,5,9)        =    108.449517    -0.000064     0.023110   108.472626
	   24 B(3,5,10)       =    109.101401    -0.000070    -0.841102   108.260299
	   25 B(5,3,6)        =    109.275202    -0.000036    -0.212719   109.062483
	   26 B(5,3,7)        =    109.355608    -0.000018    -0.082844   109.272764
	   27 B(5,8,11)       =    112.888658     0.000224     1.127965   114.016622
	   28 B(5,8,12)       =    109.338580     0.000016     0.850999   110.189578
	   29 B(5,8,13)       =    109.553391    -0.000019    -0.114693   109.438698
	   30 B(6,3,7)        =    106.643549     0.000008    -0.039554   106.603995
	   31 B(8,5,9)        =    110.169653     0.000117     1.289440   111.459093
	   32 B(8,5,10)       =    109.245562     0.000053     0.196294   109.441856
	   33 B(8,11,14)      =    111.113198    -0.000048    -0.260699   110.852499
	   34 B(8,11,15)      =    111.263470     0.000061     0.327675   111.591145
	   35 B(8,11,16)      =    111.137685     0.000003     0.004281   111.141967
	   36 B(9,5,10)       =    106.431583    -0.000055    -1.121804   105.309779
	   37 B(11,8,12)      =    109.273969    -0.000084     0.200702   109.474671
	   38 B(11,8,13)      =    109.295058    -0.000128    -0.946581   108.348476
	   39 B(12,8,13)      =    106.275192    -0.000024    -1.310930   104.964262
	   40 B(14,11,15)     =    107.766391    -0.000004     0.000466   107.766858
	   41 B(14,11,16)     =    107.656649     0.000013    -0.024427   107.632222
	   42 B(15,11,16)     =    107.733103    -0.000025    -0.052812   107.680291
	   43 D(1,2,3,5)      =    176.097137    -0.000002     0.097941   176.195078
	   44 D(1,2,3,6)      =     56.748737     0.000001     0.182414    56.931151
	   45 D(1,2,3,7)      =    -60.829417    -0.000000     0.151184   -60.678233
	   46 D(2,3,5,8)      =   -178.769860    -0.000009    -3.787997  -182.557857
	   47 D(2,3,5,9)      =    -56.182883     0.000016    -1.894661   -58.077544
	   48 D(2,3,5,10)     =     59.354871    -0.000016    -3.643548    55.711323
	   49 D(3,5,8,11)     =   -106.510852     0.000015     2.916461  -103.594391
	   50 D(3,5,8,12)     =    131.626330     0.000002     1.224718   132.851048
	   51 D(3,5,8,13)     =     15.533161     0.000009     2.386919    17.920079
	   52 D(4,2,3,5)      =    -65.778299    -0.000000     0.189057   -65.589243
	   53 D(4,2,3,6)      =    174.873301     0.000002     0.273530   175.146830
	   54 D(4,2,3,7)      =     57.295147     0.000001     0.242300    57.537447
	   55 D(5,8,11,14)    =    -59.802654    -0.000006    -3.520868   -63.323522
	   56 D(5,8,11,15)    =   -179.885524    -0.000007    -3.565049  -183.450574
	   57 D(5,8,11,16)    =     60.057260    -0.000010    -3.722105    56.335154
	   58 D(6,3,5,8)      =    -60.389387    -0.000006    -3.678264   -64.067651
	   59 D(6,3,5,9)      =     62.197591     0.000019    -1.784928    60.412663
	   60 D(6,3,5,10)     =    177.735345    -0.000012    -3.533816   174.201529
	   61 D(7,3,5,8)      =     55.998780    -0.000011    -3.891806    52.106974
	   62 D(7,3,5,9)      =    178.585758     0.000014    -1.998470   176.587288
	   63 D(7,3,5,10)     =    -65.876489    -0.000017    -3.747357   -69.623846
	   64 D(9,5,8,11)     =    131.862767     0.000013     1.691743   133.554510
	   65 *D(9,5,8,12)    =      9.999949    -0.000000    -0.000000     9.999949
	   66 D(9,5,8,13)     =   -106.093220     0.000007     1.162201  -104.931020
	   67 D(10,5,8,11)    =     15.283678     0.000005     2.191851    17.475529
	   68 D(10,5,8,12)    =   -106.579139    -0.000007     0.500108  -106.079032
	   69 D(10,5,8,13)    =    137.327692    -0.000000     1.662308   138.990000
	   70 D(12,8,11,14)   =     62.096554     0.000019    -1.479597    60.616956
	   71 D(12,8,11,15)   =    -57.986316     0.000018    -1.523779   -59.510096
	   72 D(12,8,11,16)   =   -178.043532     0.000016    -1.680835  -179.724368
	   73 D(13,8,11,14)   =    178.008206    -0.000015    -3.447652   174.560554
	   74 D(13,8,11,15)   =     57.925336    -0.000015    -3.491834    54.433502
	   75 D(13,8,11,16)   =    -62.131880    -0.000018    -3.648890   -65.780770
	 ---------------------------------------------------------------------------

  ==> Convergence Check <==

  Measures of convergence in internal coordinates in au.
  Criteria marked as inactive (o), active & met (*), and active & unmet ( ).
  --------------------------------------------------------------------------------------------- ~
   Step     Total Energy     Delta E     MAX Force     RMS Force      MAX Disp      RMS Disp    ~
  --------------------------------------------------------------------------------------------- ~
    Convergence Criteria    1.00e-06 *    3.00e-04 *             o    1.20e-03 *             o  ~
  --------------------------------------------------------------------------------------------- ~
      1    -212.31205338   -2.12e+02      1.02e-02      1.39e-03 o    6.79e-02      2.98e-02 o  ~
  ---------------------------------------------------------------------------------------------

	Writing optimization data to binary file.
	Structure for next step:
	Cartesian Geometry (in Angstrom)
	    H     3.1648620505   0.0322945150  -0.3464588282
	    N     2.3247955393  -0.5134344166  -0.3340292224
	    C     1.1507592335   0.3452415846  -0.2811323255
	    H     2.3706352713  -1.0973544341   0.4795303496
	    C    -0.1290737431  -0.4812644799  -0.3567699379
	    H     1.1912035321   1.0150296084  -1.1344422718
	    H     1.1202070176   0.9770334603   0.6108376351
	    C    -1.4192144213   0.3658624640  -0.2424268833
	    H    -0.1125654990  -1.0569743986  -1.2758264687
	    H    -0.1071763463  -1.2179401686   0.4442627096
	    C    -2.1005987460   0.2812308180   1.1248472005
	    H    -2.1246986501   0.0804725089  -1.0166937877
	    H    -1.1865663937   1.4087669754  -0.4450428585
	    H    -2.4370342692  -0.7313251029   1.3270847881
	    H    -2.9656734244   0.9353973816   1.1814320065
	    H    -1.4182591844   0.5666668080   1.9212257423
			--------------------------
			 OPTKING Finished Execution 
			--------------------------

    Structure for next step:
    Molecular point group: c1
    Full point group: C1

    Geometry (in Angstrom), charge = 0, multiplicity = 1:

    H            3.164149203193     0.034177300495    -0.346682522192
    N            2.324082756135    -0.511551589389    -0.334252917328
    C            1.150046540006     0.347124346221    -0.281356024395
    H            2.369922484568    -1.095471562265     0.479306592565
    C           -0.129786338860    -0.479381655177    -0.356993631011
    H            1.190490835517     1.016912318886    -1.134665905616
    H            1.119494326366     0.978916173706     0.610613868067
    C           -1.419926918549     0.367745224062    -0.242650585230
    H           -0.113278096112    -1.055091529912    -1.276050091663
    H           -0.107888943775    -1.216057287652     0.444038955301
    C           -2.101311191230     0.283113584553     1.124623394215
    H           -2.125411093476     0.082355290750    -1.016917430454
    H           -1.187278908792     1.410649655854    -0.445266544893
    H           -2.437746688724    -0.729442259026     1.326860966382
    H           -2.966385803584     0.937280098157     1.181208195867
    H           -1.418971681719     0.568549552755     1.921001875153

gradient() will perform analytic gradient computation.

*** tstart() called on cx1-1-4-2.cx1.hpc.ic.ac.uk
*** at Fri Sep  2 12:05:15 2016


         ---------------------------------------------------------
                                   SCF
            by Justin Turney, Rob Parrish, and Andy Simmonett
                              RHF Reference
                        4 Threads,   2000 MiB Core
         ---------------------------------------------------------

  ==> Geometry <==

    Molecular point group: c1
    Full point group: C1

    Geometry (in Angstrom), charge = 0, multiplicity = 1:

       Center              X                  Y                   Z               Mass       
    ------------   -----------------  -----------------  -----------------  -----------------
           H          3.164149203193     0.034177300495    -0.346682522192     1.007825032070
           N          2.324082756135    -0.511551589389    -0.334252917328    14.003074004780
           C          1.150046540006     0.347124346221    -0.281356024395    12.000000000000
           H          2.369922484568    -1.095471562265     0.479306592565     1.007825032070
           C         -0.129786338860    -0.479381655177    -0.356993631011    12.000000000000
           H          1.190490835517     1.016912318886    -1.134665905616     1.007825032070
           H          1.119494326366     0.978916173706     0.610613868067     1.007825032070
           C         -1.419926918549     0.367745224062    -0.242650585230    12.000000000000
           H         -0.113278096112    -1.055091529912    -1.276050091663     1.007825032070
           H         -0.107888943775    -1.216057287652     0.444038955301     1.007825032070
           C         -2.101311191230     0.283113584553     1.124623394215    12.000000000000
           H         -2.125411093476     0.082355290750    -1.016917430454     1.007825032070
           H         -1.187278908792     1.410649655854    -0.445266544893     1.007825032070
           H         -2.437746688724    -0.729442259026     1.326860966382     1.007825032070
           H         -2.966385803584     0.937280098157     1.181208195867     1.007825032070
           H         -1.418971681719     0.568549552755     1.921001875153     1.007825032070

  Running in c1 symmetry.

  Rotational constants: A =      0.45735  B =      0.06987  C =      0.06846 [cm^-1]
  Rotational constants: A =  13710.95469  B =   2094.59302  C =   2052.28485 [MHz]
  Nuclear repulsion =  187.096490989397580

  Charge       = 0
  Multiplicity = 1
  Electrons    = 42
  Nalpha       = 21
  Nbeta        = 21

  ==> Algorithm <==

  SCF Algorithm Type is DF.
  DIIS enabled.
  MOM disabled.
  Fractional occupation disabled.
  Guess Type is READ.
  Energy threshold   = 1.00e-08
  Density threshold  = 1.00e-08
  Integral threshold = 0.00e+00

  ==> Primary Basis <==

  Basis Set: 6-31G*
    Number of shells: 52
    Number of basis function: 97
    Number of Cartesian functions: 97
    Spherical Harmonics?: false
    Max angular momentum: 2

  ==> Pre-Iterations <==

   -------------------------------------------------------
    Irrep   Nso     Nmo     Nalpha   Nbeta   Ndocc  Nsocc
   -------------------------------------------------------
     A         97      97       0       0       0       0
   -------------------------------------------------------
    Total      97      97      21      21      21       0
   -------------------------------------------------------

 OEINTS: Overlap, kinetic, potential, dipole, and quadrupole integrals
         stored in file 35.

  ==> Integral Setup <==

  ==> DFJK: Density-Fitted J/K Matrices <==

    J tasked:                  Yes
    K tasked:                  Yes
    wK tasked:                  No
    OpenMP threads:              4
    Integrals threads:           4
    Memory (MB):              1430
    Algorithm:                Core
    Integral Cache:           NONE
    Schwarz Cutoff:          1E-12
    Fitting Condition:       1E-12

   => Auxiliary Basis Set <=

  Basis Set: 
    Number of shells: 219
    Number of basis function: 680
    Number of Cartesian functions: 680
    Spherical Harmonics?: false
    Max angular momentum: 3

  Minimum eigenvalue in the overlap matrix is 4.1148054769E-03.
  Using Symmetric Orthogonalization.
  SCF Guess: Reading in previously saved MOs, projecting if necessary.

  Using orbitals from previous SCF, no projection.
  Recomputing DOCC and SOCC from number of alpha and beta electrons from previous calculation.
              A 
    DOCC [    21 ]

  ==> Iterations <==

                           Total Energy        Delta E     RMS |[F,P]|

   @DF-RHF iter   0:  -212.30893296801105   -2.12309e+02   8.13547e-04 
   @DF-RHF iter   1:  -212.31212855672436   -3.19559e-03   1.42799e-04 
   @DF-RHF iter   2:  -212.31230822708466   -1.79670e-04   4.71788e-05 DIIS
   @DF-RHF iter   3:  -212.31233282617643   -2.45991e-05   1.22861e-05 DIIS
   @DF-RHF iter   4:  -212.31233384183798   -1.01566e-06   3.05685e-06 DIIS
   @DF-RHF iter   5:  -212.31233393649904   -9.46611e-08   1.00050e-06 DIIS
   @DF-RHF iter   6:  -212.31233394986816   -1.33691e-08   2.63639e-07 DIIS
   @DF-RHF iter   7:  -212.31233395089805   -1.02989e-09   9.00110e-08 DIIS
   @DF-RHF iter   8:  -212.31233395099417   -9.61222e-11   1.77297e-08 DIIS
   @DF-RHF iter   9:  -212.31233395099787   -3.69482e-12   4.06218e-09 DIIS

  ==> Post-Iterations <==

    Orbital Energies (a.u.)
    -----------------------

    Doubly Occupied:                                                      

       1A    -15.532960     2A    -11.240582     3A    -11.215683  
       4A    -11.210138     5A    -11.209462     6A     -1.176920  
       7A     -1.056254     8A     -0.958064     9A     -0.848417  
      10A     -0.790436    11A     -0.659858    12A     -0.635504  
      13A     -0.606650    14A     -0.581302    15A     -0.561879  
      16A     -0.523870    17A     -0.505165    18A     -0.468462  
      19A     -0.461925    20A     -0.459846    21A     -0.381303  

    Virtual:                                                              

      22A      0.228641    23A      0.239602    24A      0.276318  
      25A      0.282810    26A      0.299306    27A      0.315519  
      28A      0.324865    29A      0.327330    30A      0.344948  
      31A      0.353231    32A      0.374028    33A      0.414074  
      34A      0.449595    35A      0.461815    36A      0.473283  
      37A      0.723347    38A      0.731301    39A      0.743711  
      40A      0.787159    41A      0.803958    42A      0.824099  
      43A      0.861103    44A      0.937277    45A      0.951898  
      46A      0.967010    47A      1.003086    48A      1.015424  
      49A      1.077511    50A      1.130391    51A      1.146529  
      52A      1.152997    53A      1.158966    54A      1.187932  
      55A      1.193359    56A      1.203664    57A      1.229779  
      58A      1.235735    59A      1.246859    60A      1.257639  
      61A      1.275766    62A      1.288020    63A      1.321954  
      64A      1.486889    65A      1.603919    66A      1.720638  
      67A      1.731120    68A      1.829336    69A      1.889472  
      70A      1.970131    71A      1.995248    72A      2.138465  
      73A      2.157521    74A      2.204228    75A      2.257714  
      76A      2.301768    77A      2.322171    78A      2.365067  
      79A      2.391413    80A      2.475039    81A      2.559715  
      82A      2.585092    83A      2.640250    84A      2.687108  
      85A      2.720798    86A      2.764016    87A      2.782742  
      88A      2.860623    89A      2.940536    90A      3.002175  
      91A      3.084943    92A      3.150674    93A      4.217256  
      94A      4.571042    95A      4.683860    96A      4.858528  
      97A      4.967158  

    Final Occupation by Irrep:
              A 
    DOCC [    21 ]

  Energy converged.

  @DF-RHF Final Energy:  -212.31233395099787

   => Energetics <=

    Nuclear Repulsion Energy =            187.0964909893975801
    One-Electron Energy =                -656.6482888897369321
    Two-Electron Energy =                 257.2394639493413706
    DFT Exchange-Correlation Energy =       0.0000000000000000
    Empirical Dispersion Energy =           0.0000000000000000
    PCM Polarization Energy =               0.0000000000000000
    EFP Energy =                            0.0000000000000000
    Total Energy =                       -212.3123339509979814

    Alert: EFP and PCM quantities not currently incorporated into SCF psivars.

Properties will be evaluated at   0.000000,   0.000000,   0.000000 Bohr
  ==> Properties <==


Properties computed using the SCF density matrix

  Nuclear Dipole Moment: (a.u.)
     X:    -2.3625      Y:     0.8759      Z:     1.6354

  Electronic Dipole Moment: (a.u.)
     X:     2.4170      Y:    -0.5730      Z:    -1.1969

  Dipole Moment: (a.u.)
     X:     0.0545      Y:     0.3029      Z:     0.4385     Total:     0.5358

  Dipole Moment: (Debye)
     X:     0.1385      Y:     0.7699      Z:     1.1147     Total:     1.3618


  Saving occupied orbitals to File 180.

*** tstop() called on cx1-1-4-2.cx1.hpc.ic.ac.uk at Fri Sep  2 12:05:19 2016
Module time:
	user time   =       9.44 seconds =       0.16 minutes
	system time =       0.14 seconds =       0.00 minutes
	total time  =          4 seconds =       0.07 minutes
Total time:
	user time   =      33.22 seconds =       0.55 minutes
	system time =       0.52 seconds =       0.01 minutes
	total time  =         13 seconds =       0.22 minutes

*** tstart() called on cx1-1-4-2.cx1.hpc.ic.ac.uk
*** at Fri Sep  2 12:05:19 2016


         ------------------------------------------------------------
                                   SCF GRAD                          
                          Rob Parrish, Justin Turney,                
                       Andy Simmonett, and Alex Sokolov              
         ------------------------------------------------------------

  ==> Geometry <==

    Molecular point group: c1
    Full point group: C1

    Geometry (in Angstrom), charge = 0, multiplicity = 1:

       Center              X                  Y                   Z               Mass       
    ------------   -----------------  -----------------  -----------------  -----------------
           H          3.164149203193     0.034177300495    -0.346682522192     1.007825032070
           N          2.324082756135    -0.511551589389    -0.334252917328    14.003074004780
           C          1.150046540006     0.347124346221    -0.281356024395    12.000000000000
           H          2.369922484568    -1.095471562265     0.479306592565     1.007825032070
           C         -0.129786338860    -0.479381655177    -0.356993631011    12.000000000000
           H          1.190490835517     1.016912318886    -1.134665905616     1.007825032070
           H          1.119494326366     0.978916173706     0.610613868067     1.007825032070
           C         -1.419926918549     0.367745224062    -0.242650585230    12.000000000000
           H         -0.113278096112    -1.055091529912    -1.276050091663     1.007825032070
           H         -0.107888943775    -1.216057287652     0.444038955301     1.007825032070
           C         -2.101311191230     0.283113584553     1.124623394215    12.000000000000
           H         -2.125411093476     0.082355290750    -1.016917430454     1.007825032070
           H         -1.187278908792     1.410649655854    -0.445266544893     1.007825032070
           H         -2.437746688724    -0.729442259026     1.326860966382     1.007825032070
           H         -2.966385803584     0.937280098157     1.181208195867     1.007825032070
           H         -1.418971681719     0.568549552755     1.921001875153     1.007825032070

  Nuclear repulsion =  187.096490989397580

  ==> Basis Set <==

  Basis Set: 6-31G*
    Number of shells: 52
    Number of basis function: 97
    Number of Cartesian functions: 97
    Spherical Harmonics?: false
    Max angular momentum: 2

  ==> DFJKGrad: Density-Fitted SCF Gradients <==

    Gradient:                    1
    J tasked:                  Yes
    K tasked:                  Yes
    wK tasked:                  No
    OpenMP threads:              4
    Integrals threads:           4
    Memory (MB):              1430
    Schwarz Cutoff:          0E+00
    Fitting Condition:       1E-12

   => Auxiliary Basis Set <=

  Basis Set: 
    Number of shells: 219
    Number of basis function: 680
    Number of Cartesian functions: 680
    Spherical Harmonics?: false
    Max angular momentum: 3


  -Total Gradient:
     Atom            X                  Y                   Z
    ------   -----------------  -----------------  -----------------
       1        0.000174373940    -0.000036030629     0.000138104266
       2        0.000708719259     0.000067323413     0.000066299839
       3        0.000233807350    -0.001174502585    -0.000289873616
       4        0.000050463808    -0.000042153668     0.000025440033
       5        0.002304535109     0.001916999873    -0.002375361579
       6       -0.000251123299    -0.000250173124    -0.000020673638
       7       -0.000030014226     0.000051331964     0.000047396993
       8       -0.002331412403    -0.002508283382     0.001723948438
       9        0.000133133742    -0.001911571999     0.001302210218
      10        0.000917473614     0.000434015389    -0.000556457368
      11       -0.001141032012     0.001434981807     0.000063859057
      12        0.000457619053     0.002227018738    -0.001012877585
      13       -0.001043801336    -0.000330635512     0.000648714412
      14        0.000065301750     0.000136093661    -0.000472726606
      15       -0.000330486311     0.000044318436     0.000666155821
      16        0.000082441964    -0.000058732379     0.000045841316


*** tstop() called on cx1-1-4-2.cx1.hpc.ic.ac.uk at Fri Sep  2 12:05:22 2016
Module time:
	user time   =      11.38 seconds =       0.19 minutes
	system time =       0.10 seconds =       0.00 minutes
	total time  =          3 seconds =       0.05 minutes
Total time:
	user time   =      44.62 seconds =       0.74 minutes
	system time =       0.62 seconds =       0.01 minutes
	total time  =         16 seconds =       0.27 minutes
CURRENT ENERGY: -212.3123339510

			-----------------------------------------
			 OPTKING 2.0: for geometry optimizations 
			  - R.A. King,  Bethel University        
			-----------------------------------------

	Previous internal coordinate definitions found.
	---Fragment 1 Geometry and Gradient---
	 H           5.9793754376        0.0645857379       -0.6551350220
	 N           4.3918799193       -0.9666924068       -0.6316464729
	 C           2.1732730007        0.6559699484       -0.5316858319
	 H           4.4785044520       -2.0701412390        0.9057581936
	 C          -0.2452606362       -0.9059000414       -0.6746201938
	 H           2.2497016428        1.9216857839       -2.1442078139
	 H           2.1155376842        1.8498834754        1.1538929836
	 C          -2.6832730048        0.6949377602       -0.4585431521
	 H          -0.2140645785       -1.9938340367       -2.4113852051
	 H          -0.2038805565       -2.2980152356        0.8391120179
	 C          -3.9709026714        0.5350071393        2.1252302177
	 H          -4.0164448865        0.1556289451       -1.9216954433
	 H          -2.2436319810        2.6657415190       -0.8414318260
	 H          -4.6066736230       -1.3784460993        2.5074038429
	 H          -5.6056567733        1.7712026953        2.2321599961
	 H          -2.6814678688        1.0744029477        3.6301674448
	             0.0001743739       -0.0000360306        0.0001381043
	             0.0007087193        0.0000673234        0.0000662998
	             0.0002338073       -0.0011745026       -0.0002898736
	             0.0000504638       -0.0000421537        0.0000254400
	             0.0023045351        0.0019169999       -0.0023753616
	            -0.0002511233       -0.0002501731       -0.0000206736
	            -0.0000300142        0.0000513320        0.0000473970
	            -0.0023314124       -0.0025082834        0.0017239484
	             0.0001331337       -0.0019115720        0.0013022102
	             0.0009174736        0.0004340154       -0.0005564574
	            -0.0011410320        0.0014349818        0.0000638591
	             0.0004576191        0.0022270187       -0.0010128776
	            -0.0010438013       -0.0003306355        0.0006487144
	             0.0000653018        0.0001360937       -0.0004727266
	            -0.0003304863        0.0000443184        0.0006661558
	             0.0000824420       -0.0000587324        0.0000458413

	---Fragment 1 Intrafragment Coordinates---
	 - Coordinate -           - BOHR/RAD -       - ANG/DEG -
	 R(1,2)           =         1.893206	       1.001841
	 R(2,3)           =         2.750498	       1.455501
	 R(2,4)           =         1.894391	       1.002468
	 R(3,5)           =         2.882564	       1.525387
	 R(3,6)           =         2.051367	       1.085537
	 R(3,7)           =         2.066383	       1.093483
	 R(5,8)           =         2.924598	       1.547631
	 R(5,9)           =         2.049616	       1.084610
	 R(5,10)          =         2.056959	       1.088496
	 R(8,11)          =         2.891272	       1.529995
	 R(8,12)          =         2.051589	       1.085654
	 R(8,13)          =         2.055226	       1.087579
	 R(11,14)         =         2.052210	       1.085983
	 R(11,15)         =         2.052324	       1.086043
	 R(11,16)         =         2.053881	       1.086867
	 B(1,2,3)         =         1.934200	     110.821494
	 B(1,2,4)         =         1.863998	     106.799227
	 B(2,3,5)         =         1.934046	     110.812672
	 B(2,3,6)         =         1.881140	     107.781410
	 B(2,3,7)         =         1.974737	     113.144080
	 B(3,2,4)         =         1.929464	     110.550119
	 B(3,5,8)         =         1.981419	     113.526972
	 B(3,5,9)         =         1.893204	     108.472626
	 B(3,5,10)        =         1.889499	     108.260299
	 B(5,3,6)         =         1.903499	     109.062483
	 B(5,3,7)         =         1.907170	     109.272764
	 B(5,8,11)        =         1.989965	     114.016622
	 B(5,8,12)        =         1.923171	     110.189578
	 B(5,8,13)        =         1.910066	     109.438698
	 B(6,3,7)         =         1.860591	     106.603995
	 B(8,5,9)         =         1.945328	     111.459093
	 B(8,5,10)        =         1.910121	     109.441856
	 B(8,11,14)       =         1.934741	     110.852499
	 B(8,11,15)       =         1.947633	     111.591145
	 B(8,11,16)       =         1.939793	     111.141967
	 B(9,5,10)        =         1.838002	     105.309779
	 B(11,8,12)       =         1.910693	     109.474671
	 B(11,8,13)       =         1.891038	     108.348476
	 B(12,8,13)       =         1.831972	     104.964262
	 B(14,11,15)      =         1.880886	     107.766858
	 B(14,11,16)      =         1.878537	     107.632222
	 B(15,11,16)      =         1.879376	     107.680291
	 D(1,2,3,5)       =         3.075184	     176.195078
	 D(1,2,3,6)       =         0.993636	      56.931151
	 D(1,2,3,7)       =        -1.059035	     -60.678233
	 D(2,3,5,8)       =         3.096950	     177.442143
	 D(2,3,5,9)       =        -1.013644	     -58.077544
	 D(2,3,5,10)      =         0.972346	      55.711323
	 D(3,5,8,11)      =        -1.808063	    -103.594391
	 D(3,5,8,12)      =         2.318688	     132.851048
	 D(3,5,8,13)      =         0.312764	      17.920079
	 D(4,2,3,5)       =        -1.144748	     -65.589243
	 D(4,2,3,6)       =         3.056889	     175.146830
	 D(4,2,3,7)       =         1.004218	      57.537447
	 D(5,8,11,14)     =        -1.105204	     -63.323522
	 D(5,8,11,15)     =         3.081369	     176.549426
	 D(5,8,11,16)     =         0.983234	      56.335154
	 D(6,3,5,8)       =        -1.118191	     -64.067651
	 D(6,3,5,9)       =         1.054400	      60.412663
	 D(6,3,5,10)      =         3.040390	     174.201529
	 D(7,3,5,8)       =         0.909438	      52.106974
	 D(7,3,5,9)       =         3.082030	     176.587288
	 D(7,3,5,10)      =        -1.215165	     -69.623846
	 D(9,5,8,11)      =         2.330966	     133.554510
	*D(9,5,8,12)      =         0.174532	       9.999949
	 D(9,5,8,13)      =        -1.831392	    -104.931020
	 D(10,5,8,11)     =         0.305006	      17.475529
	 D(10,5,8,12)     =        -1.851428	    -106.079032
	 D(10,5,8,13)     =         2.425833	     138.990000
	 D(12,8,11,14)    =         1.057965	      60.616956
	 D(12,8,11,15)    =        -1.038647	     -59.510096
	 D(12,8,11,16)    =        -3.136782	    -179.724368
	 D(13,8,11,14)    =         3.046656	     174.560554
	 D(13,8,11,15)    =         0.950044	      54.433502
	 D(13,8,11,16)    =        -1.148091	     -65.780770

	Current energy   :      -212.3123339510

	Energy change for the previous step:
		Projected    :         0.0045945256
		Actual       :        -0.0002805687

	Performing BFGS update.
	Previous computed or guess Hessian on step 1.
	Steps to be used in Hessian update: 1
	Taking RFO optimization step.
	Going to follow RFO solution 1.
	Using RFO vector 1.
	Norm of target step-size    0.09452
	Projected energy change by RFO approximation:        -0.0002511965

	Back-transformation to cartesian coordinates...
	Successfully converged to displaced geometry.

	Back-transformation to cartesian coordinates to adjust frozen coordinates...
	Successfully converged to displaced geometry.

	--- Internal Coordinate Step in ANG or DEG, aJ/ANG or AJ/DEG ---
	 ---------------------------------------------------------------------------
	   Coordinate                Previous        Force       Change         New 
	   ----------                --------       ------       ------       ------
	    1 R(1,2)          =      1.001841    -0.001029    -0.000095     1.001746
	    2 R(2,3)          =      1.455501    -0.006188    -0.000765     1.454737
	    3 R(2,4)          =      1.002468    -0.000391    -0.000037     1.002431
	    4 R(3,5)          =      1.525387     0.000067     0.000029     1.525416
	    5 R(3,6)          =      1.085537     0.001215     0.000144     1.085681
	    6 R(3,7)          =      1.093483    -0.000570    -0.000050     1.093433
	    7 R(5,8)          =      1.547631    -0.034402    -0.004545     1.543086
	    8 R(5,9)          =      1.084610     0.000715     0.000022     1.084632
	    9 R(5,10)         =      1.088496     0.005642     0.000684     1.089181
	   10 R(8,11)         =      1.529995    -0.006379    -0.000910     1.529085
	   11 R(8,12)         =      1.085654     0.001322     0.000070     1.085724
	   12 R(8,13)         =      1.087579     0.005447     0.000686     1.088265
	   13 R(11,14)        =      1.085983     0.001937     0.000243     1.086226
	   14 R(11,15)        =      1.086043    -0.002675    -0.000326     1.085717
	   15 R(11,16)        =      1.086867    -0.000576    -0.000054     1.086813
	   16 B(1,2,3)        =    110.821494    -0.000013    -0.033952   110.787543
	   17 B(1,2,4)        =    106.799227     0.000009     0.042366   106.841593
	   18 B(2,3,5)        =    110.812672    -0.000081    -0.199845   110.612826
	   19 B(2,3,6)        =    107.781410     0.000007    -0.038975   107.742435
	   20 B(2,3,7)        =    113.144080     0.000030     0.073201   113.217281
	   21 B(3,2,4)        =    110.550119    -0.000003    -0.001451   110.548669
	   22 B(3,5,8)        =    113.526972    -0.000092    -0.224633   113.302339
	   23 B(3,5,9)        =    108.472626     0.000079     0.373513   108.846139
	   24 B(3,5,10)       =    108.260299     0.000066     0.342846   108.603145
	   25 B(5,3,6)        =    109.062483     0.000039     0.115021   109.177505
	   26 B(5,3,7)        =    109.272764     0.000024     0.064793   109.337557
	   27 B(5,8,11)       =    114.016622    -0.000124    -0.292060   113.724563
	   28 B(5,8,12)       =    110.189578    -0.000005    -0.255510   109.934068
	   29 B(5,8,13)       =    109.438698    -0.000006    -0.167947   109.270751
	   30 B(6,3,7)        =    106.603995    -0.000016    -0.003778   106.600217
	   31 B(8,5,9)        =    111.459093    -0.000040    -0.353152   111.105941
	   32 B(8,5,10)       =    109.441856    -0.000002    -0.131142   109.310714
	   33 B(8,11,14)      =    110.852499     0.000059     0.221615   111.074114
	   34 B(8,11,15)      =    111.591145    -0.000083    -0.299789   111.291355
	   35 B(8,11,16)      =    111.141967     0.000007     0.022063   111.164030
	   36 B(9,5,10)       =    105.309779    -0.000000     0.029478   105.339257
	   37 B(11,8,12)      =    109.474671     0.000060     0.252390   109.727061
	   38 B(11,8,13)      =    108.348476     0.000089     0.414822   108.763298
	   39 B(12,8,13)      =    104.964262    -0.000002     0.086930   105.051191
	   40 B(14,11,15)     =    107.766858     0.000013     0.042899   107.809756
	   41 B(14,11,16)     =    107.632222    -0.000021     0.000198   107.632420
	   42 B(15,11,16)     =    107.680291     0.000027     0.017527   107.697818
	   43 D(1,2,3,5)      =    176.195078     0.000000    -0.362193   175.832885
	   44 D(1,2,3,6)      =     56.931151    -0.000001    -0.362428    56.568723
	   45 D(1,2,3,7)      =    -60.678233    -0.000002    -0.375256   -61.053489
	   46 D(2,3,5,8)      =    177.442143     0.000006     1.208527   178.650670
	   47 D(2,3,5,9)      =    -58.077544    -0.000008     0.873966   -57.203577
	   48 D(2,3,5,10)     =     55.711323     0.000009     1.278550    56.989873
	   49 D(3,5,8,11)     =   -103.594391    -0.000003    -0.024227  -103.618618
	   50 D(3,5,8,12)     =    132.851048     0.000001     0.054708   132.905756
	   51 D(3,5,8,13)     =     17.920079     0.000003     0.187390    18.107469
	   52 D(4,2,3,5)      =    -65.589243     0.000000    -0.331897   -65.921139
	   53 D(4,2,3,6)      =    175.146830    -0.000001    -0.332132   174.814698
	   54 D(4,2,3,7)      =     57.537447    -0.000001    -0.344960    57.192487
	   55 D(5,8,11,14)    =    -63.323522     0.000002     1.343701   -61.979821
	   56 D(5,8,11,15)    =    176.549426     0.000002     1.340587   177.890013
	   57 D(5,8,11,16)    =     56.335154     0.000006     1.505829    57.840983
	   58 D(6,3,5,8)      =    -64.067651     0.000002     1.112103   -62.955548
	   59 D(6,3,5,9)      =     60.412663    -0.000011     0.777542    61.190205
	   60 D(6,3,5,10)     =    174.201529     0.000006     1.182126   175.383655
	   61 D(7,3,5,8)      =     52.106974     0.000006     1.208350    53.315324
	   62 D(7,3,5,9)      =    176.587288    -0.000007     0.873789   177.461077
	   63 D(7,3,5,10)     =    -69.623846     0.000009     1.278373   -68.345473
	   64 D(9,5,8,11)     =    133.554510    -0.000004    -0.078935   133.475575
	   65 *D(9,5,8,12)    =      9.999949     0.000000    -0.000000     9.999949
	   66 D(9,5,8,13)     =   -104.931020     0.000002     0.132682  -104.798338
	   67 D(10,5,8,11)    =     17.475529     0.000002     0.169452    17.644981
	   68 D(10,5,8,12)    =   -106.079032     0.000006     0.248386  -105.830645
	   69 D(10,5,8,13)    =    138.990000     0.000008     0.381068   139.371068
	   70 D(12,8,11,14)   =     60.616956    -0.000010     0.991499    61.608455
	   71 D(12,8,11,15)   =    -59.510096    -0.000010     0.988385   -58.521711
	   72 D(12,8,11,16)   =   -179.724368    -0.000006     1.153627  -178.570741
	   73 D(13,8,11,14)   =    174.560554     0.000008     1.452186   176.012740
	   74 D(13,8,11,15)   =     54.433502     0.000008     1.449072    55.882574
	   75 D(13,8,11,16)   =    -65.780770     0.000012     1.614314   -64.166455
	 ---------------------------------------------------------------------------

  ==> Convergence Check <==

  Measures of convergence in internal coordinates in au.
  Criteria marked as inactive (o), active & met (*), and active & unmet ( ).
  ---------------------------------------------------------------------------------------------
   Step     Total Energy     Delta E     MAX Force     RMS Force      MAX Disp      RMS Disp   
  ---------------------------------------------------------------------------------------------
    Convergence Criteria    1.00e-06 *    3.00e-04 *             o    1.20e-03 *             o
  ---------------------------------------------------------------------------------------------
      2    -212.31233395   -2.81e-04      4.18e-03      6.89e-04 o    2.82e-02      1.09e-02 o  ~
  ---------------------------------------------------------------------------------------------

	Writing optimization data to binary file.
	Structure for next step:
	Cartesian Geometry (in Angstrom)
	    H     3.1590103897   0.0347038987  -0.3602784083
	    N     2.3189238404  -0.5107328357  -0.3444997188
	    C     1.1470662003   0.3480875393  -0.2707727339
	    H     2.3723584574  -1.1030945559   0.4624210033
	    C    -0.1315111064  -0.4800222911  -0.3505767208
	    H     1.1833088110   1.0303880507  -1.1144878935
	    H     1.1220772329   0.9667726725   0.6304483572
	    C    -1.4159776707   0.3685323900  -0.2446788896
	    H    -0.1188426903  -1.0564389880  -1.2692772187
	    H    -0.1191622965  -1.2164530148   0.4518145700
	    C    -2.0981442756   0.2842257496   1.1212062046
	    H    -2.1160365992   0.0790494013  -1.0224412048
	    H    -1.1768690518   1.4095894387  -0.4528785563
	    H    -2.4166005981  -0.7316644941   1.3367025591
	    H    -2.9748547073   0.9232238772   1.1641299272
	    H    -1.4245456602   0.5936608954   1.9159870443
			--------------------------
			 OPTKING Finished Execution 
			--------------------------

    Structure for next step:
    Molecular point group: c1
    Full point group: C1

    Geometry (in Angstrom), charge = 0, multiplicity = 1:

    H            3.159564797740     0.034224161883    -0.360194260861
    N            2.319478312643    -0.511212530875    -0.344415572583
    C            1.147620762017     0.347607778528    -0.270688593374
    H            2.372912925582    -1.103574205830     0.462505087898
    C           -0.130956447034    -0.480501988589    -0.350492574148
    H            1.183863369972     1.029908237835    -1.114403688517
    H            1.122631796516     0.966292864554     0.630532428933
    C           -1.415422913252     0.368052627749    -0.244594751039
    H           -0.118288031963    -1.056918641429    -1.269193001874
    H           -0.118607638124    -1.216932656057     0.451898655432
    C           -2.097589466090     0.283745993776     1.121290238856
    H           -2.115481788351     0.078569661107    -1.022357006822
    H           -1.176314312671     1.409109596892    -0.452794401837
    H           -2.416045764282    -0.732144172418     1.336786576911
    H           -2.974299830803     0.922744072538     1.164213958166
    H           -1.423990902105     0.593181115959     1.916071017918

gradient() will perform analytic gradient computation.

*** tstart() called on cx1-1-4-2.cx1.hpc.ic.ac.uk
*** at Fri Sep  2 12:05:22 2016


         ---------------------------------------------------------
                                   SCF
            by Justin Turney, Rob Parrish, and Andy Simmonett
                              RHF Reference
                        4 Threads,   2000 MiB Core
         ---------------------------------------------------------

  ==> Geometry <==

    Molecular point group: c1
    Full point group: C1

    Geometry (in Angstrom), charge = 0, multiplicity = 1:

       Center              X                  Y                   Z               Mass       
    ------------   -----------------  -----------------  -----------------  -----------------
           H          3.159564797740     0.034224161883    -0.360194260861     1.007825032070
           N          2.319478312643    -0.511212530875    -0.344415572583    14.003074004780
           C          1.147620762017     0.347607778528    -0.270688593374    12.000000000000
           H          2.372912925582    -1.103574205830     0.462505087898     1.007825032070
           C         -0.130956447034    -0.480501988589    -0.350492574148    12.000000000000
           H          1.183863369972     1.029908237835    -1.114403688517     1.007825032070
           H          1.122631796516     0.966292864554     0.630532428933     1.007825032070
           C         -1.415422913252     0.368052627749    -0.244594751039    12.000000000000
           H         -0.118288031963    -1.056918641429    -1.269193001874     1.007825032070
           H         -0.118607638124    -1.216932656057     0.451898655432     1.007825032070
           C         -2.097589466090     0.283745993776     1.121290238856    12.000000000000
           H         -2.115481788351     0.078569661107    -1.022357006822     1.007825032070
           H         -1.176314312671     1.409109596892    -0.452794401837     1.007825032070
           H         -2.416045764282    -0.732144172418     1.336786576911     1.007825032070
           H         -2.974299830803     0.922744072538     1.164213958166     1.007825032070
           H         -1.423990902105     0.593181115959     1.916071017918     1.007825032070

  Running in c1 symmetry.

  Rotational constants: A =      0.45916  B =      0.07009  C =      0.06874 [cm^-1]
  Rotational constants: A =  13765.38035  B =   2101.12550  C =   2060.70198 [MHz]
  Nuclear repulsion =  187.305677527396313

  Charge       = 0
  Multiplicity = 1
  Electrons    = 42
  Nalpha       = 21
  Nbeta        = 21

  ==> Algorithm <==

  SCF Algorithm Type is DF.
  DIIS enabled.
  MOM disabled.
  Fractional occupation disabled.
  Guess Type is READ.
  Energy threshold   = 1.00e-08
  Density threshold  = 1.00e-08
  Integral threshold = 0.00e+00

  ==> Primary Basis <==

  Basis Set: 6-31G*
    Number of shells: 52
    Number of basis function: 97
    Number of Cartesian functions: 97
    Spherical Harmonics?: false
    Max angular momentum: 2

  ==> Pre-Iterations <==

   -------------------------------------------------------
    Irrep   Nso     Nmo     Nalpha   Nbeta   Ndocc  Nsocc
   -------------------------------------------------------
     A         97      97       0       0       0       0
   -------------------------------------------------------
    Total      97      97      21      21      21       0
   -------------------------------------------------------

 OEINTS: Overlap, kinetic, potential, dipole, and quadrupole integrals
         stored in file 35.

  ==> Integral Setup <==

  ==> DFJK: Density-Fitted J/K Matrices <==

    J tasked:                  Yes
    K tasked:                  Yes
    wK tasked:                  No
    OpenMP threads:              4
    Integrals threads:           4
    Memory (MB):              1430
    Algorithm:                Core
    Integral Cache:           NONE
    Schwarz Cutoff:          1E-12
    Fitting Condition:       1E-12

   => Auxiliary Basis Set <=

  Basis Set: 
    Number of shells: 219
    Number of basis function: 680
    Number of Cartesian functions: 680
    Spherical Harmonics?: false
    Max angular momentum: 3

  Minimum eigenvalue in the overlap matrix is 4.0864900863E-03.
  Using Symmetric Orthogonalization.
  SCF Guess: Reading in previously saved MOs, projecting if necessary.

  Using orbitals from previous SCF, no projection.
  Recomputing DOCC and SOCC from number of alpha and beta electrons from previous calculation.
              A 
    DOCC [    21 ]

  ==> Iterations <==

                           Total Energy        Delta E     RMS |[F,P]|

   @DF-RHF iter   0:  -212.31242036136877   -2.12312e+02   2.76104e-04 
   @DF-RHF iter   1:  -212.31238020494777    4.01564e-05   5.51315e-05 
   @DF-RHF iter   2:  -212.31240747444446   -2.72695e-05   1.89237e-05 DIIS
   @DF-RHF iter   3:  -212.31241143285848   -3.95841e-06   5.76234e-06 DIIS
   @DF-RHF iter   4:  -212.31241164043325   -2.07575e-07   1.07982e-06 DIIS
   @DF-RHF iter   5:  -212.31241165632633   -1.58931e-08   3.55540e-07 DIIS
   @DF-RHF iter   6:  -212.31241165790397   -1.57763e-09   1.17736e-07 DIIS
   @DF-RHF iter   7:  -212.31241165808530   -1.81331e-10   3.63285e-08 DIIS
   @DF-RHF iter   8:  -212.31241165810269   -1.73941e-11   6.08643e-09 DIIS

  ==> Post-Iterations <==

    Orbital Energies (a.u.)
    -----------------------

    Doubly Occupied:                                                      

       1A    -15.532731     2A    -11.240533     3A    -11.215006  
       4A    -11.209426     5A    -11.209264     6A     -1.177114  
       7A     -1.057129     8A     -0.957537     9A     -0.848665  
      10A     -0.790155    11A     -0.659929    12A     -0.635851  
      13A     -0.607021    14A     -0.580892    15A     -0.561836  
      16A     -0.524446    17A     -0.505400    18A     -0.468805  
      19A     -0.461196    20A     -0.459485    21A     -0.381228  

    Virtual:                                                              

      22A      0.228878    23A      0.239487    24A      0.275392  
      25A      0.282218    26A      0.299693    27A      0.316093  
      28A      0.324826    29A      0.328209    30A      0.344641  
      31A      0.353296    32A      0.376454    33A      0.413764  
      34A      0.450381    35A      0.462741    36A      0.473149  
      37A      0.723422    38A      0.730973    39A      0.745166  
      40A      0.786810    41A      0.803819    42A      0.824833  
      43A      0.861233    44A      0.938833    45A      0.954690  
      46A      0.966399    47A      1.003826    48A      1.016788  
      49A      1.076336    50A      1.130388    51A      1.146300  
      52A      1.152200    53A      1.158841    54A      1.188376  
      55A      1.193726    56A      1.203910    57A      1.229851  
      58A      1.236199    59A      1.246736    60A      1.258160  
      61A      1.277100    62A      1.289116    63A      1.321740  
      64A      1.488363    65A      1.603725    66A      1.720812  
      67A      1.731762    68A      1.830363    69A      1.892053  
      70A      1.974428    71A      1.999243    72A      2.139105  
      73A      2.159617    74A      2.205734    75A      2.255917  
      76A      2.302007    77A      2.323505    78A      2.363973  
      79A      2.393514    80A      2.477508    81A      2.561450  
      82A      2.584250    83A      2.642380    84A      2.689838  
      85A      2.721652    86A      2.765430    87A      2.784251  
      88A      2.861499    89A      2.939534    90A      3.001452  
      91A      3.086782    92A      3.153442    93A      4.218142  
      94A      4.573133    95A      4.684628    96A      4.859504  
      97A      4.968455  

    Final Occupation by Irrep:
              A 
    DOCC [    21 ]

  Energy converged.

  @DF-RHF Final Energy:  -212.31241165810269

   => Energetics <=

    Nuclear Repulsion Energy =            187.3056775273963126
    One-Electron Energy =                -657.0688814466172971
    Two-Electron Energy =                 257.4507922611182948
    DFT Exchange-Correlation Energy =       0.0000000000000000
    Empirical Dispersion Energy =           0.0000000000000000
    PCM Polarization Energy =               0.0000000000000000
    EFP Energy =                            0.0000000000000000
    Total Energy =                       -212.3124116581026897

    Alert: EFP and PCM quantities not currently incorporated into SCF psivars.

Properties will be evaluated at   0.000000,   0.000000,   0.000000 Bohr
  ==> Properties <==


Properties computed using the SCF density matrix

  Nuclear Dipole Moment: (a.u.)
     X:    -2.3542      Y:     0.8681      Z:     1.6351

  Electronic Dipole Moment: (a.u.)
     X:     2.4151      Y:    -0.5710      Z:    -1.1951

  Dipole Moment: (a.u.)
     X:     0.0609      Y:     0.2971      Z:     0.4400     Total:     0.5344

  Dipole Moment: (Debye)
     X:     0.1548      Y:     0.7552      Z:     1.1183     Total:     1.3583


  Saving occupied orbitals to File 180.

*** tstop() called on cx1-1-4-2.cx1.hpc.ic.ac.uk at Fri Sep  2 12:05:26 2016
Module time:
	user time   =       8.97 seconds =       0.15 minutes
	system time =       0.14 seconds =       0.00 minutes
	total time  =          4 seconds =       0.07 minutes
Total time:
	user time   =      54.26 seconds =       0.90 minutes
	system time =       0.78 seconds =       0.01 minutes
	total time  =         20 seconds =       0.33 minutes

*** tstart() called on cx1-1-4-2.cx1.hpc.ic.ac.uk
*** at Fri Sep  2 12:05:26 2016


         ------------------------------------------------------------
                                   SCF GRAD                          
                          Rob Parrish, Justin Turney,                
                       Andy Simmonett, and Alex Sokolov              
         ------------------------------------------------------------

  ==> Geometry <==

    Molecular point group: c1
    Full point group: C1

    Geometry (in Angstrom), charge = 0, multiplicity = 1:

       Center              X                  Y                   Z               Mass       
    ------------   -----------------  -----------------  -----------------  -----------------
           H          3.159564797740     0.034224161883    -0.360194260861     1.007825032070
           N          2.319478312643    -0.511212530875    -0.344415572583    14.003074004780
           C          1.147620762017     0.347607778528    -0.270688593374    12.000000000000
           H          2.372912925582    -1.103574205830     0.462505087898     1.007825032070
           C         -0.130956447034    -0.480501988589    -0.350492574148    12.000000000000
           H          1.183863369972     1.029908237835    -1.114403688517     1.007825032070
           H          1.122631796516     0.966292864554     0.630532428933     1.007825032070
           C         -1.415422913252     0.368052627749    -0.244594751039    12.000000000000
           H         -0.118288031963    -1.056918641429    -1.269193001874     1.007825032070
           H         -0.118607638124    -1.216932656057     0.451898655432     1.007825032070
           C         -2.097589466090     0.283745993776     1.121290238856    12.000000000000
           H         -2.115481788351     0.078569661107    -1.022357006822     1.007825032070
           H         -1.176314312671     1.409109596892    -0.452794401837     1.007825032070
           H         -2.416045764282    -0.732144172418     1.336786576911     1.007825032070
           H         -2.974299830803     0.922744072538     1.164213958166     1.007825032070
           H         -1.423990902105     0.593181115959     1.916071017918     1.007825032070

  Nuclear repulsion =  187.305677527396284

  ==> Basis Set <==

  Basis Set: 6-31G*
    Number of shells: 52
    Number of basis function: 97
    Number of Cartesian functions: 97
    Spherical Harmonics?: false
    Max angular momentum: 2

  ==> DFJKGrad: Density-Fitted SCF Gradients <==

    Gradient:                    1
    J tasked:                  Yes
    K tasked:                  Yes
    wK tasked:                  No
    OpenMP threads:              4
    Integrals threads:           4
    Memory (MB):              1430
    Schwarz Cutoff:          0E+00
    Fitting Condition:       1E-12

   => Auxiliary Basis Set <=

  Basis Set: 
    Number of shells: 219
    Number of basis function: 680
    Number of Cartesian functions: 680
    Spherical Harmonics?: false
    Max angular momentum: 3


  -Total Gradient:
     Atom            X                  Y                   Z
    ------   -----------------  -----------------  -----------------
       1       -0.000068440996     0.000073100500     0.000001391501
       2       -0.000122876441    -0.000100814408    -0.000111357541
       3        0.000169702481     0.000272168424     0.000191148646
       4       -0.000039222705    -0.000008243731     0.000028427818
       5        0.001798014539     0.002258861016    -0.001996067461
       6        0.000027716907    -0.000024059638    -0.000005617712
       7        0.000090769643     0.000067253444     0.000038303643
       8       -0.001707301623    -0.002346771151     0.001838696408
       9       -0.001105052288    -0.001969587173     0.001272732948
      10        0.000036630598     0.000074312003    -0.000127656301
      11       -0.000118127246    -0.000000053554     0.000262602191
      12        0.001057935347     0.001813156771    -0.001448895061
      13       -0.000033160769    -0.000092931123    -0.000007882641
      14       -0.000011426405    -0.000037569581     0.000029900981
      15        0.000029743495    -0.000015809730    -0.000033155756
      16       -0.000004904534     0.000036987931     0.000067428337


*** tstop() called on cx1-1-4-2.cx1.hpc.ic.ac.uk at Fri Sep  2 12:05:29 2016
Module time:
	user time   =      11.87 seconds =       0.20 minutes
	system time =       0.13 seconds =       0.00 minutes
	total time  =          3 seconds =       0.05 minutes
Total time:
	user time   =      66.15 seconds =       1.10 minutes
	system time =       0.91 seconds =       0.02 minutes
	total time  =         23 seconds =       0.38 minutes
CURRENT ENERGY: -212.3124116581

			-----------------------------------------
			 OPTKING 2.0: for geometry optimizations 
			  - R.A. King,  Bethel University        
			-----------------------------------------

	Previous internal coordinate definitions found.
	---Fragment 1 Geometry and Gradient---
	 H           5.9707121668        0.0646742931       -0.6806685077
	 N           4.3831787821       -0.9660516791       -0.6508511081
	 C           2.1686889446        0.6568835031       -0.5115273088
	 H           4.4841555665       -2.0854530163        0.8740079512
	 C          -0.2474718202       -0.9080171647       -0.6623349768
	 H           2.2371775480        1.9462445115       -2.1059177728
[...]
Total time:
	user time   =      87.80 seconds =       1.46 minutes
	system time =       1.19 seconds =       0.02 minutes
	total time  =         30 seconds =       0.50 minutes
CURRENT ENERGY: -212.3124125081

			-----------------------------------------
			 OPTKING 2.0: for geometry optimizations 
			  - R.A. King,  Bethel University        
			-----------------------------------------

	Previous internal coordinate definitions found.
	---Fragment 1 Geometry and Gradient---
	 H           5.9715697307        0.0636461781       -0.6755961802
	 N           4.3833542045       -0.9659818256       -0.6424711765
	 C           2.1676020141        0.6570633214       -0.5183213179
	 H           4.4814314671       -2.0766445645        0.8888874603
	 C          -0.2488870710       -0.9064994231       -0.6653424985
	 H           2.2396271846        1.9385893680       -2.1189034680
	 H           2.1152056241        1.8347546625        1.1784653280
	 C          -2.6747539608        0.6963766909       -0.4616778958
	 H          -0.2287264909       -1.9937084830       -2.4029057686
	 H          -0.2245470687       -2.2993363736        0.8504256752
	 C          -3.9613774127        0.5332882450        2.1192198841
	 H          -3.9986491894        0.1496350028       -1.9311375485
	 H          -2.2230210909        2.6643778110       -0.8533251194
	 H          -4.5742266967       -1.3845759524        2.5182592468
	 H          -5.6105927893        1.7506332317        2.2085157840
	 H          -2.6824600819        1.1029021580        3.6216479441
	             0.0000409804       -0.0000120169        0.0000168334
	             0.0000424889       -0.0000389254        0.0000284686
	            -0.0000559220        0.0000731675       -0.0001056424
	             0.0000221217       -0.0000148113        0.0000127116
	             0.0016416036        0.0028122534       -0.0017584239
	            -0.0000038468        0.0000072761       -0.0000075663
	            -0.0000245586       -0.0000225632       -0.0000255484
	            -0.0015350217       -0.0025830677        0.0021982394
	            -0.0011519652       -0.0018102058        0.0011523184
	            -0.0000364173       -0.0000152225        0.0000224116
	             0.0000208238       -0.0000490439        0.0000347330
	             0.0010050042        0.0016468043       -0.0015096006
	             0.0000265471       -0.0000029464       -0.0000053300
	            -0.0000196187        0.0000045295       -0.0000071828
	             0.0000217920        0.0000250718       -0.0000300259
	             0.0000059886       -0.0000202995       -0.0000163957

	---Fragment 1 Intrafragment Coordinates---
	 - Coordinate -           - BOHR/RAD -       - ANG/DEG -
	 R(1,2)           =         1.893056	       1.001762
	 R(2,3)           =         2.749408	       1.454924
	 R(2,4)           =         1.894268	       1.002403
	 R(3,5)           =         2.881972	       1.525074
	 R(3,6)           =         2.051672	       1.085698
	 R(3,7)           =         2.066104	       1.093335
	 R(5,8)           =         2.914708	       1.542397
	 R(5,9)           =         2.049770	       1.084692
	 R(5,10)          =         2.058674	       1.089404
	 R(8,11)          =         2.888431	       1.528492
	 R(8,12)          =         2.052057	       1.085902
	 R(8,13)          =         2.056813	       1.088418
	 R(11,14)         =         2.052564	       1.086170
	 R(11,15)         =         2.051783	       1.085757
	 R(11,16)         =         2.053626	       1.086732
	 B(1,2,3)         =         1.934609	     110.844956
	 B(1,2,4)         =         1.864616	     106.834604
	 B(2,3,5)         =         1.931745	     110.680833
	 B(2,3,6)         =         1.880959	     107.770990
	 B(2,3,7)         =         1.975787	     113.204247
	 B(3,2,4)         =         1.929805	     110.569690
	 B(3,5,8)         =         1.977888	     113.324630
	 B(3,5,9)         =         1.899439	     108.829865
	 B(3,5,10)        =         1.896089	     108.637924
	 B(5,3,6)         =         1.905529	     109.178778
	 B(5,3,7)         =         1.906970	     109.261359
	 B(5,8,11)        =         1.984625	     113.710656
	 B(5,8,12)        =         1.918134	     109.900997
	 B(5,8,13)        =         1.907188	     109.273847
	 B(6,3,7)         =         1.860362	     106.590888
	 B(8,5,9)         =         1.938102	     111.045065
	 B(8,5,10)        =         1.907584	     109.296484
	 B(8,11,14)       =         1.938493	     111.067461
	 B(8,11,15)       =         1.942744	     111.311039
	 B(8,11,16)       =         1.939751	     111.139529
	 B(9,5,10)        =         1.839172	     105.376784
	 B(11,8,12)       =         1.914978	     109.720171
	 B(11,8,13)       =         1.898634	     108.783720
	 B(12,8,13)       =         1.834099	     105.086151
	 B(14,11,15)      =         1.881699	     107.813419
	 B(14,11,16)      =         1.878509	     107.630640
	 B(15,11,16)      =         1.879859	     107.708002
	 D(1,2,3,5)       =         3.068353	     175.803682
	 D(1,2,3,6)       =         0.985782	      56.481157
	 D(1,2,3,7)       =        -1.067103	     -61.140496
	 D(2,3,5,8)       =         3.110879	     178.240213
	 D(2,3,5,9)       =        -1.006872	     -57.689506
	 D(2,3,5,10)      =         0.987123	      56.557958
	 D(3,5,8,11)      =        -1.810158	    -103.714426
	 D(3,5,8,12)      =         2.318746	     132.854388
	 D(3,5,8,13)      =         0.314696	      18.030739
	 D(4,2,3,5)       =        -1.150338	     -65.909523
	 D(4,2,3,6)       =         3.050276	     174.767952
	 D(4,2,3,7)       =         0.997391	      57.146299
	 D(5,8,11,14)     =        -1.088470	     -62.364763
	 D(5,8,11,15)     =         3.097815	     177.491697
	 D(5,8,11,16)     =         1.002396	      57.433049
	 D(6,3,5,8)       =        -1.104609	     -63.289458
	 D(6,3,5,9)       =         1.060825	      60.780823
	 D(6,3,5,10)      =         3.054820	     175.028287
	 D(7,3,5,8)       =         0.923772	      52.928243
	 D(7,3,5,9)       =         3.089207	     176.998524
	 D(7,3,5,10)      =        -1.199984	     -68.754012
	 D(9,5,8,11)      =         2.328813	     133.431135
	*D(9,5,8,12)      =         0.174532	       9.999949
	 D(9,5,8,13)      =        -1.829519	    -104.823700
	 D(10,5,8,11)     =         0.307151	      17.598440
	 D(10,5,8,12)     =        -1.847130	    -105.832746
	 D(10,5,8,13)     =         2.432005	     139.343605
	 D(12,8,11,14)    =         1.067529	      61.164911
	 D(12,8,11,15)    =        -1.029371	     -58.978630
	 D(12,8,11,16)    =        -3.124790	    -179.037278
	 D(13,8,11,14)    =         3.065118	     175.618297
	 D(13,8,11,15)    =         0.968217	      55.474757
	 D(13,8,11,16)    =        -1.127202	     -64.583891

	Current energy   :      -212.3124125081

	Energy change for the previous step:
		Projected    :         0.0000018787
		Actual       :        -0.0000008500

	Performing BFGS update.
	Previous computed or guess Hessian on step 1.
	Steps to be used in Hessian update: 3 2
	Taking RFO optimization step.
	Going to follow RFO solution 1.
	Using RFO vector 1.
	Norm of target step-size    0.02093
	Projected energy change by RFO approximation:        -0.0000006967

	Back-transformation to cartesian coordinates...
	Successfully converged to displaced geometry.

	Back-transformation to cartesian coordinates to adjust frozen coordinates...
	Successfully converged to displaced geometry.

	--- Internal Coordinate Step in ANG or DEG, aJ/ANG or AJ/DEG ---
	 ---------------------------------------------------------------------------
	   Coordinate                Previous        Force       Change         New 
	   ----------                --------       ------       ------       ------
	    1 R(1,2)          =      1.001762    -0.000227    -0.000015     1.001747
	    2 R(2,3)          =      1.454924    -0.000999    -0.000065     1.454859
	    3 R(2,4)          =      1.002403    -0.000166    -0.000018     1.002386
	    4 R(3,5)          =      1.525074    -0.000078    -0.000062     1.525012
	    5 R(3,6)          =      1.085698    -0.000085    -0.000010     1.085688
	    6 R(3,7)          =      1.093335     0.000274     0.000019     1.093355
	    7 R(5,8)          =      1.542397     0.000799     0.000113     1.542510
	    8 R(5,9)          =      1.084692     0.000231     0.000033     1.084725
	    9 R(5,10)         =      1.089404    -0.000217    -0.000007     1.089397
	   10 R(8,11)         =      1.528492     0.000227    -0.000038     1.528454
	   11 R(8,12)         =      1.085902     0.000051     0.000029     1.085931
	   12 R(8,13)         =      1.088418    -0.000033     0.000005     1.088424
	   13 R(11,14)        =      1.086170    -0.000002    -0.000013     1.086157
	   14 R(11,15)        =      1.085757     0.000033     0.000016     1.085773
	   15 R(11,16)        =      1.086732     0.000114     0.000003     1.086735
	   16 B(1,2,3)        =    110.844956    -0.000003    -0.000849   110.844107
	   17 B(1,2,4)        =    106.834604     0.000002     0.004730   106.839334
	   18 B(2,3,5)        =    110.680833    -0.000001     0.012422   110.693255
	   19 B(2,3,6)        =    107.770990    -0.000001    -0.011410   107.759580
	   20 B(2,3,7)        =    113.204247     0.000001     0.006009   113.210256
	   21 B(3,2,4)        =    110.569690    -0.000002    -0.002064   110.567626
	   22 B(3,5,8)        =    113.324630    -0.000004     0.003366   113.327995
	   23 B(3,5,9)        =    108.829865     0.000003     0.006498   108.836363
	   24 B(3,5,10)       =    108.637924    -0.000002    -0.018438   108.619485
	   25 B(5,3,6)        =    109.178778    -0.000000    -0.010622   109.168156
	   26 B(5,3,7)        =    109.261359     0.000002     0.004285   109.265643
	   27 B(5,8,11)       =    113.710656     0.000000     0.008612   113.719268
	   28 B(5,8,12)       =    109.900997     0.000000     0.004710   109.905707
	   29 B(5,8,13)       =    109.273847     0.000002     0.013775   109.287621
	   30 B(6,3,7)        =    106.590888    -0.000000    -0.002252   106.588636
	   31 B(8,5,9)        =    111.045065     0.000001     0.008013   111.053078
	   32 B(8,5,10)       =    109.296484     0.000004     0.009768   109.306252
	   33 B(8,11,14)      =    111.067461    -0.000001    -0.010756   111.056704
	   34 B(8,11,15)      =    111.311039     0.000004     0.023445   111.334484
	   35 B(8,11,16)      =    111.139529     0.000001    -0.002557   111.136973
	   36 B(9,5,10)       =    105.376784    -0.000002    -0.010892   105.365892
	   37 B(11,8,12)      =    109.720171    -0.000000    -0.004966   109.715204
	   38 B(11,8,13)      =    108.783720    -0.000002    -0.013777   108.769944
	   39 B(12,8,13)      =    105.086151    -0.000001    -0.009921   105.076230
	   40 B(14,11,15)     =    107.813419    -0.000001    -0.004099   107.809320
	   41 B(14,11,16)     =    107.630640    -0.000000    -0.004326   107.626315
	   42 B(15,11,16)     =    107.708002    -0.000002    -0.002390   107.705612
	   43 D(1,2,3,5)      =    175.803682    -0.000000    -0.040534   175.763147
	   44 D(1,2,3,6)      =     56.481157     0.000000    -0.027823    56.453333
	   45 D(1,2,3,7)      =    -61.140496     0.000000    -0.021127   -61.161623
	   46 D(2,3,5,8)      =    178.240213     0.000001     0.274228   178.514441
	   47 D(2,3,5,9)      =    -57.689506     0.000001     0.291867   -57.397639
	   48 D(2,3,5,10)     =     56.557958     0.000000     0.272729    56.830687
	   49 D(3,5,8,11)     =   -103.714426     0.000000     0.020461  -103.693965
	   50 D(3,5,8,12)     =    132.854388     0.000000     0.017129   132.871517
	   51 D(3,5,8,13)     =     18.030739     0.000000     0.018693    18.049432
	   52 D(4,2,3,5)      =    -65.909523    -0.000000    -0.036503   -65.946026
	   53 D(4,2,3,6)      =    174.767952    -0.000000    -0.023792   174.744160
	   54 D(4,2,3,7)      =     57.146299     0.000000    -0.017096    57.129203
	   55 D(5,8,11,14)    =    -62.364763     0.000000     0.301295   -62.063468
	   56 D(5,8,11,15)    =    177.491697     0.000000     0.297991   177.789688
	   57 D(5,8,11,16)    =     57.433049     0.000000     0.286974    57.720023
	   58 D(6,3,5,8)      =    -63.289458     0.000000     0.261131   -63.028326
	   59 D(6,3,5,9)      =     60.780823     0.000000     0.278770    61.059593
	   60 D(6,3,5,10)     =    175.028287    -0.000000     0.259632   175.287919
	   61 D(7,3,5,8)      =     52.928243     0.000000     0.254875    53.183118
	   62 D(7,3,5,9)      =    176.998524     0.000000     0.272514   177.271037
	   63 D(7,3,5,10)     =    -68.754012    -0.000000     0.253376   -68.500636
	   64 D(9,5,8,11)     =    133.431135     0.000000     0.003332   133.434467
	   65 *D(9,5,8,12)    =      9.999949    -0.000000    -0.000000     9.999949
	   66 D(9,5,8,13)     =   -104.823700    -0.000000     0.001564  -104.822136
	   67 D(10,5,8,11)    =     17.598440    -0.000000     0.006137    17.604577
	   68 D(10,5,8,12)    =   -105.832746    -0.000000     0.002805  -105.829941
	   69 D(10,5,8,13)    =    139.343605    -0.000000     0.004369   139.347974
	   70 D(12,8,11,14)   =     61.164911     0.000001     0.309874    61.474784
	   71 D(12,8,11,15)   =    -58.978630     0.000000     0.306570   -58.672060
	   72 D(12,8,11,16)   =   -179.037278     0.000000     0.295552  -178.741726
	   73 D(13,8,11,14)   =    175.618297     0.000000     0.287851   175.906148
	   74 D(13,8,11,15)   =     55.474757    -0.000000     0.284547    55.759304
	   75 D(13,8,11,16)   =    -64.583891    -0.000000     0.273530   -64.310362
	 ---------------------------------------------------------------------------

  ==> Convergence Check <==

  Measures of convergence in internal coordinates in au.
  Criteria marked as inactive (o), active & met (*), and active & unmet ( ).
  ---------------------------------------------------------------------------------------------
   Step     Total Energy     Delta E     MAX Force     RMS Force      MAX Disp      RMS Disp   
  ---------------------------------------------------------------------------------------------
    Convergence Criteria    1.00e-06 *    3.00e-04 *             o    1.20e-03 *             o
  ---------------------------------------------------------------------------------------------
      4    -212.31241251   -8.50e-07 *    1.21e-04 *    2.81e-05 o    5.41e-03      2.42e-03 o  ~
  ---------------------------------------------------------------------------------------------


  **** Optimization is complete! (in 4 steps) ****

  ==> Optimization Summary <==

  Measures of convergence in internal coordinates in au.
  --------------------------------------------------------------------------------------------------------------- ~
   Step         Total Energy             Delta E       MAX Force       RMS Force        MAX Disp        RMS Disp  ~
  --------------------------------------------------------------------------------------------------------------- ~
      1    -212.312053382313   -212.312053382313      0.01024917      0.00139126      0.06792482      0.02976217  ~
      2    -212.312333950998     -0.000280568685      0.00417570      0.00068906      0.02817510      0.01091369  ~
      3    -212.312411658103     -0.000077707105      0.00035035      0.00008917      0.00848106      0.00360699  ~
      4    -212.312412508079     -0.000000849976      0.00012129      0.00002810      0.00540831      0.00241705  ~
  --------------------------------------------------------------------------------------------------------------- ~

	Writing optimization data to binary file.
	Final energy is   -212.3124125080788
	Final (previous) structure:
	Cartesian Geometry (in Angstrom)
	    H     3.1600188423   0.0336801095  -0.3575101281
	    N     2.3195713194  -0.5111756051  -0.3399811297
	    C     1.1470456708   0.3477029608  -0.2742838491
	    H     2.3714715753  -1.0989130578   0.4703790209
	    C    -0.1317053756  -0.4796988709  -0.3520841130
	    H     1.1851597523   1.0258573887  -1.1212755081
	    H     1.1193186932   0.9709104249   0.6236170403
	    C    -1.4154189427   0.3685067015  -0.2443094388
	    H    -0.1210368552  -1.0550251704  -1.2715630642
	    H    -0.1188252001  -1.2167564967   0.4500259193
	    C    -2.0962708015   0.2822040064   1.1214429483
	    H    -2.1159941778   0.0791834391  -1.0219140554
	    H    -1.1763721854   1.4099281203  -0.4515602392
	    H    -2.4205766997  -0.7326860935   1.3326055005
	    H    -2.9689980575   0.9263952776   1.1686963069
	    H    -1.4194968467   0.5836307299   1.9164936959
	Saving final (previous) structure.
			--------------------------
			 OPTKING Finished Execution 
			--------------------------

    Final optimized geometry and variables:
    Molecular point group: c1
    Full point group: C1

    Geometry (in Angstrom), charge = 0, multiplicity = 1:

    H            3.160018600976     0.033680106887    -0.357510100798
    N            2.319571142223    -0.511175566029    -0.339981103760
    C            1.147045583163     0.347702934292    -0.274283828143
    H            2.371471394221    -1.098912973859     0.470378984988
    C           -0.131705365509    -0.479698834311    -0.352084086119
    H            1.185159661830     1.025857310380    -1.121275422457
    H            1.119318607767     0.970910350747     0.623616992667
    C           -1.415418834635     0.368506673401    -0.244309420167
    H           -0.121036845989    -1.055025089797    -1.271562967138
    H           -0.118825190987    -1.216756403805     0.450025884909
    C           -2.096270641428     0.282203984863     1.121442862638
    H           -2.115994016178     0.079183433096    -1.021913977323
    H           -1.176372095544     1.409928012668    -0.451560204715
    H           -2.420576514827    -0.732686037579     1.332605398715
    H           -2.968997830802     0.926395206834     1.168696217696
    H           -1.419496738295     0.583630685331     1.916493549567

	Cleaning optimization helper files.


Properties will be evaluated at   0.000000,   0.000000,   0.000000 Bohr

Properties computed using the  density matrix

  Nuclear Dipole Moment: (a.u.)
     X:    -2.3554      Y:     0.8698      Z:     1.6303

  Electronic Dipole Moment: (a.u.)
     X:     2.4151      Y:    -0.5700      Z:    -1.1923

  Dipole Moment: (a.u.)
     X:     0.0597      Y:     0.2997      Z:     0.4380     Total:     0.5341

  Dipole Moment: (Debye)
     X:     0.1517      Y:     0.7619      Z:     1.1133     Total:     1.3575

  Quadrupole Moment: (Debye Ang)
    XX:   -32.3966     YY:   -34.6796     ZZ:   -35.2011
    XY:     2.1228     XZ:     3.3897     YZ:    -2.1446

  Traceless Quadrupole Moment: (Debye Ang)
    XX:     1.6958     YY:    -0.5872     ZZ:    -1.1086
    XY:     2.1228     XZ:     3.3897     YZ:    -2.1446

  Mulliken Charges: (a.u.)
   Center  Symbol    Alpha    Beta     Spin     Total
       1     H     0.33237  0.33237  0.00000  0.33527
       2     N     3.92206  3.92206  0.00000 -0.84411
       3     C     3.06241  3.06241  0.00000 -0.12482
       4     H     0.33511  0.33511  0.00000  0.32977
       5     C     3.15373  3.15373  0.00000 -0.30745
       6     H     0.42019  0.42019  0.00000  0.15961
       7     H     0.43466  0.43466  0.00000  0.13068
       8     C     3.15977  3.15977  0.00000 -0.31954
       9     H     0.41068  0.41068  0.00000  0.17864
      10     H     0.42586  0.42586  0.00000  0.14829
      11     C     3.23912  3.23912  0.00000 -0.47824
      12     H     0.41817  0.41817  0.00000  0.16366
      13     H     0.42200  0.42200  0.00000  0.15600
      14     H     0.42090  0.42090  0.00000  0.15819
      15     H     0.42008  0.42008  0.00000  0.15984
      16     H     0.42289  0.42289  0.00000  0.15421

   Total alpha = 21.00000, Total beta = 21.00000, Total charge = -0.00000


*** PSI4 exiting successfully. Buy a developer a beer!
