    -----------------------------------------------------------------------
          Psi4: An Open-Source Ab Initio Electronic Structure Package
                              Psi4 1.0.54 Driver

                          Git: Rev {master} 8d4cec3 dirty

    J. M. Turney, A. C. Simmonett, R. M. Parrish, E. G. Hohenstein,
    F. A. Evangelista, J. T. Fermann, B. J. Mintz, L. A. Burns, J. J. Wilke,
    M. L. Abrams, N. J. Russ, M. L. Leininger, C. L. Janssen, E. T. Seidl,
    W. D. Allen, H. F. Schaefer, R. A. King, E. F. Valeev, C. D. Sherrill,
    and T. D. Crawford, WIREs Comput. Mol. Sci. 2, 556-565 (2012)
    (doi: 10.1002/wcms.93)

                         Additional Contributions by
    A. E. DePrince, U. Bozkaya, A. Yu. Sokolov, D. G. A. Smith, R. Di Remigio,
    R. M. Richard, J. F. Gonthier, H. R. McAlexander, M. Saitow, and
    B. P. Pritchard
    -----------------------------------------------------------------------


    Psi4 started on: Sat Sep 10 15:19:28 2016

    Process ID:  48658
    PSI4DATADIR: /export131/home/mjharvey/miniconda3/share/psi4
    Memory level set to 256.000 MB

  ==> Input File <==

--------------------------------------------------------------------------
set {
	reference rhf
	basis cc-pvtz
}


set_num_threads( 4 )
memory 2 gb

molecule MOL {
0 1

H	 -2.698799	 -0.000846	 0.036018
C	 -1.694291	 -0.000483	 0.434279
O	 -0.828718	 -0.000608	 -0.655022
H	 -1.576855	 0.881100	 1.056504
H	 -1.576401	 -0.881658	 1.057001
C	 0.557892	 0.000078	 -0.420099
C	 0.996971	 1.140958	 0.490875
C	 1.071487	 -1.353250	 0.058410
H	 0.975210	 0.182877	 -1.402468
H	 0.584307	 2.080385	 0.144114
H	 2.077842	 1.221094	 0.484495
H	 0.687258	 0.987720	 1.518094
H	 0.710574	 -2.143538	 -0.588298
H	 2.155083	 -1.363769	 0.036423
H	 0.763661	 -1.572707	 1.074099

	symmetry c1
}
set optking {
	frozen_dihedral = ("
		9 6 3 2
	")
}

ee,wfn = optimize('scf', return_wfn=True)
oeprop( wfn, 'DIPOLE', 'QUADRUPOLE', 'MULLIKEN_CHARGES')
f=open( 'psi4out.xyz', 'w' )
f.write( "15  " )
f.write( str(ee) + "\n" )
f.write( MOL.save_string_xyz() )
f.close()
--------------------------------------------------------------------------

  Memory set to   2.000 GiB by Python script.
gradient() will perform analytic gradient computation.

*** tstart() called on cx1-27-3-3
*** at Sat Sep 10 15:19:28 2016


         ---------------------------------------------------------
                                   SCF
            by Justin Turney, Rob Parrish, and Andy Simmonett
                              RHF Reference
                        4 Threads,   2000 MiB Core
         ---------------------------------------------------------

  ==> Geometry <==

    Molecular point group: c1
    Full point group: C1

    Geometry (in Angstrom), charge = 0, multiplicity = 1:

       Center              X                  Y                   Z               Mass       
    ------------   -----------------  -----------------  -----------------  -----------------
           H         -2.699443789847     0.042033213158     0.039699883925     1.007825032070
           C         -1.694935789847     0.042396213158     0.437960883925    12.000000000000
           O         -0.829362789847     0.042271213158    -0.651340116075    15.994914619560
           H         -1.577499789847     0.923979213158     1.060185883925     1.007825032070
           H         -1.577045789847    -0.838778786842     1.060682883925     1.007825032070
           C          0.557247210153     0.042957213158    -0.416417116075    12.000000000000
           C          0.996326210153     1.183837213158     0.494556883925    12.000000000000
           C          1.070842210153    -1.310370786842     0.062091883925    12.000000000000
           H          0.974565210153     0.225756213158    -1.398786116075     1.007825032070
           H          0.583662210153     2.123264213158     0.147795883925     1.007825032070
           H          2.077197210153     1.263973213158     0.488176883925     1.007825032070
           H          0.686613210153     1.030599213158     1.521775883925     1.007825032070
           H          0.709929210153    -2.100658786842    -0.584616116075     1.007825032070
           H          2.154438210153    -1.320889786842     0.040104883925     1.007825032070
           H          0.763016210153    -1.529827786842     1.077780883925     1.007825032070

  Running in c1 symmetry.

  Rotational constants: A =      0.21924  B =      0.13996  C =      0.10824 [cm^-1]
  Rotational constants: A =   6572.73250  B =   4195.76383  C =   3245.09112 [MHz]
  Nuclear repulsion =  199.034957774690184

  Charge       = 0
  Multiplicity = 1
  Electrons    = 42
  Nalpha       = 21
  Nbeta        = 21

  ==> Algorithm <==

  SCF Algorithm Type is DF.
  DIIS enabled.
  MOM disabled.
  Fractional occupation disabled.
  Guess Type is SAD.
  Energy threshold   = 1.00e-08
  Density threshold  = 1.00e-08
  Integral threshold = 0.00e+00

  ==> Primary Basis <==

  Basis Set: CC-PVTZ
    Number of shells: 110
    Number of basis function: 290
    Number of Cartesian functions: 325
    Spherical Harmonics?: true
    Max angular momentum: 3

  ==> Pre-Iterations <==

   -------------------------------------------------------
    Irrep   Nso     Nmo     Nalpha   Nbeta   Ndocc  Nsocc
   -------------------------------------------------------
     A        290     290       0       0       0       0
   -------------------------------------------------------
    Total     290     290      21      21      21       0
   -------------------------------------------------------

  ==> Integral Setup <==

  ==> DFJK: Density-Fitted J/K Matrices <==

    J tasked:                  Yes
    K tasked:                  Yes
    wK tasked:                  No
    OpenMP threads:              4
    Integrals threads:           4
    Memory (MB):              1430
    Algorithm:                Core
    Integral Cache:           NONE
    Schwarz Cutoff:          1E-12
    Fitting Condition:       1E-12

   => Auxiliary Basis Set <=

  Basis Set: 
    Number of shells: 225
    Number of basis function: 695
    Number of Cartesian functions: 830
    Spherical Harmonics?: true
    Max angular momentum: 4

  Minimum eigenvalue in the overlap matrix is 6.3223813846E-04.
  Using Symmetric Orthogonalization.
  SCF Guess: Superposition of Atomic Densities via on-the-fly atomic UHF.

  ==> Iterations <==

                           Total Energy        Delta E     RMS |[F,P]|

   @DF-RHF iter   0:  -234.22510742489234   -2.34225e+02   1.51145e-02 
   @DF-RHF iter   1:  -232.08811037349741    2.13700e+00   1.49602e-03 
   @DF-RHF iter   2:  -232.20913398862373   -1.21024e-01   5.31290e-04 DIIS
   @DF-RHF iter   3:  -232.22258542910399   -1.34514e-02   2.47586e-04 DIIS
   @DF-RHF iter   4:  -232.22561333155281   -3.02790e-03   5.98052e-05 DIIS
   @DF-RHF iter   5:  -232.22585600557451   -2.42674e-04   1.79167e-05 DIIS
   @DF-RHF iter   6:  -232.22588314923607   -2.71437e-05   5.34500e-06 DIIS
   @DF-RHF iter   7:  -232.22588563372190   -2.48449e-06   1.23754e-06 DIIS
   @DF-RHF iter   8:  -232.22588579482911   -1.61107e-07   3.77219e-07 DIIS
   @DF-RHF iter   9:  -232.22588580532280   -1.04937e-08   1.04117e-07 DIIS
   @DF-RHF iter  10:  -232.22588580618239   -8.59586e-10   2.03803e-08 DIIS
   @DF-RHF iter  11:  -232.22588580621900   -3.66072e-11   5.64724e-09 DIIS

  ==> Post-Iterations <==

    Orbital Energies (a.u.)
    -----------------------

    Doubly Occupied:                                                      

       1A    -20.541802     2A    -11.272583     3A    -11.258502  
       4A    -11.209666     5A    -11.207773     6A     -1.373547  
       7A     -1.051611     8A     -0.941394     9A     -0.930565  
      10A     -0.781420    11A     -0.675618    12A     -0.643020  
      13A     -0.634966    14A     -0.574917    15A     -0.564252  
      16A     -0.552700    17A     -0.533632    18A     -0.498744  
      19A     -0.497142    20A     -0.445130    21A     -0.409185  

    Virtual:                                                              

      22A      0.137097    23A      0.166502    24A      0.179231  
      25A      0.189971    26A      0.208931    27A      0.220459  
      28A      0.233808    29A      0.238546    30A      0.244596  
      31A      0.271276    32A      0.280908    33A      0.302905  
      34A      0.336331    35A      0.371457    36A      0.388377  
      37A      0.398911    38A      0.409903    39A      0.448700  
      40A      0.473868    41A      0.492365    42A      0.524429  
      43A      0.543766    44A      0.569091    45A      0.595278  
      46A      0.606976    47A      0.609447    48A      0.615453  
      49A      0.617730    50A      0.636868    51A      0.643468  
      52A      0.660355    53A      0.667993    54A      0.671806  
      55A      0.678151    56A      0.686711    57A      0.695095  
      58A      0.726556    59A      0.777742    60A      0.782827  
      61A      0.823135    62A      0.835139    63A      0.894861  
      64A      0.936866    65A      0.938112    66A      0.958525  
      67A      0.976532    68A      1.034492    69A      1.045121  
      70A      1.065764    71A      1.088717    72A      1.098300  
      73A      1.107334    74A      1.130303    75A      1.154116  
      76A      1.190635    77A      1.212375    78A      1.213377  
      79A      1.228963    80A      1.235278    81A      1.253423  
      82A      1.286273    83A      1.298165    84A      1.307823  
      85A      1.322529    86A      1.336409    87A      1.354407  
      88A      1.365820    89A      1.396846    90A      1.427096  
      91A      1.433723    92A      1.442976    93A      1.455756  
      94A      1.479630    95A      1.503832    96A      1.523837  
      97A      1.529743    98A      1.553987    99A      1.564656  
     100A      1.565210   101A      1.590913   102A      1.600622  
     103A      1.617028   104A      1.632263   105A      1.672894  
     106A      1.697233   107A      1.705134   108A      1.741212  
     109A      1.782042   110A      1.797772   111A      1.827862  
     112A      1.843952   113A      1.851719   114A      1.894803  
     115A      1.997508   116A      2.194412   117A      2.211597  
     118A      2.351251   119A      2.404626   120A      2.456937  
     121A      2.463882   122A      2.557066   123A      2.590103  
     124A      2.642810   125A      2.658829   126A      2.685198  
     127A      2.704735   128A      2.760796   129A      2.804087  
     130A      2.830962   131A      2.856445   132A      2.868820  
     133A      2.885099   134A      2.899724   135A      2.943425  
     136A      2.957618   137A      2.993112   138A      3.005284  
     139A      3.048903   140A      3.082442   141A      3.119124  
     142A      3.122601   143A      3.131336   144A      3.136484  
     145A      3.154175   146A      3.177336   147A      3.204497  
     148A      3.208896   149A      3.222808   150A      3.250482  
     151A      3.266574   152A      3.294364   153A      3.307679  
     154A      3.334500   155A      3.345481   156A      3.374909  
     157A      3.379207   158A      3.387030   159A      3.414137  
     160A      3.420767   161A      3.444690   162A      3.453387  
     163A      3.464317   164A      3.481859   165A      3.500123  
     166A      3.514665   167A      3.531512   168A      3.583062  
     169A      3.594451   170A      3.618024   171A      3.641972  
     172A      3.665664   173A      3.682603   174A      3.697958  
     175A      3.710672   176A      3.720743   177A      3.742872  
     178A      3.750718   179A      3.778159   180A      3.790222  
     181A      3.813345   182A      3.837850   183A      3.848881  
     184A      3.860340   185A      3.882339   186A      3.897169  
     187A      3.905466   188A      3.936732   189A      3.961263  
     190A      4.029698   191A      4.037680   192A      4.062772  
     193A      4.090578   194A      4.116886   195A      4.128851  
     196A      4.142650   197A      4.160757   198A      4.173453  
     199A      4.185420   200A      4.208182   201A      4.218351  
     202A      4.240131   203A      4.267459   204A      4.292659  
     205A      4.309008   206A      4.327270   207A      4.337034  
     208A      4.343397   209A      4.368616   210A      4.382674  
     211A      4.412286   212A      4.426242   213A      4.455219  
     214A      4.461717   215A      4.486029   216A      4.504812  
     217A      4.536431   218A      4.544018   219A      4.564553  
     220A      4.596799   221A      4.607824   222A      4.647993  
     223A      4.653296   224A      4.681207   225A      4.717726  
     226A      4.740749   227A      4.772665   228A      4.789024  
     229A      4.827382   230A      4.887092   231A      4.912171  
     232A      4.949854   233A      4.967930   234A      5.011639  
     235A      5.103914   236A      5.152783   237A      5.160252  
     238A      5.180395   239A      5.184833   240A      5.230761  
     241A      5.251100   242A      5.264402   243A      5.321693  
     244A      5.333870   245A      5.367853   246A      5.397737  
     247A      5.414399   248A      5.447085   249A      5.508366  
     250A      5.512915   251A      5.546467   252A      5.553935  
     253A      5.567439   254A      5.600314   255A      5.633429  
     256A      5.652079   257A      5.686891   258A      5.707955  
     259A      5.730582   260A      5.744329   261A      5.773807  
     262A      5.784309   263A      5.819645   264A      5.832977  
     265A      5.865975   266A      5.976301   267A      5.994221  
     268A      6.075661   269A      6.115342   270A      6.247565  
     271A      6.273106   272A      6.291835   273A      6.333423  
     274A      6.343842   275A      6.356399   276A      6.493523  
     277A      6.651707   278A      6.791090   279A      6.834930  
     280A      7.021302   281A      7.317447   282A      7.356040  
     283A      7.604305   284A      7.847572   285A      8.019106  
     286A     11.443203   287A     12.522915   288A     14.150511  
     289A     14.388005   290A     14.562691  

    Final Occupation by Irrep:
              A 
    DOCC [    21 ]

  Energy converged.

  @DF-RHF Final Energy:  -232.22588580621900

   => Energetics <=

    Nuclear Repulsion Energy =            199.0349577746901844
    One-Electron Energy =                -709.3253500422067646
    Two-Electron Energy =                 278.0645064612975830
    DFT Exchange-Correlation Energy =       0.0000000000000000
    Empirical Dispersion Energy =           0.0000000000000000
    PCM Polarization Energy =               0.0000000000000000
    EFP Energy =                            0.0000000000000000
    Total Energy =                       -232.2258858062190257


  Saving occupied orbitals to File 180.

*** tstop() called on cx1-27-3-3 at Sat Sep 10 15:19:33 2016
Module time:
	user time   =      16.24 seconds =       0.27 minutes
	system time =       0.43 seconds =       0.01 minutes
	total time  =          5 seconds =       0.08 minutes
Total time:
	user time   =      16.24 seconds =       0.27 minutes
	system time =       0.43 seconds =       0.01 minutes
	total time  =          5 seconds =       0.08 minutes


Properties will be evaluated at   0.000000,   0.000000,   0.000000 Bohr

Properties computed using the SCF density matrix

  Nuclear Dipole Moment: (a.u.)
     X:     1.9604      Y:    -0.1691      Z:     3.2338

  Electronic Dipole Moment: (a.u.)
     X:    -1.7301      Y:     0.1824      Z:    -2.7745

  Dipole Moment: (a.u.)
     X:     0.2303      Y:     0.0133      Z:     0.4593     Total:     0.5140

  Dipole Moment: (Debye)
     X:     0.5855      Y:     0.0338      Z:     1.1673     Total:     1.3063


*** tstart() called on cx1-27-3-3
*** at Sat Sep 10 15:19:33 2016


         ------------------------------------------------------------
                                   SCF GRAD                          
                          Rob Parrish, Justin Turney,                
                       Andy Simmonett, and Alex Sokolov              
         ------------------------------------------------------------

  ==> Geometry <==

    Molecular point group: c1
    Full point group: C1

    Geometry (in Angstrom), charge = 0, multiplicity = 1:

       Center              X                  Y                   Z               Mass       
    ------------   -----------------  -----------------  -----------------  -----------------
           H         -2.699443789847     0.042033213158     0.039699883925     1.007825032070
           C         -1.694935789847     0.042396213158     0.437960883925    12.000000000000
           O         -0.829362789847     0.042271213158    -0.651340116075    15.994914619560
           H         -1.577499789847     0.923979213158     1.060185883925     1.007825032070
           H         -1.577045789847    -0.838778786842     1.060682883925     1.007825032070
           C          0.557247210153     0.042957213158    -0.416417116075    12.000000000000
           C          0.996326210153     1.183837213158     0.494556883925    12.000000000000
           C          1.070842210153    -1.310370786842     0.062091883925    12.000000000000
           H          0.974565210153     0.225756213158    -1.398786116075     1.007825032070
           H          0.583662210153     2.123264213158     0.147795883925     1.007825032070
           H          2.077197210153     1.263973213158     0.488176883925     1.007825032070
           H          0.686613210153     1.030599213158     1.521775883925     1.007825032070
           H          0.709929210153    -2.100658786842    -0.584616116075     1.007825032070
           H          2.154438210153    -1.320889786842     0.040104883925     1.007825032070
           H          0.763016210153    -1.529827786842     1.077780883925     1.007825032070

  Nuclear repulsion =  199.034957774690184

  ==> Basis Set <==

  Basis Set: CC-PVTZ
    Number of shells: 110
    Number of basis function: 290
    Number of Cartesian functions: 325
    Spherical Harmonics?: true
    Max angular momentum: 3

  ==> DFJKGrad: Density-Fitted SCF Gradients <==

    Gradient:                    1
    J tasked:                  Yes
    K tasked:                  Yes
    wK tasked:                  No
    OpenMP threads:              4
    Integrals threads:           4
    Memory (MB):              1430
    Schwarz Cutoff:          0E+00
    Fitting Condition:       1E-12

   => Auxiliary Basis Set <=

  Basis Set: 
    Number of shells: 225
    Number of basis function: 695
    Number of Cartesian functions: 830
    Spherical Harmonics?: true
    Max angular momentum: 4


  -Total Gradient:
     Atom            X                  Y                   Z
    ------   -----------------  -----------------  -----------------
       1        0.000043229727     0.000252945931     0.000023327861
       2        0.000249266858     0.000621708782     0.000279235141
       3        0.000278670936    -0.000374645752    -0.000286496153
       4        0.000385852971     0.000427919994     0.000490903749
       5       -0.000343677548     0.000449654106    -0.000549280702
       6       -0.000103603089    -0.001384380606    -0.000057922796
       7       -0.001176592846     0.000108225823     0.000232381498
       8        0.000932586443     0.000102203131    -0.000050963426
       9       -0.000290206502     0.000214923573     0.000006695380
      10       -0.000193311134    -0.000292663106    -0.000068696564
      11        0.000118212762     0.000001709107     0.000167837184
      12       -0.000343895115     0.000032291042     0.000152929483
      13        0.000072567552    -0.000229885178    -0.000029000881
      14       -0.000198600565     0.000012128782    -0.000094774397
      15        0.000569499547     0.000057864372    -0.000216175377


*** tstop() called on cx1-27-3-3 at Sat Sep 10 15:19:38 2016
Module time:
	user time   =      18.43 seconds =       0.31 minutes
	system time =       0.42 seconds =       0.01 minutes
	total time  =          5 seconds =       0.08 minutes
Total time:
	user time   =      34.79 seconds =       0.58 minutes
	system time =       0.85 seconds =       0.01 minutes
	total time  =         10 seconds =       0.17 minutes

			-----------------------------------------
			 OPTKING 2.0: for geometry optimizations 
			  - R.A. King,  Bethel University        
			-----------------------------------------

	Internal coordinates to be generated automatically.
	Detected frag 1 with atoms:  1 2 3 4 5 6 7 8 9 10 11 12 13 14 15
	---Fragment 1 Bond Connectivity---
	 1 : 2
	 2 : 1 3 4 5
	 3 : 2 6
	 4 : 2
	 5 : 2
	 6 : 3 7 8 9
	 7 : 6 10 11 12
	 8 : 6 13 14 15
	 9 : 6
	 10 : 7
	 11 : 7
	 12 : 7
	 13 : 8
	 14 : 8
	 15 : 8

	Assuming in current code that numbering for constraints corresponds to unified fragment.
	Frozen dihedral atom list: 
	     9     6     3     2
	---Fragment 1 Geometry and Gradient---
	 H          -5.1012094739        0.0794312614        0.0750219081
	 C          -3.2029644556        0.0801172319        0.8276261275
	 O          -1.5672685376        0.0798810162       -1.2308544387
	 H          -2.9810425775        1.7460676653        2.0034609706
	 H          -2.9801846418       -1.5850621932        2.0044001645
	 C           1.0530446155        0.0811773683       -0.7869143064
	 C           1.8827836762        2.2371281188        0.9345770678
	 C           2.0235985087       -2.4762419197        0.1173366557
	 H           1.8416613458        0.4266174157       -2.6433226779
	 H           1.1029617313        4.0123878706        0.2792937442
	 H           3.9253338512        2.3885632122        0.9225206150
	 H           1.2975109264        1.9475502656        2.8757396562
	 H           1.3415717809       -3.9696698058       -1.1047643523
	 H           4.0712981874       -2.4961199489        0.0757872472
	 H           1.4418916721       -2.8909555476        2.0367107019
	             0.0000432297        0.0002529459        0.0000233279
	             0.0002492669        0.0006217088        0.0002792351
	             0.0002786709       -0.0003746458       -0.0002864962
	             0.0003858530        0.0004279200        0.0004909037
	            -0.0003436775        0.0004496541       -0.0005492807
	            -0.0001036031       -0.0013843806       -0.0000579228
	            -0.0011765928        0.0001082258        0.0002323815
	             0.0009325864        0.0001022031       -0.0000509634
	            -0.0002902065        0.0002149236        0.0000066954
	            -0.0001933111       -0.0002926631       -0.0000686966
	             0.0001182128        0.0000017091        0.0001678372
	            -0.0003438951        0.0000322910        0.0001529295
	             0.0000725676       -0.0002298852       -0.0000290009
	            -0.0001986006        0.0000121288       -0.0000947744
	             0.0005694995        0.0000578644       -0.0002161754

	Previous optimization step data not found.  Starting new optimization.

	---Fragment 1 Intrafragment Coordinates---
	 - Coordinate -           - BOHR/RAD -       - ANG/DEG -
	 R(1,2)           =         2.041996	       1.080578
	 R(2,3)           =         2.629229	       1.391328
	 R(2,4)           =         2.051153	       1.085423
	 R(2,5)           =         2.051158	       1.085426
	 R(3,6)           =         2.657654	       1.406370
	 R(6,7)           =         2.880993	       1.524556
	 R(6,8)           =         2.880979	       1.524548
	 R(6,9)           =         2.046338	       1.082875
	 R(7,10)          =         2.046721	       1.083078
	 R(7,11)          =         2.048192	       1.083856
	 R(7,12)          =         2.048051	       1.083782
	 R(8,13)          =         2.046709	       1.083072
	 R(8,14)          =         2.048218	       1.083870
	 R(8,15)          =         2.048015	       1.083763
	 B(1,2,3)         =         1.864781	     106.844093
	 B(1,2,4)         =         1.888231	     108.187692
	 B(1,2,5)         =         1.888243	     108.188367
	 B(2,3,6)         =         2.074415	     118.855226
	 B(3,2,4)         =         1.962299	     112.431451
	 B(3,2,5)         =         1.962246	     112.428434
	 B(3,6,7)         =         1.965068	     112.590130
	 B(3,6,8)         =         1.965080	     112.590762
	 B(3,6,9)         =         1.801342	     103.209306
	 B(4,2,5)         =         1.895186	     108.586159
	 B(6,7,10)        =         1.926278	     110.367588
	 B(6,7,11)        =         1.916674	     109.817353
	 B(6,7,12)        =         1.958687	     112.224500
	 B(6,8,13)        =         1.926288	     110.368152
	 B(6,8,14)        =         1.916699	     109.818777
	 B(6,8,15)        =         1.958670	     112.223547
	 B(7,6,8)         =         1.960290	     112.316315
	 B(7,6,9)         =         1.880480	     107.743574
	 B(8,6,9)         =         1.880483	     107.743728
	 B(10,7,11)       =         1.890143	     108.297237
	 B(10,7,12)       =         1.893583	     108.494308
	 B(11,7,12)       =         1.876555	     107.518675
	 B(13,8,14)       =         1.890149	     108.297587
	 B(13,8,15)       =         1.893567	     108.493386
	 B(14,8,15)       =         1.876547	     107.518204
	 D(1,2,3,6)       =         3.141364	     179.986923
	 D(2,3,6,7)       =        -0.944325	     -54.105853
	 D(2,3,6,8)       =         1.293382	      74.105352
	*D(2,3,6,9)       =        -2.967060	    -170.000014
	 D(3,6,7,10)      =        -0.863514	     -49.475718
	 D(3,6,7,11)      =        -2.946115	    -168.799943
	 D(3,6,7,12)      =         1.250871	      71.669636
	 D(3,6,8,13)      =         0.863600	      49.480626
	 D(3,6,8,14)      =         2.946230	     168.806529
	 D(3,6,8,15)      =        -1.250761	     -71.663300
	 D(4,2,3,6)       =         1.072419	      61.445101
	 D(5,2,3,6)       =        -1.072891	     -61.472148
	 D(7,6,8,13)      =         3.103810	     177.835199
	 D(7,6,8,14)      =        -1.096746	     -62.838898
	 D(7,6,8,15)      =         0.989449	      56.691273
	 D(8,6,7,10)      =        -3.103730	    -177.830623
	 D(8,6,7,11)      =         1.096855	      62.845151
	 D(8,6,7,12)      =        -0.989345	     -56.685269
	 D(9,6,7,10)      =         1.111162	      63.664902
	 D(9,6,7,11)      =        -0.971438	     -55.659323
	 D(9,6,7,12)      =        -3.057638	    -175.189743
	 D(9,6,8,13)      =        -1.111084	     -63.660418
	 D(9,6,8,14)      =         0.971546	      55.665485
	 D(9,6,8,15)      =         3.057741	     175.195657

	Current energy   :      -232.2258858062

	Generating empirical Hessian (Schlegel '84) for each fragment.
	Taking RFO optimization step.
	Going to follow RFO solution 1.
	Using RFO vector 1.
	Norm of target step-size    0.22465
	Projected energy change by RFO approximation:        -0.0014228846

	Back-transformation to cartesian coordinates...
	Could not converge backtransformation.
	Using first guess instead.

	Back-transformation to cartesian coordinates to adjust frozen coordinates...
	Successfully converged to displaced geometry.

	--- Internal Coordinate Step in ANG or DEG, aJ/ANG or AJ/DEG ---
	 ---------------------------------------------------------------------------
	   Coordinate                Previous        Force       Change         New 
	   ----------                --------       ------       ------       ------
	    1 R(1,2)          =      1.080578     0.000403     0.003935     1.084513
	    2 R(2,3)          =      1.391328     0.000139     0.000065     1.391393
	    3 R(2,4)          =      1.085423    -0.005526     0.002441     1.087864
	    4 R(2,5)          =      1.085426     0.005911     0.004293     1.089719
	    5 R(3,6)          =      1.406370     0.004929     0.000712     1.407082
	    6 R(6,7)          =      1.524556     0.002329     0.000693     1.525249
	    7 R(6,8)          =      1.524548    -0.003230    -0.000551     1.523997
	    8 R(6,9)          =      1.082875     0.000673     0.000156     1.083031
	    9 R(7,10)         =      1.083078     0.001303     0.000500     1.083578
	   10 R(7,11)         =      1.083856    -0.000964     0.000254     1.084110
	   11 R(7,12)         =      1.083782    -0.001966     0.000175     1.083957
	   12 R(8,13)         =      1.083072    -0.001325     0.000522     1.083594
	   13 R(8,14)         =      1.083870     0.001621     0.001261     1.085131
	   14 R(8,15)         =      1.083763     0.003098     0.001823     1.085586
	   15 B(1,2,3)        =    106.844093    -0.000002    -0.036091   106.808002
	   16 B(1,2,4)        =    108.187692    -0.000006     0.017530   108.205222
	   17 B(1,2,5)        =    108.188367     0.000003     0.062926   108.251293
	   18 B(2,3,6)        =    118.855226     0.000089     0.266345   119.121571
	   19 B(3,2,4)        =    112.431451     0.000015    -0.004791   112.426659
	   20 B(3,2,5)        =    112.428434    -0.000009    -0.142397   112.286037
	   21 B(3,6,7)        =    112.590130     0.000221     0.905866   113.495996
	   22 B(3,6,8)        =    112.590762    -0.000215    -0.862296   111.728467
	   23 B(3,6,9)        =    103.209306     0.000009     0.169739   103.379045
	   24 B(4,2,5)        =    108.586159    -0.000002     0.107991   108.694149
	   25 B(6,7,10)       =    110.367588     0.000033     0.177899   110.545487
	   26 B(6,7,11)       =    109.817353    -0.000023    -0.182968   109.634385
	   27 B(6,7,12)       =    112.224500     0.000008     0.083329   112.307829
	   28 B(6,8,13)       =    110.368152    -0.000019    -0.165489   110.202664
	   29 B(6,8,14)       =    109.818777     0.000018     0.122052   109.940829
	   30 B(6,8,15)       =    112.223547    -0.000025    -0.132787   112.090760
	   31 B(7,6,8)        =    112.316315    -0.000009    -0.067590   112.248726
	   32 B(7,6,9)        =    107.743574    -0.000110    -0.722454   107.021121
	   33 B(8,6,9)        =    107.743728     0.000104     0.594119   108.337847
	   34 B(10,7,11)      =    108.297237    -0.000013    -0.092096   108.205141
	   35 B(10,7,12)      =    108.494308    -0.000006     0.080282   108.574589
	   36 B(11,7,12)      =    107.518675    -0.000001    -0.077569   107.441106
	   37 B(13,8,14)      =    108.297587     0.000007     0.122488   108.420075
	   38 B(13,8,15)      =    108.493386     0.000007    -0.075291   108.418096
	   39 B(14,8,15)      =    107.518204     0.000014     0.142932   107.661136
	   40 D(1,2,3,6)      =    179.986923     0.000010     5.087557   185.074480
	   41 D(2,3,6,7)      =    -54.105853    -0.000005    -0.331866   -54.437719
	   42 D(2,3,6,8)      =     74.105352    -0.000007    -0.395658    73.709694
	   43 *D(2,3,6,9)     =   -170.000014    -0.000000    -0.000000  -170.000014
	   44 D(3,6,7,10)     =    -49.475718    -0.000015     1.104562   -48.371156
	   45 D(3,6,7,11)     =   -168.799943    -0.000013     1.222934  -167.577010
	   46 D(3,6,7,12)     =     71.669636    -0.000010     1.389960    73.059596
	   47 D(3,6,8,13)     =     49.480626    -0.000012     2.403099    51.883725
	   48 D(3,6,8,14)     =    168.806529    -0.000010     2.527863   171.334391
	   49 D(3,6,8,15)     =    -71.663300    -0.000008     2.704100   -68.959200
	   50 D(4,2,3,6)      =     61.445101     0.000010     5.091750    66.536851
	   51 D(5,2,3,6)      =    -61.472148     0.000010     5.060730   -56.411418
	   52 D(7,6,8,13)     =    177.835199     0.000014     2.857941   180.693139
	   53 D(7,6,8,14)     =    -62.838898     0.000016     2.982705   -59.856194
	   54 D(7,6,8,15)     =     56.691273     0.000019     3.158942    59.850215
	   55 D(8,6,7,10)     =   -177.830623     0.000011     1.580818  -176.249805
	   56 D(8,6,7,11)     =     62.845151     0.000014     1.699189    64.544341
	   57 D(8,6,7,12)     =    -56.685269     0.000016     1.866216   -54.819053
	   58 D(9,6,7,10)     =     63.664902    -0.000001     1.351928    65.016831
	   59 D(9,6,7,11)     =    -55.659323     0.000002     1.470300   -54.189023
	   60 D(9,6,7,12)     =   -175.189743     0.000004     1.637327  -173.552417
	   61 D(9,6,8,13)     =    -63.660418    -0.000003     2.308871   -61.351547
	   62 D(9,6,8,14)     =     55.665485    -0.000001     2.433635    58.099120
	   63 D(9,6,8,15)     =    175.195657     0.000002     2.609872   177.805529
	 ---------------------------------------------------------------------------
	Successfully symmetrized geometry.

  ==> Convergence Check <==

  Measures of convergence in internal coordinates in au.
  Criteria marked as inactive (o), active & met (*), and active & unmet ( ).
  --------------------------------------------------------------------------------------------- ~
   Step     Total Energy     Delta E     MAX Force     RMS Force      MAX Disp      RMS Disp    ~
  --------------------------------------------------------------------------------------------- ~
    Convergence Criteria    1.00e-06 *    3.00e-04 *             o    1.20e-03 *             o  ~
  --------------------------------------------------------------------------------------------- ~
      1    -232.22588581   -2.32e+02      2.91e-03      7.21e-04 o    8.89e-02      2.83e-02 o  ~
  ---------------------------------------------------------------------------------------------

	Writing optimization data to binary file.
	Structure for next step:
	Cartesian Geometry (in Angstrom)
	    H    -2.7024380098  -0.0523778017   0.0371598043
	    C    -1.6991485853   0.0393809095   0.4386056417
	    O    -0.8303387025   0.0497460466  -0.6481487616
	    H    -1.6481777132   0.9577728848   1.0194729126
	    H    -1.5190977131  -0.8049299765   1.1035934697
	    C     0.5573676146   0.0519915126  -0.4154532351
	    C     1.0193381405   1.1846044287   0.4956760012
	    C     1.0519840227  -1.3089782405   0.0596079641
	    H     0.9755829788   0.2432738733  -1.3959958065
	    H     0.5991827514   2.1291986615   0.1710959003
	    H     2.0999058154   1.2640525487   0.4588451988
	    H     0.7407418013   1.0200873236   1.5302197399
	    H     0.7158339597  -2.0861855972  -0.6165045449
	    H     2.1367891048  -1.3208313809   0.0834194764
	    H     0.6980236870  -1.5462639951   1.0580594980
			--------------------------
			 OPTKING Finished Execution 
			--------------------------

    Structure for next step:
    Molecular point group: c1
    Full point group: C1

    Geometry (in Angstrom), charge = 0, multiplicity = 1:

    H           -2.702249659557    -0.055103867675     0.036477918903
    C           -1.698960235007     0.036654843566     0.437923756350
    O           -0.830150352218     0.047019980647    -0.648830646981
    H           -1.647989362957     0.955046818820     1.018791027256
    H           -1.518909362813    -0.807656042461     1.102911584368
    C            0.557555964821     0.049265446659    -0.416135120427
    C            1.019526490734     1.181878362739     0.494994115877
    C            1.052172372928    -1.311704306518     0.058926078782
    H            0.975771329092     0.240547807290    -1.396677691859
    H            0.599371101709     2.126472595488     0.170414014900
    H            2.100094165652     1.261326482701     0.458163313435
    H            0.740930151587     1.017361257661     1.529537854547
    H            0.716022309999    -2.088911663221    -0.617186430293
    H            2.136977455085    -1.323557446830     0.082737591069
    H            0.698212037294    -1.548990061084     1.057377612636

gradient() will perform analytic gradient computation.

*** tstart() called on cx1-27-3-3
*** at Sat Sep 10 15:19:39 2016


         ---------------------------------------------------------
                                   SCF
            by Justin Turney, Rob Parrish, and Andy Simmonett
                              RHF Reference
                        4 Threads,   2000 MiB Core
         ---------------------------------------------------------

  ==> Geometry <==

    Molecular point group: c1
    Full point group: C1

    Geometry (in Angstrom), charge = 0, multiplicity = 1:

       Center              X                  Y                   Z               Mass       
    ------------   -----------------  -----------------  -----------------  -----------------
           H         -2.702249659557    -0.055103867675     0.036477918903     1.007825032070
           C         -1.698960235007     0.036654843566     0.437923756350    12.000000000000
           O         -0.830150352218     0.047019980647    -0.648830646981    15.994914619560
           H         -1.647989362957     0.955046818820     1.018791027256     1.007825032070
           H         -1.518909362813    -0.807656042461     1.102911584368     1.007825032070
           C          0.557555964821     0.049265446659    -0.416135120427    12.000000000000
           C          1.019526490734     1.181878362739     0.494994115877    12.000000000000
           C          1.052172372928    -1.311704306518     0.058926078782    12.000000000000
           H          0.975771329092     0.240547807290    -1.396677691859     1.007825032070
           H          0.599371101709     2.126472595488     0.170414014900     1.007825032070
           H          2.100094165652     1.261326482701     0.458163313435     1.007825032070
           H          0.740930151587     1.017361257661     1.529537854547     1.007825032070
           H          0.716022309999    -2.088911663221    -0.617186430293     1.007825032070
           H          2.136977455085    -1.323557446830     0.082737591069     1.007825032070
           H          0.698212037294    -1.548990061084     1.057377612636     1.007825032070

  Running in c1 symmetry.

  Rotational constants: A =      0.21886  B =      0.13974  C =      0.10801 [cm^-1]
  Rotational constants: A =   6561.35668  B =   4189.28035  C =   3238.20663 [MHz]
  Nuclear repulsion =  198.873598664830240

  Charge       = 0
  Multiplicity = 1
  Electrons    = 42
  Nalpha       = 21
  Nbeta        = 21

  ==> Algorithm <==

  SCF Algorithm Type is DF.
  DIIS enabled.
  MOM disabled.
  Fractional occupation disabled.
  Guess Type is READ.
  Energy threshold   = 1.00e-08
  Density threshold  = 1.00e-08
  Integral threshold = 0.00e+00

  ==> Primary Basis <==

  Basis Set: CC-PVTZ
    Number of shells: 110
    Number of basis function: 290
    Number of Cartesian functions: 325
    Spherical Harmonics?: true
    Max angular momentum: 3

  ==> Pre-Iterations <==

   -------------------------------------------------------
    Irrep   Nso     Nmo     Nalpha   Nbeta   Ndocc  Nsocc
   -------------------------------------------------------
     A        290     290       0       0       0       0
   -------------------------------------------------------
    Total     290     290      21      21      21       0
   -------------------------------------------------------

  ==> Integral Setup <==

  ==> DFJK: Density-Fitted J/K Matrices <==

    J tasked:                  Yes
    K tasked:                  Yes
    wK tasked:                  No
    OpenMP threads:              4
    Integrals threads:           4
    Memory (MB):              1430
    Algorithm:                Core
    Integral Cache:           NONE
    Schwarz Cutoff:          1E-12
    Fitting Condition:       1E-12

   => Auxiliary Basis Set <=

  Basis Set: 
    Number of shells: 225
    Number of basis function: 695
    Number of Cartesian functions: 830
    Spherical Harmonics?: true
    Max angular momentum: 4

  Minimum eigenvalue in the overlap matrix is 6.4881050508E-04.
  Using Symmetric Orthogonalization.
  SCF Guess: Reading in previously saved MOs, projecting if necessary.

  Using orbitals from previous SCF, no projection.
  Recomputing DOCC and SOCC from number of alpha and beta electrons from previous calculation.
              A 
    DOCC [    21 ]

  ==> Iterations <==

                           Total Energy        Delta E     RMS |[F,P]|

   @DF-RHF iter   0:  -232.21416510784542   -2.32214e+02   2.23131e-04 
   @DF-RHF iter   1:  -232.22572637108414   -1.15613e-02   5.32247e-05 
   @DF-RHF iter   2:  -232.22594558163235   -2.19211e-04   1.84269e-05 DIIS
   @DF-RHF iter   3:  -232.22597812207709   -3.25404e-05   6.03538e-06 DIIS
   @DF-RHF iter   4:  -232.22598027633586   -2.15426e-06   9.94049e-07 DIIS
   @DF-RHF iter   5:  -232.22598038338350   -1.07048e-07   3.10120e-07 DIIS
   @DF-RHF iter   6:  -232.22598038762175   -4.23825e-09   9.08466e-08 DIIS
   @DF-RHF iter   7:  -232.22598038809298   -4.71232e-10   1.46864e-08 DIIS
   @DF-RHF iter   8:  -232.22598038811486   -2.18847e-11   4.01337e-09 DIIS

  ==> Post-Iterations <==

    Orbital Energies (a.u.)
    -----------------------

    Doubly Occupied:                                                      

       1A    -20.541819     2A    -11.272848     3A    -11.260100  
       4A    -11.210079     5A    -11.207994     6A     -1.373198  
       7A     -1.051699     8A     -0.940832     9A     -0.929595  
      10A     -0.781048    11A     -0.675389    12A     -0.642268  
      13A     -0.634733    14A     -0.574632    15A     -0.563512  
      16A     -0.552573    17A     -0.533828    18A     -0.499872  
      19A     -0.495802    20A     -0.444695    21A     -0.408950  

    Virtual:                                                              

      22A      0.137022    23A      0.166539    24A      0.179078  
      25A      0.189917    26A      0.208727    27A      0.219546  
      28A      0.232095    29A      0.240385    30A      0.247131  
      31A      0.270696    32A      0.281262    33A      0.303965  
      34A      0.335403    35A      0.370749    36A      0.385351  
      37A      0.396505    38A      0.414034    39A      0.450754  
      40A      0.472948    41A      0.489926    42A      0.523516  
      43A      0.544404    44A      0.567621    45A      0.594823  
      46A      0.607092    47A      0.609255    48A      0.612641  
      49A      0.620140    50A      0.635579    51A      0.642957  
      52A      0.660016    53A      0.667168    54A      0.670818  
      55A      0.678041    56A      0.685207    57A      0.693326  
      58A      0.726140    59A      0.771777    60A      0.785352  
      61A      0.823452    62A      0.836898    63A      0.888657  
      64A      0.934572    65A      0.943407    66A      0.962309  
      67A      0.976782    68A      1.031229    69A      1.041220  
      70A      1.066647    71A      1.088859    72A      1.100043  
      73A      1.106773    74A      1.129956    75A      1.153236  
      76A      1.187448    77A      1.207912    78A      1.210547  
      79A      1.225252    80A      1.231883    81A      1.245439  
      82A      1.287804    83A      1.302987    84A      1.310592  
      85A      1.323716    86A      1.340743    87A      1.353041  
      88A      1.369197    89A      1.400140    90A      1.421940  
      91A      1.437250    92A      1.440463    93A      1.455319  
      94A      1.479775    95A      1.499362    96A      1.520399  
      97A      1.531877    98A      1.552050    99A      1.557914  
     100A      1.569842   101A      1.584603   102A      1.603429  
     103A      1.615252   104A      1.633097   105A      1.670417  
     106A      1.691763   107A      1.704183   108A      1.740158  
     109A      1.780277   110A      1.795459   111A      1.822198  
     112A      1.846566   113A      1.852838   114A      1.892649  
     115A      1.993169   116A      2.193109   117A      2.211960  
     118A      2.343073   119A      2.408119   120A      2.457987  
     121A      2.464599   122A      2.554642   123A      2.592192  
     124A      2.642862   125A      2.667281   126A      2.684245  
     127A      2.698200   128A      2.758382   129A      2.809043  
     130A      2.828097   131A      2.861156   132A      2.871569  
     133A      2.880915   134A      2.897931   135A      2.946119  
     136A      2.954927   137A      2.990763   138A      3.010055  
     139A      3.050998   140A      3.081508   141A      3.115658  
     142A      3.122934   143A      3.131003   144A      3.132076  
     145A      3.159559   146A      3.170721   147A      3.203960  
     148A      3.206843   149A      3.225384   150A      3.257935  
     151A      3.264199   152A      3.291307   153A      3.309443  
     154A      3.335563   155A      3.343111   156A      3.366808  
     157A      3.374067   158A      3.388443   159A      3.411144  
     160A      3.422356   161A      3.448109   162A      3.453499  
     163A      3.462558   164A      3.478579   165A      3.494954  
     166A      3.513062   167A      3.528883   168A      3.582681  
     169A      3.595893   170A      3.615529   171A      3.638759  
     172A      3.667021   173A      3.673454   174A      3.701592  
     175A      3.705892   176A      3.716864   177A      3.742198  
     178A      3.744897   179A      3.780819   180A      3.792626  
     181A      3.815267   182A      3.837137   183A      3.842492  
     184A      3.853206   185A      3.879436   186A      3.891885  
     187A      3.905025   188A      3.932185   189A      3.960972  
     190A      4.016212   191A      4.037153   192A      4.067097  
     193A      4.085987   194A      4.112178   195A      4.135376  
     196A      4.136755   197A      4.160518   198A      4.171427  
     199A      4.180209   200A      4.208277   201A      4.224808  
     202A      4.240308   203A      4.274205   204A      4.289038  
     205A      4.304538   206A      4.320313   207A      4.330518  
     208A      4.346648   209A      4.360392   210A      4.380719  
     211A      4.409868   212A      4.422872   213A      4.451419  
     214A      4.460475   215A      4.485344   216A      4.503589  
     217A      4.529926   218A      4.544431   219A      4.554115  
     220A      4.586152   221A      4.602697   222A      4.642631  
     223A      4.656685   224A      4.674694   225A      4.715289  
     226A      4.740323   227A      4.770694   228A      4.784494  
     229A      4.825755   230A      4.885381   231A      4.896792  
     232A      4.943406   233A      4.967242   234A      5.014389  
     235A      5.099938   236A      5.146788   237A      5.157233  
     238A      5.175986   239A      5.184290   240A      5.231351  
     241A      5.243031   242A      5.259246   243A      5.311908  
     244A      5.331808   245A      5.362923   246A      5.387544  
     247A      5.416548   248A      5.431140   249A      5.506570  
     250A      5.508503   251A      5.544074   252A      5.551855  
     253A      5.565925   254A      5.590904   255A      5.625311  
     256A      5.642896   257A      5.680446   258A      5.704154  
     259A      5.727876   260A      5.741939   261A      5.773187  
     262A      5.779104   263A      5.817644   264A      5.829911  
     265A      5.861450   266A      5.971642   267A      5.999400  
     268A      6.069153   269A      6.112588   270A      6.239488  
     271A      6.276972   272A      6.281008   273A      6.328461  
     274A      6.342386   275A      6.349289   276A      6.490068  
     277A      6.649803   278A      6.784307   279A      6.833978  
     280A      7.022987   281A      7.314596   282A      7.352322  
     283A      7.606014   284A      7.844856   285A      8.019611  
     286A     11.437485   287A     12.519736   288A     14.110108  
     289A     14.357281   290A     14.559810  

    Final Occupation by Irrep:
              A 
    DOCC [    21 ]

  Energy converged.

  @DF-RHF Final Energy:  -232.22598038811486

   => Energetics <=

    Nuclear Repulsion Energy =            198.8735986648302401
    One-Electron Energy =                -709.0082254262529204
    Two-Electron Energy =                 277.9086463733076471
    DFT Exchange-Correlation Energy =       0.0000000000000000
    Empirical Dispersion Energy =           0.0000000000000000
    PCM Polarization Energy =               0.0000000000000000
    EFP Energy =                            0.0000000000000000
    Total Energy =                       -232.2259803881150333


  Saving occupied orbitals to File 180.

*** tstop() called on cx1-27-3-3 at Sat Sep 10 15:19:43 2016
Module time:
	user time   =      13.47 seconds =       0.22 minutes
	system time =       0.37 seconds =       0.01 minutes
	total time  =          4 seconds =       0.07 minutes
Total time:
	user time   =      49.96 seconds =       0.83 minutes
	system time =       1.28 seconds =       0.02 minutes
	total time  =         15 seconds =       0.25 minutes


Properties will be evaluated at   0.000000,   0.000000,   0.000000 Bohr

Properties computed using the SCF density matrix

  Nuclear Dipole Moment: (a.u.)
     X:     1.9630      Y:    -0.2093      Z:     3.2242

  Electronic Dipole Moment: (a.u.)
     X:    -1.7319      Y:     0.2184      Z:    -2.7687

  Dipole Moment: (a.u.)
     X:     0.2312      Y:     0.0092      Z:     0.4555     Total:     0.5108

  Dipole Moment: (Debye)
     X:     0.5876      Y:     0.0233      Z:     1.1576     Total:     1.2984


*** tstart() called on cx1-27-3-3
*** at Sat Sep 10 15:19:43 2016


         ------------------------------------------------------------
                                   SCF GRAD                          
                          Rob Parrish, Justin Turney,                
                       Andy Simmonett, and Alex Sokolov              
         ------------------------------------------------------------

  ==> Geometry <==

    Molecular point group: c1
    Full point group: C1

    Geometry (in Angstrom), charge = 0, multiplicity = 1:

       Center              X                  Y                   Z               Mass       
    ------------   -----------------  -----------------  -----------------  -----------------
           H         -2.702249659557    -0.055103867675     0.036477918903     1.007825032070
           C         -1.698960235007     0.036654843566     0.437923756350    12.000000000000
           O         -0.830150352218     0.047019980647    -0.648830646981    15.994914619560
           H         -1.647989362957     0.955046818820     1.018791027256     1.007825032070
           H         -1.518909362813    -0.807656042461     1.102911584368     1.007825032070
           C          0.557555964821     0.049265446659    -0.416135120427    12.000000000000
           C          1.019526490734     1.181878362739     0.494994115877    12.000000000000
           C          1.052172372928    -1.311704306518     0.058926078782    12.000000000000
           H          0.975771329092     0.240547807290    -1.396677691859     1.007825032070
           H          0.599371101709     2.126472595488     0.170414014900     1.007825032070
           H          2.100094165652     1.261326482701     0.458163313435     1.007825032070
           H          0.740930151587     1.017361257661     1.529537854547     1.007825032070
           H          0.716022309999    -2.088911663221    -0.617186430293     1.007825032070
           H          2.136977455085    -1.323557446830     0.082737591069     1.007825032070
           H          0.698212037294    -1.548990061084     1.057377612636     1.007825032070

  Nuclear repulsion =  198.873598664830240

  ==> Basis Set <==

  Basis Set: CC-PVTZ
    Number of shells: 110
    Number of basis function: 290
    Number of Cartesian functions: 325
    Spherical Harmonics?: true
    Max angular momentum: 3

  ==> DFJKGrad: Density-Fitted SCF Gradients <==

    Gradient:                    1
    J tasked:                  Yes
    K tasked:                  Yes
    wK tasked:                  No
    OpenMP threads:              4
    Integrals threads:           4
    Memory (MB):              1430
    Schwarz Cutoff:          0E+00
    Fitting Condition:       1E-12

   => Auxiliary Basis Set <=

  Basis Set: 
    Number of shells: 225
    Number of basis function: 695
    Number of Cartesian functions: 830
    Spherical Harmonics?: true
    Max angular momentum: 4


  -Total Gradient:
     Atom            X                  Y                   Z
    ------   -----------------  -----------------  -----------------
       1       -0.002472418357    -0.000083786023    -0.001200279365
       2        0.000953858482     0.002033329216    -0.000940085323
       3       -0.000031989646    -0.002277081410     0.000148203886
       4       -0.000263388549     0.001552766581     0.000933103975
       5        0.000934890726    -0.002305263028     0.001101386956
       6       -0.000038621716    -0.000632070589    -0.000544217229
       7        0.000847189994    -0.000027819498    -0.000488131337
       8       -0.000693168729     0.000395175367     0.000076110130
       9        0.000203864059     0.001671420401     0.000324795592
      10       -0.000188432318     0.000086795930    -0.000084827725
      11        0.000351678327     0.000175274311     0.000211600955
      12        0.000394874609    -0.000179988669    -0.000033720750
      13       -0.000177816185    -0.000328765750    -0.000456249132
      14        0.000661415185     0.000376542101    -0.000139601332
      15       -0.000481935881    -0.000456528938     0.001091910694


*** tstop() called on cx1-27-3-3 at Sat Sep 10 15:19:48 2016
Module time:
	user time   =      18.61 seconds =       0.31 minutes
	system time =       0.41 seconds =       0.01 minutes
	total time  =          5 seconds =       0.08 minutes
Total time:
	user time   =      68.64 seconds =       1.14 minutes
	system time =       1.69 seconds =       0.03 minutes
	total time  =         20 seconds =       0.33 minutes

			-----------------------------------------
			 OPTKING 2.0: for geometry optimizations 
			  - R.A. King,  Bethel University        
			-----------------------------------------

	Previous internal coordinate definitions found.
	---Fragment 1 Geometry and Gradient---
	 H          -5.1065117992       -0.1041312188        0.0689332766
	 C          -3.2105695548        0.0692676158        0.8275559666
	 O          -1.5687568148        0.0888548862       -1.2261122294
	 H          -3.1142485659        1.8047769317        1.9252360282
	 H          -2.8703227164       -1.5262487298        2.0842008432
	 C           1.0536280773        0.0930982020       -0.7863814119
	 C           1.9266258527        2.2334264280        0.9354033164
	 C           1.9883176294       -2.4787619066        0.1113541510
	 H           1.8439405803        0.4545694776       -2.6393383335
	 H           1.1326472342        4.0184508346        0.3220358174
	 H           3.9686028264        2.3835616165        0.8658031865
	 H           1.4001550701        1.9225341552        2.8904076550
	 H           1.3530860709       -3.9474709593       -1.1663133262
	 H           4.0383021423       -2.5011610957        0.1563513880
	 H           1.3194295332       -2.9271669980        1.9981541069
	            -0.0024724184       -0.0000837860       -0.0012002794
	             0.0009538585        0.0020333292       -0.0009400853
	            -0.0000319896       -0.0022770814        0.0001482039
	            -0.0002633885        0.0015527666        0.0009331040
	             0.0009348907       -0.0023052630        0.0011013870
	            -0.0000386217       -0.0006320706       -0.0005442172
	             0.0008471900       -0.0000278195       -0.0004881313
	            -0.0006931687        0.0003951754        0.0000761101
	             0.0002038641        0.0016714204        0.0003247956
	            -0.0001884323        0.0000867959       -0.0000848277
	             0.0003516783        0.0001752743        0.0002116010
	             0.0003948746       -0.0001799887       -0.0000337208
	            -0.0001778162       -0.0003287657       -0.0004562491
	             0.0006614152        0.0003765421       -0.0001396013
	            -0.0004819359       -0.0004565289        0.0010919107

	---Fragment 1 Intrafragment Coordinates---
	 - Coordinate -           - BOHR/RAD -       - ANG/DEG -
	 R(1,2)           =         2.049432	       1.084513
	 R(2,3)           =         2.629351	       1.391393
	 R(2,4)           =         2.055766	       1.087864
	 R(2,5)           =         2.059271	       1.089719
	 R(3,6)           =         2.659001	       1.407082
	 R(6,7)           =         2.882303	       1.525249
	 R(6,8)           =         2.879937	       1.523997
	 R(6,9)           =         2.046633	       1.083031
	 R(7,10)          =         2.047665	       1.083578
	 R(7,11)          =         2.048671	       1.084110
	 R(7,12)          =         2.048382	       1.083957
	 R(8,13)          =         2.047696	       1.083594
	 R(8,14)          =         2.050601	       1.085131
	 R(8,15)          =         2.051461	       1.085586
	 B(1,2,3)         =         1.864151	     106.808002
	 B(1,2,4)         =         1.888537	     108.205222
	 B(1,2,5)         =         1.889341	     108.251293
	 B(2,3,6)         =         2.079064	     119.121571
	 B(3,2,4)         =         1.962215	     112.426659
	 B(3,2,5)         =         1.959761	     112.286037
	 B(3,6,7)         =         1.980879	     113.495996
	 B(3,6,8)         =         1.950030	     111.728467
	 B(3,6,9)         =         1.804305	     103.379045
	 B(4,2,5)         =         1.897071	     108.694149
	 B(6,7,10)        =         1.929383	     110.545487
	 B(6,7,11)        =         1.913481	     109.634385
	 B(6,7,12)        =         1.960141	     112.307829
	 B(6,8,13)        =         1.923399	     110.202664
	 B(6,8,14)        =         1.918829	     109.940829
	 B(6,8,15)        =         1.956353	     112.090760
	 B(7,6,8)         =         1.959110	     112.248726
	 B(7,6,9)         =         1.867871	     107.021121
	 B(8,6,9)         =         1.890852	     108.337847
	 B(10,7,11)       =         1.888536	     108.205141
	 B(10,7,12)       =         1.894984	     108.574589
	 B(11,7,12)       =         1.875201	     107.441106
	 B(13,8,14)       =         1.892287	     108.420075
	 B(13,8,15)       =         1.892253	     108.418096
	 B(14,8,15)       =         1.879041	     107.661136
	 D(1,2,3,6)       =        -3.053026	    -174.925520
	 D(2,3,6,7)       =        -0.950117	     -54.437719
	 D(2,3,6,8)       =         1.286477	      73.709694
	*D(2,3,6,9)       =        -2.967060	    -170.000014
	 D(3,6,7,10)      =        -0.844236	     -48.371156
	 D(3,6,7,11)      =        -2.924771	    -167.577010
	 D(3,6,7,12)      =         1.275131	      73.059596
	 D(3,6,8,13)      =         0.905542	      51.883725
	 D(3,6,8,14)      =         2.990349	     171.334391
	 D(3,6,8,15)      =        -1.203565	     -68.959200
	 D(4,2,3,6)       =         1.161287	      66.536851
	 D(5,2,3,6)       =        -0.984565	     -56.411418
	 D(7,6,8,13)      =        -3.129495	    -179.306861
	 D(7,6,8,14)      =        -1.044688	     -59.856194
	 D(7,6,8,15)      =         1.044583	      59.850215
	 D(8,6,7,10)      =        -3.076139	    -176.249805
	 D(8,6,7,11)      =         1.126511	      64.544341
	 D(8,6,7,12)      =        -0.956773	     -54.819053
	 D(9,6,7,10)      =         1.134758	      65.016831
	 D(9,6,7,11)      =        -0.945777	     -54.189023
	 D(9,6,7,12)      =        -3.029061	    -173.552417
	 D(9,6,8,13)      =        -1.070786	     -61.351547
	 D(9,6,8,14)      =         1.014021	      58.099120
	 D(9,6,8,15)      =         3.103292	     177.805529

	Current energy   :      -232.2259803881

	Energy change for the previous step:
		Projected    :        -0.0014228846
		Actual       :        -0.0000945819
	Energy ratio indicates iffy step: Trust radius decreased to 1.250e-01.


	Performing BFGS update.
	Previous computed or guess Hessian on step 1.
	Steps to be used in Hessian update: 1
	Taking RFO optimization step.
	Going to follow RFO solution 1.
	Using RFO vector 1.
	Norm of target step-size    0.09666
	Projected energy change by RFO approximation:        -0.0002680838

	Back-transformation to cartesian coordinates...
	Could not converge backtransformation.
	Using first guess instead.

	Back-transformation to cartesian coordinates to adjust frozen coordinates...
	Successfully converged to displaced geometry.

	--- Internal Coordinate Step in ANG or DEG, aJ/ANG or AJ/DEG ---
	 ---------------------------------------------------------------------------
	   Coordinate                Previous        Force       Change         New 
	   ----------                --------       ------       ------       ------
	    1 R(1,2)          =      1.084513    -0.022563    -0.003651     1.080861
	    2 R(2,3)          =      1.391393    -0.003603    -0.000318     1.391074
	    3 R(2,4)          =      1.087864    -0.014803    -0.002741     1.085123
	    4 R(2,5)          =      1.089719    -0.021525    -0.003327     1.086392
	    5 R(3,6)          =      1.407082    -0.007099    -0.000634     1.406449
	    6 R(6,7)          =      1.525249    -0.001894    -0.000255     1.524994
	    7 R(6,8)          =      1.523997     0.000280    -0.000043     1.523955
	    8 R(6,9)          =      1.083031    -0.000658    -0.000079     1.082952
	    9 R(7,10)         =      1.083578    -0.001435     0.000118     1.083696
	   10 R(7,11)         =      1.084110    -0.002935    -0.000067     1.084043
	   11 R(7,12)         =      1.083957     0.000876     0.000401     1.084358
	   12 R(8,13)         =      1.083594    -0.004743    -0.000757     1.082837
	   13 R(8,14)         =      1.085131    -0.005388    -0.000854     1.084277
	   14 R(8,15)         =      1.085586    -0.010391    -0.001517     1.084069
	   15 B(1,2,3)        =    106.808002     0.000019     0.079746   106.887748
	   16 B(1,2,4)        =    108.205222     0.000009     0.016024   108.221247
	   17 B(1,2,5)        =    108.251293    -0.000031    -0.083419   108.167874
	   18 B(2,3,6)        =    119.121571    -0.000144    -0.271386   118.850185
	   19 B(3,2,4)        =    112.426659    -0.000048    -0.143321   112.283338
	   20 B(3,2,5)        =    112.286037     0.000084     0.289419   112.575457
	   21 B(3,6,7)        =    113.495996    -0.000120    -0.312861   113.183135
	   22 B(3,6,8)        =    111.728467     0.000075     0.056339   111.784805
	   23 B(3,6,9)        =    103.379045     0.000009     0.031970   103.411015
	   24 B(4,2,5)        =    108.694149    -0.000034    -0.160975   108.533174
	   25 B(6,7,10)       =    110.545487     0.000012     0.019148   110.564635
	   26 B(6,7,11)       =    109.634385    -0.000028    -0.091823   109.542562
	   27 B(6,7,12)       =    112.307829     0.000004     0.021339   112.329168
	   28 B(6,8,13)       =    110.202664     0.000010     0.036526   110.239190
	   29 B(6,8,14)       =    109.940829     0.000046     0.176854   110.117682
	   30 B(6,8,15)       =    112.090760    -0.000026    -0.117313   111.973447
	   31 B(7,6,8)        =    112.248726     0.000033     0.047134   112.295860
	   32 B(7,6,9)        =    107.021121     0.000059     0.348984   107.370105
	   33 B(8,6,9)        =    108.337847    -0.000059    -0.152490   108.185357
	   34 B(10,7,11)      =    108.205141     0.000003    -0.022032   108.183109
	   35 B(10,7,12)      =    108.574589    -0.000012    -0.031750   108.542839
	   36 B(11,7,12)      =    107.441106     0.000021     0.106244   107.547350
	   37 B(13,8,14)      =    108.420075    -0.000019    -0.020281   108.399794
	   38 B(13,8,15)      =    108.418096     0.000003    -0.021165   108.396931
	   39 B(14,8,15)      =    107.661136    -0.000015    -0.056963   107.604173
	   40 D(1,2,3,6)      =   -174.925520    -0.000002     0.290831  -174.634689
	   41 D(2,3,6,7)      =    -54.437719     0.000004     0.285548   -54.152171
	   42 D(2,3,6,8)      =     73.709694     0.000007     0.134661    73.844355
	   43 *D(2,3,6,9)     =   -170.000014    -0.000000    -0.000000  -170.000014
	   44 D(3,6,7,10)     =    -48.371156     0.000002    -1.809383   -50.180539
	   45 D(3,6,7,11)     =   -167.577010     0.000003    -1.736349  -169.313359
	   46 D(3,6,7,12)     =     73.059596     0.000001    -1.821777    71.237820
	   47 D(3,6,8,13)     =     51.883725     0.000005    -0.492760    51.390964
	   48 D(3,6,8,14)     =    171.334391     0.000007    -0.383593   170.950799
	   49 D(3,6,8,15)     =    -68.959200     0.000006    -0.412500   -69.371700
	   50 D(4,2,3,6)      =     66.536851    -0.000001     0.302245    66.839096
	   51 D(5,2,3,6)      =    -56.411418     0.000003     0.404331   -56.007087
	   52 D(7,6,8,13)     =   -179.306861    -0.000012    -0.833627  -180.140488
	   53 D(7,6,8,14)     =    -59.856194    -0.000009    -0.724460   -60.580653
	   54 D(7,6,8,15)     =     59.850215    -0.000010    -0.753367    59.096848
	   55 D(8,6,7,10)     =   -176.249805    -0.000005    -1.661135  -177.910940
	   56 D(8,6,7,11)     =     64.544341    -0.000004    -1.588101    62.956239
	   57 D(8,6,7,12)     =    -54.819053    -0.000006    -1.673529   -56.492582
	   58 D(9,6,7,10)     =     65.016831    -0.000002    -1.723845    63.292986
	   59 D(9,6,7,11)     =    -54.189023    -0.000000    -1.650811   -55.839834
	   60 D(9,6,7,12)     =   -173.552417    -0.000003    -1.736239  -175.288656
	   61 D(9,6,8,13)     =    -61.351547     0.000001    -0.473192   -61.824739
	   62 D(9,6,8,14)     =     58.099120     0.000003    -0.364025    57.735096
	   63 D(9,6,8,15)     =    177.805529     0.000002    -0.392932   177.412597
	 ---------------------------------------------------------------------------
	Successfully symmetrized geometry.

  ==> Convergence Check <==

  Measures of convergence in internal coordinates in au.
  Criteria marked as inactive (o), active & met (*), and active & unmet ( ).
  ---------------------------------------------------------------------------------------------
   Step     Total Energy     Delta E     MAX Force     RMS Force      MAX Disp      RMS Disp   
  ---------------------------------------------------------------------------------------------
    Convergence Criteria    1.00e-06 *    3.00e-04 *             o    1.20e-03 *             o
  ---------------------------------------------------------------------------------------------
      2    -232.22598039   -9.46e-05      2.74e-03      7.41e-04 o    3.18e-02      1.22e-02 o  ~
  ---------------------------------------------------------------------------------------------

	Writing optimization data to binary file.
	Structure for next step:
	Cartesian Geometry (in Angstrom)
	    H    -2.6947588435  -0.0597632150   0.0478453952
	    C    -1.6925131662   0.0371876070   0.4407391126
	    O    -0.8298655163   0.0468974244  -0.6505132864
	    H    -1.6404885867   0.9567054353   1.0145613704
	    H    -1.5087985158  -0.7984781124   1.1101867250
	    C     0.5573873785   0.0493058299  -0.4189501415
	    C     1.0111510398   1.1808431427   0.4971985759
	    C     1.0542857313  -1.3116928547   0.0535031428
	    H     0.9754011665   0.2399443022  -1.3996163370
	    H     0.6127348790   2.1293634619   0.1566532116
	    H     2.0932464398   1.2448024630   0.4858527296
	    H     0.7035198569   1.0268434111   1.5255368367
	    H     0.7117952823  -2.0892258749  -0.6178228764
	    H     2.1383094608  -1.3274984038   0.0708116082
	    H     0.7069678000  -1.5455844089   1.0534389119
			--------------------------
			 OPTKING Finished Execution 
			--------------------------

    Structure for next step:
    Molecular point group: c1
    Full point group: C1

    Geometry (in Angstrom), charge = 0, multiplicity = 1:

    H           -2.694818906000    -0.059671547886     0.048663400387
    C           -1.692573228754     0.037279274104     0.441557117839
    O           -0.829925578871     0.046989091515    -0.649695281167
    H           -1.640548649259     0.956797102415     1.015379375596
    H           -1.508858578336    -0.798386445298     1.111004730190
    C            0.557327316013     0.049397497002    -0.418132136355
    C            1.011090977223     1.180934809805     0.498016581100
    C            1.054225668803    -1.311601187625     0.054321147993
    H            0.975341103998     0.240035969303    -1.398798331782
    H            0.612674816486     2.129455128964     0.157471216747
    H            2.093186377233     1.244894130127     0.486670734823
    H            0.703459794376     1.026935078213     1.526354841867
    H            0.711735219749    -2.089134207844    -0.617004871251
    H            2.138249398218    -1.327406736715     0.071629613360
    H            0.706907737424    -1.545492741755     1.054256917131

gradient() will perform analytic gradient computation.

*** tstart() called on cx1-27-3-3
*** at Sat Sep 10 15:19:49 2016


         ---------------------------------------------------------
                                   SCF
            by Justin Turney, Rob Parrish, and Andy Simmonett
                              RHF Reference
                        4 Threads,   2000 MiB Core
         ---------------------------------------------------------

  ==> Geometry <==

    Molecular point group: c1
    Full point group: C1

    Geometry (in Angstrom), charge = 0, multiplicity = 1:

       Center              X                  Y                   Z               Mass       
    ------------   -----------------  -----------------  -----------------  -----------------
           H         -2.694818906000    -0.059671547886     0.048663400387     1.007825032070
           C         -1.692573228754     0.037279274104     0.441557117839    12.000000000000
           O         -0.829925578871     0.046989091515    -0.649695281167    15.994914619560
           H         -1.640548649259     0.956797102415     1.015379375596     1.007825032070
           H         -1.508858578336    -0.798386445298     1.111004730190     1.007825032070
           C          0.557327316013     0.049397497002    -0.418132136355    12.000000000000
           C          1.011090977223     1.180934809805     0.498016581100    12.000000000000
           C          1.054225668803    -1.311601187625     0.054321147993    12.000000000000
           H          0.975341103998     0.240035969303    -1.398798331782     1.007825032070
           H          0.612674816486     2.129455128964     0.157471216747     1.007825032070
           H          2.093186377233     1.244894130127     0.486670734823     1.007825032070
           H          0.703459794376     1.026935078213     1.526354841867     1.007825032070
           H          0.711735219749    -2.089134207844    -0.617004871251     1.007825032070
           H          2.138249398218    -1.327406736715     0.071629613360     1.007825032070
           H          0.706907737424    -1.545492741755     1.054256917131     1.007825032070

  Running in c1 symmetry.

  Rotational constants: A =      0.21875  B =      0.14029  C =      0.10840 [cm^-1]
  Rotational constants: A =   6558.08066  B =   4205.71951  C =   3249.83832 [MHz]
  Nuclear repulsion =  199.061377880181027

  Charge       = 0
  Multiplicity = 1
  Electrons    = 42
  Nalpha       = 21
  Nbeta        = 21

  ==> Algorithm <==

  SCF Algorithm Type is DF.
  DIIS enabled.
  MOM disabled.
  Fractional occupation disabled.
  Guess Type is READ.
  Energy threshold   = 1.00e-08
  Density threshold  = 1.00e-08
  Integral threshold = 0.00e+00

  ==> Primary Basis <==

  Basis Set: CC-PVTZ
    Number of shells: 110
    Number of basis function: 290
    Number of Cartesian functions: 325
    Spherical Harmonics?: true
    Max angular momentum: 3

  ==> Pre-Iterations <==

   -------------------------------------------------------
    Irrep   Nso     Nmo     Nalpha   Nbeta   Ndocc  Nsocc
   -------------------------------------------------------
     A        290     290       0       0       0       0
   -------------------------------------------------------
    Total     290     290      21      21      21       0
   -------------------------------------------------------

  ==> Integral Setup <==

  ==> DFJK: Density-Fitted J/K Matrices <==

    J tasked:                  Yes
    K tasked:                  Yes
    wK tasked:                  No
    OpenMP threads:              4
    Integrals threads:           4
    Memory (MB):              1430
    Algorithm:                Core
    Integral Cache:           NONE
    Schwarz Cutoff:          1E-12
    Fitting Condition:       1E-12

   => Auxiliary Basis Set <=

  Basis Set: 
    Number of shells: 225
    Number of basis function: 695
    Number of Cartesian functions: 830
    Spherical Harmonics?: true
    Max angular momentum: 4

  Minimum eigenvalue in the overlap matrix is 6.4492137898E-04.
  Using Symmetric Orthogonalization.
  SCF Guess: Reading in previously saved MOs, projecting if necessary.

  Using orbitals from previous SCF, no projection.
  Recomputing DOCC and SOCC from number of alpha and beta electrons from previous calculation.
              A 
    DOCC [    21 ]

  ==> Iterations <==

                           Total Energy        Delta E     RMS |[F,P]|

   @DF-RHF iter   0:  -232.22983364438991   -2.32230e+02   7.53036e-05 
   @DF-RHF iter   1:  -232.22602100055926    3.81264e-03   1.66121e-05 
   @DF-RHF iter   2:  -232.22604271268986   -2.17121e-05   5.75086e-06 DIIS
   @DF-RHF iter   3:  -232.22604599186300   -3.27917e-06   1.79370e-06 DIIS
   @DF-RHF iter   4:  -232.22604618065120   -1.88788e-07   3.57038e-07 DIIS
   @DF-RHF iter   5:  -232.22604619145002   -1.07988e-08   1.32523e-07 DIIS
   @DF-RHF iter   6:  -232.22604619219587   -7.45842e-10   2.82882e-08 DIIS
   @DF-RHF iter   7:  -232.22604619224578   -4.99085e-11   6.26118e-09 DIIS

  ==> Post-Iterations <==

    Orbital Energies (a.u.)
    -----------------------

    Doubly Occupied:                                                      

       1A    -20.541773     2A    -11.272670     3A    -11.258757  
       4A    -11.210057     5A    -11.207541     6A     -1.373635  
       7A     -1.051618     8A     -0.941149     9A     -0.930498  
      10A     -0.781424    11A     -0.675970    12A     -0.642690  
      13A     -0.635020    14A     -0.574446    15A     -0.564045  
      16A     -0.552771    17A     -0.533789    18A     -0.499763  
      19A     -0.496673    20A     -0.445038    21A     -0.408980  

    Virtual:                                                              

      22A      0.137244    23A      0.166600    24A      0.179110  
      25A      0.189977    26A      0.208641    27A      0.219629  
      28A      0.232641    29A      0.239857    30A      0.247861  
      31A      0.270867    32A      0.281988    33A      0.303943  
      34A      0.334852    35A      0.370495    36A      0.386228  
      37A      0.396174    38A      0.414735    39A      0.452889  
      40A      0.472141    41A      0.490537    42A      0.522335  
      43A      0.545562    44A      0.567890    45A      0.595429  
      46A      0.607097    47A      0.608946    48A      0.614466  
      49A      0.619617    50A      0.636060    51A      0.643293  
      52A      0.660637    53A      0.667456    54A      0.673042  
      55A      0.677928    56A      0.685019    57A      0.693618  
      58A      0.727355    59A      0.774132    60A      0.786113  
      61A      0.822977    62A      0.838053    63A      0.888851  
      64A      0.934525    65A      0.944795    66A      0.960118  
      67A      0.977158    68A      1.030883    69A      1.041041  
      70A      1.066351    71A      1.087928    72A      1.099731  
      73A      1.106136    74A      1.131789    75A      1.154395  
      76A      1.187981    77A      1.210803    78A      1.212672  
      79A      1.227972    80A      1.232210    81A      1.246555  
      82A      1.285656    83A      1.302831    84A      1.310867  
      85A      1.323514    86A      1.341328    87A      1.350514  
      88A      1.371345    89A      1.400306    90A      1.423102  
      91A      1.437323    92A      1.439412    93A      1.454545  
      94A      1.483062    95A      1.499496    96A      1.522080  
      97A      1.532801    98A      1.552582    99A      1.559031  
     100A      1.570870   101A      1.586633   102A      1.605218  
     103A      1.615949   104A      1.634810   105A      1.670862  
     106A      1.693706   107A      1.704517   108A      1.742925  
     109A      1.781958   110A      1.798712   111A      1.823484  
     112A      1.848492   113A      1.854086   114A      1.895489  
     115A      1.995441   116A      2.195103   117A      2.211163  
     118A      2.343700   119A      2.409757   120A      2.458544  
     121A      2.463206   122A      2.554526   123A      2.592698  
     124A      2.641812   125A      2.667721   126A      2.684398  
     127A      2.702348   128A      2.759028   129A      2.808638  
     130A      2.826920   131A      2.858291   132A      2.871146  
     133A      2.883502   134A      2.897220   135A      2.945995  
     136A      2.955891   137A      2.991322   138A      3.009671  
     139A      3.047827   140A      3.082330   141A      3.117106  
     142A      3.122905   143A      3.130861   144A      3.134340  
     145A      3.159095   146A      3.173516   147A      3.203530  
     148A      3.207577   149A      3.227484   150A      3.259809  
     151A      3.265573   152A      3.292875   153A      3.308802  
     154A      3.337173   155A      3.343982   156A      3.368017  
     157A      3.374313   158A      3.388920   159A      3.412512  
     160A      3.422070   161A      3.447510   162A      3.455373  
     163A      3.463963   164A      3.480922   165A      3.497833  
     166A      3.513608   167A      3.528415   168A      3.582643  
     169A      3.595820   170A      3.618223   171A      3.638723  
     172A      3.668092   173A      3.675588   174A      3.702162  
     175A      3.710861   176A      3.719499   177A      3.743164  
     178A      3.749127   179A      3.782531   180A      3.794153  
     181A      3.815976   182A      3.837105   183A      3.847501  
     184A      3.857197   185A      3.879436   186A      3.894714  
     187A      3.908165   188A      3.933334   189A      3.964111  
     190A      4.017193   191A      4.037892   192A      4.066849  
     193A      4.086925   194A      4.116078   195A      4.135888  
     196A      4.139459   197A      4.162547   198A      4.170082  
     199A      4.181833   200A      4.210194   201A      4.224282  
     202A      4.241255   203A      4.272963   204A      4.291095  
     205A      4.303325   206A      4.323316   207A      4.333117  
     208A      4.349080   209A      4.363944   210A      4.378807  
     211A      4.415044   212A      4.425256   213A      4.456560  
     214A      4.464076   215A      4.485410   216A      4.503464  
     217A      4.534302   218A      4.547377   219A      4.560638  
     220A      4.594535   221A      4.605069   222A      4.645477  
     223A      4.658854   224A      4.679495   225A      4.714674  
     226A      4.739389   227A      4.771991   228A      4.787301  
     229A      4.830088   230A      4.887626   231A      4.901589  
     232A      4.948545   233A      4.966720   234A      5.019865  
     235A      5.105641   236A      5.148265   237A      5.159214  
     238A      5.178326   239A      5.185370   240A      5.235267  
     241A      5.247662   242A      5.261117   243A      5.317912  
     244A      5.332621   245A      5.367600   246A      5.395422  
     247A      5.419678   248A      5.441224   249A      5.509001  
     250A      5.511757   251A      5.544664   252A      5.553249  
     253A      5.567408   254A      5.602820   255A      5.630207  
     256A      5.653097   257A      5.683288   258A      5.709454  
     259A      5.731163   260A      5.743818   261A      5.777776  
[...]

   => Auxiliary Basis Set <=

  Basis Set: 
    Number of shells: 225
    Number of basis function: 695
    Number of Cartesian functions: 830
    Spherical Harmonics?: true
    Max angular momentum: 4


  -Total Gradient:
     Atom            X                  Y                   Z
    ------   -----------------  -----------------  -----------------
       1       -0.000015115123    -0.000005525685    -0.000009308253
       2        0.000008765613     0.000739391855    -0.000006285958
       3       -0.000021178608    -0.000955215263     0.000007576833
       4        0.000005605169     0.000027253360     0.000016248536
       5        0.000003398438    -0.000009668437     0.000003259690
       6        0.000012164195    -0.000638341242    -0.000152150046
       7        0.000018858421     0.000007010343     0.000003949341
       8        0.000022413475    -0.000003258959    -0.000004955294
       9       -0.000028811558     0.000850758184     0.000153992471
      10        0.000010840505    -0.000014292784     0.000006840036
      11       -0.000011640696     0.000004215460     0.000004242138
      12       -0.000003943712     0.000002472914    -0.000027250901
      13       -0.000000027902     0.000000139547    -0.000009022565
      14       -0.000003031815    -0.000004147384     0.000003131085
      15        0.000001703596    -0.000000791909     0.000009732887


*** tstop() called on cx1-27-3-3 at Sat Sep 10 15:20:26 2016
Module time:
	user time   =      18.08 seconds =       0.30 minutes
	system time =       0.37 seconds =       0.01 minutes
	total time  =          4 seconds =       0.07 minutes
Total time:
	user time   =     202.63 seconds =       3.38 minutes
	system time =       5.09 seconds =       0.08 minutes
	total time  =         58 seconds =       0.97 minutes

			-----------------------------------------
			 OPTKING 2.0: for geometry optimizations 
			  - R.A. King,  Bethel University        
			-----------------------------------------

	Previous internal coordinate definitions found.
	---Fragment 1 Geometry and Gradient---
	 H          -5.0916263155       -0.1262141480        0.0663800186
	 C          -3.2038160907        0.0826028406        0.8167942916
	 O          -1.5616931289        0.0906443119       -1.2364549413
	 H          -3.1252716012        1.8342542927        1.8805530654
	 H          -2.8504810524       -1.4776247853        2.1020969533
	 C           1.0577491089        0.0883543365       -0.7832811201
	 C           1.9089539921        2.2279082556        0.9481954641
	 C           1.9888821673       -2.4846278543        0.1165008598
	 H           1.8585079711        0.4414504285       -2.6332057330
	 H           1.1580009322        4.0190971271        0.3011734445
	 H           3.9530713462        2.3500547164        0.9364895512
	 H           1.3179755216        1.9379264505        2.8876158147
	 H           1.3341209082       -3.9544054107       -1.1475596733
	 H           4.0370454950       -2.5219235361        0.1451660263
	 H           1.3358445509       -2.9200476813        2.0085354034
	            -0.0000151151       -0.0000055257       -0.0000093083
	             0.0000087656        0.0007393919       -0.0000062860
	            -0.0000211786       -0.0009552153        0.0000075768
	             0.0000056052        0.0000272534        0.0000162485
	             0.0000033984       -0.0000096684        0.0000032597
	             0.0000121642       -0.0006383412       -0.0001521500
	             0.0000188584        0.0000070103        0.0000039493
	             0.0000224135       -0.0000032590       -0.0000049553
	            -0.0000288116        0.0008507582        0.0001539925
	             0.0000108405       -0.0000142928        0.0000068400
	            -0.0000116407        0.0000042155        0.0000042421
	            -0.0000039437        0.0000024729       -0.0000272509
	            -0.0000000279        0.0000001395       -0.0000090226
	            -0.0000030318       -0.0000041474        0.0000031311
	             0.0000017036       -0.0000007919        0.0000097329

	---Fragment 1 Intrafragment Coordinates---
	 - Coordinate -           - BOHR/RAD -       - ANG/DEG -
	 R(1,2)           =         2.042193	       1.080682
	 R(2,3)           =         2.629157	       1.391290
	 R(2,4)           =         2.050862	       1.085269
	 R(2,5)           =         2.052111	       1.085930
	 R(3,6)           =         2.658355	       1.406741
	 R(6,7)           =         2.881016	       1.524568
	 R(6,8)           =         2.880426	       1.524256
	 R(6,9)           =         2.046488	       1.082955
	 R(7,10)          =         2.047175	       1.083318
	 R(7,11)          =         2.047797	       1.083647
	 R(7,12)          =         2.048096	       1.083806
	 R(8,13)          =         2.046169	       1.082786
	 R(8,14)          =         2.048703	       1.084127
	 R(8,15)          =         2.048376	       1.083954
	 B(1,2,3)         =         1.865768	     106.900630
	 B(1,2,4)         =         1.889495	     108.260099
	 B(1,2,5)         =         1.887643	     108.153975
	 B(2,3,6)         =         2.074082	     118.836129
	 B(3,2,4)         =         1.959014	     112.243213
	 B(3,2,5)         =         1.964835	     112.576732
	 B(3,6,7)         =         1.974624	     113.137629
	 B(3,6,8)         =         1.952553	     111.873061
	 B(3,6,9)         =         1.804221	     103.374231
	 B(4,2,5)         =         1.894325	     108.536803
	 B(6,7,10)        =         1.929915	     110.575973
	 B(6,7,11)        =         1.913233	     109.620182
	 B(6,7,12)        =         1.959193	     112.253492
	 B(6,8,13)        =         1.923268	     110.195142
	 B(6,8,14)        =         1.921767	     110.109126
	 B(6,8,15)        =         1.955579	     112.046398
	 B(7,6,8)         =         1.960729	     112.341503
	 B(7,6,9)         =         1.874997	     107.429428
	 B(8,6,9)         =         1.885998	     108.059753
	 B(10,7,11)       =         1.888272	     108.189997
	 B(10,7,12)       =         1.893698	     108.500929
	 B(11,7,12)       =         1.877471	     107.571159
	 B(13,8,14)       =         1.891755	     108.389593
	 B(13,8,15)       =         1.892215	     108.415922
	 B(14,8,15)       =         1.877513	     107.573551
	 D(1,2,3,6)       =        -3.032788	    -173.765957
	 D(2,3,6,7)       =        -0.944660	     -54.125044
	 D(2,3,6,8)       =         1.291047	      73.971529
	*D(2,3,6,9)       =        -2.967060	    -170.000014
	 D(3,6,7,10)      =        -0.871438	     -49.929717
	 D(3,6,7,11)      =        -2.951819	    -169.126795
	 D(3,6,7,12)      =         1.246004	      71.390775
	 D(3,6,8,13)      =         0.889376	      50.957475
	 D(3,6,8,14)      =         2.975290	     170.471555
	 D(3,6,8,15)      =        -1.219073	     -69.847748
	 D(4,2,3,6)       =         1.181153	      67.675068
	 D(5,2,3,6)       =        -0.962487	     -55.146416
	 D(7,6,8,13)      =         3.132455	     179.476438
	 D(7,6,8,14)      =        -1.064816	     -61.009482
	 D(7,6,8,15)      =         1.024006	      58.671215
	 D(8,6,7,10)      =        -3.102890	    -177.782515
	 D(8,6,7,11)      =         1.099914	      63.020408
	 D(8,6,7,12)      =        -0.985448	     -56.462022
	 D(9,6,7,10)      =         1.108478	      63.511084
	 D(9,6,7,11)      =        -0.971904	     -55.685994
	 D(9,6,7,12)      =        -3.057266	    -175.168423
	 D(9,6,8,13)      =        -1.085391	     -62.188332
	 D(9,6,8,14)      =         1.000523	      57.325747
	 D(9,6,8,15)      =         3.089345	     177.006445

	Current energy   :      -232.2260508159

	Energy change for the previous step:
		Projected    :        -0.0000009455
		Actual       :        -0.0000001069
	Energy ratio indicates iffy step: Trust radius decreased to 7.812e-03.


	Performing BFGS update.
	Previous computed or guess Hessian on step 1.
	Steps to be used in Hessian update: 5 4
	Taking RFO optimization step.
	Going to follow RFO solution 1.
	Using RFO vector 1.
	Norm of target step-size    0.00251
	Projected energy change by RFO approximation:        -0.0000001659

	Back-transformation to cartesian coordinates...
	Successfully converged to displaced geometry.

	Back-transformation to cartesian coordinates to adjust frozen coordinates...
	Successfully converged to displaced geometry.

	--- Internal Coordinate Step in ANG or DEG, aJ/ANG or AJ/DEG ---
	 ---------------------------------------------------------------------------
	   Coordinate                Previous        Force       Change         New 
	   ----------                --------       ------       ------       ------
	    1 R(1,2)          =      1.080682    -0.000148    -0.000024     1.080658
	    2 R(2,3)          =      1.391290     0.000007     0.000000     1.391290
	    3 R(2,4)          =      1.085269    -0.000263    -0.000045     1.085224
	    4 R(2,5)          =      1.085930    -0.000082    -0.000010     1.085920
	    5 R(3,6)          =      1.406741    -0.000133    -0.000018     1.406723
	    6 R(6,7)          =      1.524568     0.000030     0.000017     1.524585
	    7 R(6,8)          =      1.524256    -0.000112    -0.000021     1.524235
	    8 R(6,9)          =      1.082955     0.000030     0.000002     1.082957
	    9 R(7,10)         =      1.083318     0.000154     0.000031     1.083350
	   10 R(7,11)         =      1.083647     0.000094     0.000023     1.083671
	   11 R(7,12)         =      1.083806     0.000206     0.000044     1.083850
	   12 R(8,13)         =      1.082786    -0.000045    -0.000006     1.082780
	   13 R(8,14)         =      1.084127     0.000024     0.000007     1.084134
	   14 R(8,15)         =      1.083954    -0.000071    -0.000013     1.083941
	   15 B(1,2,3)        =    106.900630     0.000000     0.000270   106.900901
	   16 B(1,2,4)        =    108.260099    -0.000000    -0.003556   108.256543
	   17 B(1,2,5)        =    108.153975    -0.000000     0.000062   108.154036
	   18 B(2,3,6)        =    118.836129     0.000001     0.000981   118.837110
	   19 B(3,2,4)        =    112.243213     0.000000     0.000526   112.243738
	   20 B(3,2,5)        =    112.576732     0.000000     0.003500   112.580232
	   21 B(3,6,7)        =    113.137629    -0.000000    -0.002886   113.134743
	   22 B(3,6,8)        =    111.873061    -0.000001    -0.004060   111.869000
	   23 B(3,6,9)        =    103.374231     0.000000     0.001828   103.376059
	   24 B(4,2,5)        =    108.536803    -0.000000    -0.001077   108.535726
	   25 B(6,7,10)       =    110.575973    -0.000000    -0.001158   110.574815
	   26 B(6,7,11)       =    109.620182    -0.000001    -0.004734   109.615448
	   27 B(6,7,12)       =    112.253492     0.000001     0.004731   112.258223
	   28 B(6,8,13)       =    110.195142     0.000001     0.003339   110.198481
	   29 B(6,8,14)       =    110.109126    -0.000001    -0.001712   110.107414
	   30 B(6,8,15)       =    112.046398    -0.000000    -0.002086   112.044311
	   31 B(7,6,8)        =    112.341503     0.000000    -0.000655   112.340848
	   32 B(7,6,9)        =    107.429428    -0.000000     0.002227   107.431655
	   33 B(8,6,9)        =    108.059753     0.000000     0.004529   108.064282
	   34 B(10,7,11)      =    108.189997     0.000000     0.000556   108.190554
	   35 B(10,7,12)      =    108.500929    -0.000000     0.002613   108.503542
	   36 B(11,7,12)      =    107.571159    -0.000000    -0.002095   107.569064
	   37 B(13,8,14)      =    108.389593     0.000000     0.000806   108.390399
	   38 B(13,8,15)      =    108.415922    -0.000000    -0.002040   108.413882
	   39 B(14,8,15)      =    107.573551     0.000000     0.001727   107.575278
	   40 D(1,2,3,6)      =   -173.765957    -0.000000    -0.011547  -173.777503
	   41 D(2,3,6,7)      =    -54.125044     0.000000     0.002357   -54.122687
	   42 D(2,3,6,8)      =     73.971529    -0.000000    -0.004466    73.967063
	   43 *D(2,3,6,9)     =   -170.000014     0.000000     0.000000  -170.000014
	   44 D(3,6,7,10)     =    -49.929717    -0.000000     0.040545   -49.889172
	   45 D(3,6,7,11)     =   -169.126795    -0.000000     0.043553  -169.083242
	   46 D(3,6,7,12)     =     71.390775     0.000000     0.046332    71.437107
	   47 D(3,6,8,13)     =     50.957475     0.000000     0.003302    50.960777
	   48 D(3,6,8,14)     =    170.471555     0.000000     0.005320   170.476875
	   49 D(3,6,8,15)     =    -69.847748     0.000000     0.004982   -69.842766
	   50 D(4,2,3,6)      =     67.675068     0.000000    -0.007674    67.667394
	   51 D(5,2,3,6)      =    -55.146416     0.000000    -0.009293   -55.155709
	   52 D(7,6,8,13)     =    179.476438    -0.000000    -0.004630   179.471808
	   53 D(7,6,8,14)     =    -61.009482    -0.000000    -0.002611   -61.012093
	   54 D(7,6,8,15)     =     58.671215    -0.000000    -0.002949    58.668266
	   55 D(8,6,7,10)     =   -177.782515     0.000000     0.049180  -177.733335
	   56 D(8,6,7,11)     =     63.020408     0.000000     0.052187    63.072594
	   57 D(8,6,7,12)     =    -56.462022     0.000000     0.054966   -56.407056
	   58 D(9,6,7,10)     =     63.511084    -0.000000     0.042573    63.553656
	   59 D(9,6,7,11)     =    -55.685994     0.000000     0.045580   -55.640414
	   60 D(9,6,7,12)     =   -175.168423     0.000000     0.048359  -175.120065
	   61 D(9,6,8,13)     =    -62.188332    -0.000000     0.000638   -62.187694
	   62 D(9,6,8,14)     =     57.325747     0.000000     0.002657    57.328404
	   63 D(9,6,8,15)     =    177.006445     0.000000     0.002319   177.008763
	 ---------------------------------------------------------------------------
	Successfully symmetrized geometry.

  ==> Convergence Check <==

  Measures of convergence in internal coordinates in au.
  Criteria marked as inactive (o), active & met (*), and active & unmet ( ).
  ---------------------------------------------------------------------------------------------
   Step     Total Energy     Delta E     MAX Force     RMS Force      MAX Disp      RMS Disp   
  ---------------------------------------------------------------------------------------------
    Convergence Criteria    1.00e-06 *    3.00e-04 *             o    1.20e-03 *             o
  ---------------------------------------------------------------------------------------------
      6    -232.22605082   -1.07e-07 *    3.19e-05 *    8.28e-06 o    9.59e-04 *    3.17e-04 o  ~
  ---------------------------------------------------------------------------------------------


  **** Optimization is complete! (in 6 steps) ****

  ==> Optimization Summary <==

  Measures of convergence in internal coordinates in au.
  --------------------------------------------------------------------------------------------------------------- ~
   Step         Total Energy             Delta E       MAX Force       RMS Force        MAX Disp        RMS Disp  ~
  --------------------------------------------------------------------------------------------------------------- ~
      1    -232.225885806219   -232.225885806219      0.00290914      0.00072130      0.08886781      0.02831232  ~
      2    -232.225980388115     -0.000094581896      0.00273864      0.00074093      0.03179600      0.01217628  ~
      3    -232.226046192246     -0.000065804131      0.00040490      0.00012703      0.00994654      0.00393717  ~
      4    -232.226049677350     -0.000003485104      0.00036112      0.00008492      0.00417791      0.00141136  ~
      5    -232.226050709040     -0.000001031690      0.00005294      0.00002086      0.00259669      0.00096645  ~
      6    -232.226050815902     -0.000000106861      0.00003192      0.00000828      0.00095933      0.00031675  ~
  --------------------------------------------------------------------------------------------------------------- ~

	Writing optimization data to binary file.
	Final energy is   -232.2260508159018
	Final (previous) structure:
	Cartesian Geometry (in Angstrom)
	    H    -2.6943726008  -0.0667896505   0.0351267929
	    C    -1.6953864557   0.0437115406   0.4322289232
	    O    -0.8264124106   0.0479669039  -0.6543037744
	    H    -1.6538225020   0.9706455664   0.9951458218
	    H    -1.5084096064  -0.7819253592   1.1123817979
	    C     0.5597367209   0.0467551011  -0.4144945167
	    C     1.0101749449   1.1789582717   0.5017634289
	    C     1.0524711135  -1.3148084323   0.0616495998
	    H     0.9834800603   0.2336055055  -1.3934324594
	    H     0.6127877008   2.1268145988   0.1593741227
	    H     2.0918752603   1.2435953949   0.4955689266
	    H     0.6974426075   1.0255065095   1.5280604763
	    H     0.7059863781  -2.0925812168  -0.6072624246
	    H     2.1363124660  -1.3345444571   0.0768185526
	    H     0.7068984905  -1.5452226810   1.0628711581
	Saving final (previous) structure.
			--------------------------
			 OPTKING Finished Execution 
			--------------------------

    Final optimized geometry and variables:
    Molecular point group: c1
    Full point group: C1

    Geometry (in Angstrom), charge = 0, multiplicity = 1:

    H           -2.694372600809    -0.066789650538     0.035126792948
    C           -1.695386455737     0.043711540611     0.432228923243
    O           -0.826412410605     0.047966903924    -0.654303774390
    H           -1.653822502017     0.970645566436     0.995145821759
    H           -1.508409606426    -0.781925359202     1.112381797916
    C            0.559736720858     0.046755101134    -0.414494516666
    C            1.010174944872     1.178958271677     0.501763428876
    C            1.052471113527    -1.314808432309     0.061649599776
    H            0.983480060294     0.233605505473    -1.393432459417
    H            0.612787700841     2.126814598783     0.159374122680
    H            2.091875260350     1.243595394873     0.495568926582
    H            0.697442607529     1.025506509548     1.528060476300
    H            0.705986378127    -2.092581216849    -0.607262424596
    H            2.136312466019    -1.334544457106     0.076818552606
    H            0.706898490533    -1.545222680966     1.062871158107

	Cleaning optimization helper files.


Properties will be evaluated at   0.000000,   0.000000,   0.000000 Bohr

Properties computed using the  density matrix

  Nuclear Dipole Moment: (a.u.)
     X:     1.9443      Y:    -0.2069      Z:     3.2449

  Electronic Dipole Moment: (a.u.)
     X:    -1.7151      Y:     0.2141      Z:    -2.7846

  Dipole Moment: (a.u.)
     X:     0.2291      Y:     0.0072      Z:     0.4602     Total:     0.5142

  Dipole Moment: (Debye)
     X:     0.5824      Y:     0.0183      Z:     1.1698     Total:     1.3069

  Quadrupole Moment: (Debye Ang)
    XX:   -31.6240     YY:   -33.4693     ZZ:   -34.2050
    XY:     0.1604     XZ:    -2.2007     YZ:     0.0159

  Traceless Quadrupole Moment: (Debye Ang)
    XX:     1.4755     YY:    -0.3699     ZZ:    -1.1056
    XY:     0.1604     XZ:    -2.2007     YZ:     0.0159

  Mulliken Charges: (a.u.)
   Center  Symbol    Alpha    Beta     Spin     Total
       1     H     0.44130  0.44130  0.00000  0.11740
       2     C     3.03929  3.03929  0.00000 -0.07859
       3     O     4.18358  4.18358  0.00000 -0.36715
       4     H     0.46868  0.46868  0.00000  0.06264
       5     H     0.47100  0.47100  0.00000  0.05800
       6     C     2.93386  2.93386  0.00000  0.13227
       7     C     3.16298  3.16298  0.00000 -0.32596
       8     C     3.15280  3.15280  0.00000 -0.30559
       9     H     0.44713  0.44713  0.00000  0.10574
      10     H     0.44373  0.44373  0.00000  0.11254
      11     H     0.44782  0.44782  0.00000  0.10436
      12     H     0.45474  0.45474  0.00000  0.09053
      13     H     0.44475  0.44475  0.00000  0.11051
      14     H     0.45185  0.45185  0.00000  0.09629
      15     H     0.45649  0.45649  0.00000  0.08702

   Total alpha = 21.00000, Total beta = 21.00000, Total charge =  0.00000


*** Psi4 exiting successfully. Buy a developer a beer!
