    -----------------------------------------------------------------------
          Psi4: An Open-Source Ab Initio Electronic Structure Package
                              Psi4 (no tag) Driver

                          Git: Rev {detached?}  

    J. M. Turney, A. C. Simmonett, R. M. Parrish, E. G. Hohenstein,
    F. A. Evangelista, J. T. Fermann, B. J. Mintz, L. A. Burns, J. J. Wilke,
    M. L. Abrams, N. J. Russ, M. L. Leininger, C. L. Janssen, E. T. Seidl,
    W. D. Allen, H. F. Schaefer, R. A. King, E. F. Valeev, C. D. Sherrill,
    and T. D. Crawford, WIREs Comput. Mol. Sci. 2, 556-565 (2012)
    (doi: 10.1002/wcms.93)

                         Additional Contributions by
    A. E. DePrince, M. Saitow, U. Bozkaya, A. Yu. Sokolov
    -----------------------------------------------------------------------


    Psi4 started on: Fri Sep  9 21:10:17 2016

    Process ID:  41161
    PSI4DATADIR: /export131/home/mjharvey/miniconda3/share
    Memory level set to 256.000 MB

  ==> Input File <==

--------------------------------------------------------------------------
set {
	reference rhf
	basis cc-pvtz
}


set_num_threads( 4 )
memory 2 gb

molecule MOL {
0 1

H	 2.828711	 -0.346904	 0.001083
C	 1.876752	 0.015931	 -0.363450
C	 0.776285	 -0.474665	 0.563092
H	 1.728113	 -0.357244	 -1.367440
H	 1.906171	 1.096574	 -0.386153
N	 -0.540022	 0.017605	 0.071630
H	 0.707111	 -1.548969	 0.573035
H	 0.886169	 -0.084184	 1.560432
O	 -1.207505	 -0.742805	 -0.545168
O	 -0.818455	 1.145369	 0.306193

	symmetry c1
}
set optking {
	frozen_dihedral = ("
		9 6 3 2
	")
}

ee = optimize('scf')
oeprop('DIPOLE', 'QUADRUPOLE', 'MULLIKEN_CHARGES')
f=open( 'psi4out.xyz', 'w' )
f.write( "10  " )
f.write( str(ee) + "\n" )
f.write( MOL.save_string_xyz() )
f.close()
--------------------------------------------------------------------------

  Memory set to   2.000 GiB by Python script.
gradient() will perform analytic gradient computation.

*** tstart() called on cx1-27-3-3
*** at Fri Sep  9 21:10:18 2016


         ---------------------------------------------------------
                                   SCF
            by Justin Turney, Rob Parrish, and Andy Simmonett
                              RHF Reference
                        4 Threads,   2000 MiB Core
         ---------------------------------------------------------

  ==> Geometry <==

    Molecular point group: c1
    Full point group: C1

    Geometry (in Angstrom), charge = 0, multiplicity = 1:

       Center              X                  Y                   Z               Mass       
    ------------   -----------------  -----------------  -----------------  -----------------
           H          2.828861144450    -0.345974492918     0.001612141093     1.007825032070
           C          1.876902144450     0.016860507082    -0.362920858907    12.000000000000
           C          0.776435144450    -0.473735492918     0.563621141093    12.000000000000
           H          1.728263144450    -0.356314492918    -1.366910858907     1.007825032070
           H          1.906321144450     1.097503507082    -0.385623858907     1.007825032070
           N         -0.539871855550     0.018534507082     0.072159141093    14.003074004780
           H          0.707261144450    -1.548039492918     0.573564141093     1.007825032070
           H          0.886319144450    -0.083254492918     1.560961141093     1.007825032070
           O         -1.207354855550    -0.741875492918    -0.544638858907    15.994914619560
           O         -0.818304855550     1.146298507082     0.306722141093    15.994914619560

  Running in c1 symmetry.

  Rotational constants: A =      0.32124  B =      0.14313  C =      0.11795 [cm^-1]
  Rotational constants: A =   9630.49500  B =   4290.90876  C =   3535.97517 [MHz]
  Nuclear repulsion =  186.818356900533047

  Charge       = 0
  Multiplicity = 1
  Electrons    = 40
  Nalpha       = 20
  Nbeta        = 20

  ==> Algorithm <==

  SCF Algorithm Type is DF.
  DIIS enabled.
  MOM disabled.
  Fractional occupation disabled.
  Guess Type is CORE.
  Energy threshold   = 1.00e-08
  Density threshold  = 1.00e-08
  Integral threshold = 0.00e+00

  ==> Primary Basis <==

  Basis Set: CC-PVTZ
    Number of shells: 80
    Number of basis function: 220
    Number of Cartesian functions: 250
    Spherical Harmonics?: true
    Max angular momentum: 3

  ==> Pre-Iterations <==

   -------------------------------------------------------
    Irrep   Nso     Nmo     Nalpha   Nbeta   Ndocc  Nsocc
   -------------------------------------------------------
     A        220     220       0       0       0       0
   -------------------------------------------------------
    Total     220     220      20      20      20       0
   -------------------------------------------------------

 OEINTS: Overlap, kinetic, potential, dipole, and quadrupole integrals
         stored in file 35.

  ==> Integral Setup <==

  ==> DFJK: Density-Fitted J/K Matrices <==

    J tasked:                  Yes
    K tasked:                  Yes
    wK tasked:                  No
    OpenMP threads:              4
    Integrals threads:           4
    Memory (MB):              1430
    Algorithm:                Core
    Integral Cache:           NONE
    Schwarz Cutoff:          1E-12
    Fitting Condition:       1E-12

   => Auxiliary Basis Set <=

  Basis Set: 
    Number of shells: 175
    Number of basis function: 545
    Number of Cartesian functions: 655
    Spherical Harmonics?: true
    Max angular momentum: 4

  Minimum eigenvalue in the overlap matrix is 8.9489164842E-04.
  Using Symmetric Orthogonalization.
  SCF Guess: Core (One-Electron) Hamiltonian.

  ==> Iterations <==

                           Total Energy        Delta E     RMS |[F,P]|

   @DF-RHF iter   1:  -210.15756953705147   -2.10158e+02   6.38279e-02 
   @DF-RHF iter   2:  -154.90165626518177    5.52559e+01   4.98946e-02 DIIS
   @DF-RHF iter   3:  -247.02697571997879   -9.21253e+01   2.80300e-02 DIIS
   @DF-RHF iter   4:  -237.89157384047570    9.13540e+00   3.21789e-02 DIIS
   @DF-RHF iter   5:  -279.45980267576766   -4.15682e+01   1.02145e-02 DIIS
   @DF-RHF iter   6:  -282.26300923168918   -2.80321e+00   4.02691e-03 DIIS
   @DF-RHF iter   7:  -282.72690686421168   -4.63898e-01   1.63062e-03 DIIS
   @DF-RHF iter   8:  -282.80190780347112   -7.50009e-02   5.38533e-04 DIIS
   @DF-RHF iter   9:  -282.81187997506362   -9.97217e-03   1.63849e-04 DIIS
   @DF-RHF iter  10:  -282.81310909128518   -1.22912e-03   7.28188e-05 DIIS
   @DF-RHF iter  11:  -282.81326956887773   -1.60478e-04   3.25014e-05 DIIS
   @DF-RHF iter  12:  -282.81331288949281   -4.33206e-05   8.21204e-06 DIIS
   @DF-RHF iter  13:  -282.81332056973201   -7.68024e-06   3.84799e-06 DIIS
   @DF-RHF iter  14:  -282.81332276418055   -2.19445e-06   1.22421e-06 DIIS
   @DF-RHF iter  15:  -282.81332296779971   -2.03619e-07   3.06721e-07 DIIS
   @DF-RHF iter  16:  -282.81332297629166   -8.49195e-09   1.01249e-07 DIIS
   @DF-RHF iter  17:  -282.81332297694422   -6.52562e-10   4.82176e-08 DIIS
   @DF-RHF iter  18:  -282.81332297710532   -1.61094e-10   2.35490e-08 DIIS
   @DF-RHF iter  19:  -282.81332297715511   -4.97948e-11   7.06723e-09 DIIS

  ==> Post-Iterations <==

    Orbital Energies (a.u.)
    -----------------------

    Doubly Occupied:                                                      

       1A    -20.592716     2A    -20.591137     3A    -15.838418  
       4A    -11.301807     5A    -11.250588     6A     -1.637678  
       7A     -1.422128     8A     -1.126588     9A     -0.966666  
      10A     -0.839672    11A     -0.763704    12A     -0.739906  
      13A     -0.730222    14A     -0.659557    15A     -0.590397  
      16A     -0.560153    17A     -0.549411    18A     -0.488613  
      19A     -0.479350    20A     -0.454932  

    Virtual:                                                              

      21A      0.111085    22A      0.137602    23A      0.168711  
      24A      0.181828    25A      0.203687    26A      0.223251  
      27A      0.262895    28A      0.289822    29A      0.344991  
      30A      0.371303    31A      0.407123    32A      0.428460  
      33A      0.453269    34A      0.513702    35A      0.552332  
      36A      0.578673    37A      0.579819    38A      0.594027  
      39A      0.627914    40A      0.630884    41A      0.637238  
      42A      0.659518    43A      0.678136    44A      0.703627  
      45A      0.738289    46A      0.773966    47A      0.785625  
      48A      0.801542    49A      0.822720    50A      0.841730  
      51A      0.880983    52A      0.915911    53A      0.943821  
      54A      0.969362    55A      1.002421    56A      1.013756  
      57A      1.029668    58A      1.095854    59A      1.144319  
      60A      1.149799    61A      1.192153    62A      1.226651  
      63A      1.241944    64A      1.266003    65A      1.294129  
      66A      1.323898    67A      1.332455    68A      1.353765  
      69A      1.418088    70A      1.452531    71A      1.469693  
      72A      1.486987    73A      1.499192    74A      1.527416  
      75A      1.564510    76A      1.576964    77A      1.615937  
      78A      1.687304    79A      1.711156    80A      1.739604  
      81A      1.800444    82A      1.807346    83A      1.834910  
      84A      1.865150    85A      1.891894    86A      1.970082  
      87A      2.029152    88A      2.119367    89A      2.132175  
      90A      2.343783    91A      2.373723    92A      2.457525  
      93A      2.477528    94A      2.564539    95A      2.581916  
      96A      2.618152    97A      2.655171    98A      2.688352  
      99A      2.702802   100A      2.714025   101A      2.781835  
     102A      2.876246   103A      2.893060   104A      2.913573  
     105A      3.058137   106A      3.071872   107A      3.099613  
     108A      3.110248   109A      3.119580   110A      3.189460  
     111A      3.196348   112A      3.277347   113A      3.288476  
     114A      3.296802   115A      3.356028   116A      3.358095  
     117A      3.378492   118A      3.393450   119A      3.423802  
     120A      3.489566   121A      3.506404   122A      3.527801  
     123A      3.536341   124A      3.613165   125A      3.677666  
     126A      3.713866   127A      3.738600   128A      3.746888  
     129A      3.786803   130A      3.820718   131A      3.849345  
     132A      3.884377   133A      3.946201   134A      3.978831  
     135A      4.086941   136A      4.092514   137A      4.102011  
     138A      4.128165   139A      4.139234   140A      4.155881  
     141A      4.175784   142A      4.237411   143A      4.244707  
     144A      4.283268   145A      4.313208   146A      4.333371  
     147A      4.341634   148A      4.384770   149A      4.403991  
     150A      4.420401   151A      4.428484   152A      4.447743  
     153A      4.472540   154A      4.531629   155A      4.556452  
     156A      4.590609   157A      4.626915   158A      4.640666  
     159A      4.670319   160A      4.729756   161A      4.758957  
     162A      4.851290   163A      4.904925   164A      4.993893  
     165A      5.040232   166A      5.053443   167A      5.101020  
     168A      5.148852   169A      5.153158   170A      5.189626  
     171A      5.196987   172A      5.235044   173A      5.265042  
     174A      5.315352   175A      5.351432   176A      5.395329  
     177A      5.435037   178A      5.520322   179A      5.580267  
     180A      5.584562   181A      5.599638   182A      5.608483  
     183A      5.619673   184A      5.649381   185A      5.680509  
     186A      5.683282   187A      5.726310   188A      5.735148  
     189A      5.783005   190A      5.815585   191A      5.819851  
     192A      5.890191   193A      5.985312   194A      6.104515  
     195A      6.163497   196A      6.245393   197A      6.253487  
     198A      6.284295   199A      6.299297   200A      6.637915  
     201A      6.792092   202A      6.856020   203A      6.858052  
     204A      6.904012   205A      6.992366   206A      7.107612  
     207A      7.122480   208A      7.196793   209A      7.401706  
     210A      7.431516   211A      7.436213   212A      7.608215  
     213A      7.626346   214A      7.829043   215A      8.092497  
     216A      9.499149   217A     13.282917   218A     13.894588  
     219A     14.253546   220A     15.261739  

    Final Occupation by Irrep:
              A 
    DOCC [    20 ]

  Energy converged.

  @DF-RHF Final Energy:  -282.81332297715511

   => Energetics <=

    Nuclear Repulsion Energy =            186.8183569005330469
    One-Electron Energy =                -756.0960776678061848
    Two-Electron Energy =                 286.4643977901180278
    DFT Exchange-Correlation Energy =       0.0000000000000000
    Empirical Dispersion Energy =           0.0000000000000000
    PCM Polarization Energy =               0.0000000000000000
    EFP Energy =                            0.0000000000000000
    Total Energy =                       -282.8133229771551669

    Alert: EFP and PCM quantities not currently incorporated into SCF psivars.

Properties will be evaluated at   0.000000,   0.000000,   0.000000 Bohr
  ==> Properties <==


Properties computed using the SCF density matrix

  Nuclear Dipole Moment: (a.u.)
     X:     7.5451      Y:    -1.1569      Z:     0.3583

  Electronic Dipole Moment: (a.u.)
     X:    -6.0545      Y:     0.6791      Z:     0.0871

  Dipole Moment: (a.u.)
     X:     1.4906      Y:    -0.4778      Z:     0.4454     Total:     1.6274

  Dipole Moment: (Debye)
     X:     3.7887      Y:    -1.2145      Z:     1.1321     Total:     4.1365


  Saving occupied orbitals to File 180.

*** tstop() called on cx1-27-3-3 at Fri Sep  9 21:10:23 2016
Module time:
	user time   =      16.20 seconds =       0.27 minutes
	system time =       0.27 seconds =       0.00 minutes
	total time  =          5 seconds =       0.08 minutes
Total time:
	user time   =      16.20 seconds =       0.27 minutes
	system time =       0.27 seconds =       0.00 minutes
	total time  =          5 seconds =       0.08 minutes

*** tstart() called on cx1-27-3-3
*** at Fri Sep  9 21:10:23 2016


         ------------------------------------------------------------
                                   SCF GRAD                          
                          Rob Parrish, Justin Turney,                
                       Andy Simmonett, and Alex Sokolov              
         ------------------------------------------------------------

  ==> Geometry <==

    Molecular point group: c1
    Full point group: C1

    Geometry (in Angstrom), charge = 0, multiplicity = 1:

       Center              X                  Y                   Z               Mass       
    ------------   -----------------  -----------------  -----------------  -----------------
           H          2.828861144450    -0.345974492918     0.001612141093     1.007825032070
           C          1.876902144450     0.016860507082    -0.362920858907    12.000000000000
           C          0.776435144450    -0.473735492918     0.563621141093    12.000000000000
           H          1.728263144450    -0.356314492918    -1.366910858907     1.007825032070
           H          1.906321144450     1.097503507082    -0.385623858907     1.007825032070
           N         -0.539871855550     0.018534507082     0.072159141093    14.003074004780
           H          0.707261144450    -1.548039492918     0.573564141093     1.007825032070
           H          0.886319144450    -0.083254492918     1.560961141093     1.007825032070
           O         -1.207354855550    -0.741875492918    -0.544638858907    15.994914619560
           O         -0.818304855550     1.146298507082     0.306722141093    15.994914619560

  Nuclear repulsion =  186.818356900533047

  ==> Basis Set <==

  Basis Set: CC-PVTZ
    Number of shells: 80
    Number of basis function: 220
    Number of Cartesian functions: 250
    Spherical Harmonics?: true
    Max angular momentum: 3

  ==> DFJKGrad: Density-Fitted SCF Gradients <==

    Gradient:                    1
    J tasked:                  Yes
    K tasked:                  Yes
    wK tasked:                  No
    OpenMP threads:              4
    Integrals threads:           4
    Memory (MB):              1430
    Schwarz Cutoff:          0E+00
    Fitting Condition:       1E-12

   => Auxiliary Basis Set <=

  Basis Set: 
    Number of shells: 175
    Number of basis function: 545
    Number of Cartesian functions: 655
    Spherical Harmonics?: true
    Max angular momentum: 4


  -Total Gradient:
     Atom            X                  Y                   Z
    ------   -----------------  -----------------  -----------------
       1       -0.000014163048     0.000226377919     0.000134696590
       2       -0.000275870778    -0.001054830402    -0.000930695800
       3       -0.000254394294     0.000613360634     0.001149093421
       4       -0.000006146503     0.000145409386     0.000276204822
       5        0.000067430368     0.000416604796     0.000084722369
       6        0.000157019272     0.001153832382     0.001016632372
       7        0.000189841715    -0.000489860572    -0.000499032109
       8       -0.000119893614    -0.000416498208    -0.000426407996
       9        0.000362980510    -0.000498917444    -0.000250167785
      10       -0.000106803629    -0.000095478492    -0.000555045883


*** tstop() called on cx1-27-3-3 at Fri Sep  9 21:10:31 2016
Module time:
	user time   =      28.98 seconds =       0.48 minutes
	system time =       0.31 seconds =       0.01 minutes
	total time  =          8 seconds =       0.13 minutes
Total time:
	user time   =      45.21 seconds =       0.75 minutes
	system time =       0.58 seconds =       0.01 minutes
	total time  =         13 seconds =       0.22 minutes
CURRENT ENERGY: -282.8133229772

			-----------------------------------------
			 OPTKING 2.0: for geometry optimizations 
			  - R.A. King,  Bethel University        
			-----------------------------------------

	Internal coordinates to be generated automatically.
	Detected frag with atoms:  1 2 3 4 5 6 7 8 9 10
	---Fragment 1 Bond Connectivity---
	 1 : 2
	 2 : 1 3 4 5
	 3 : 2 6 7 8
	 4 : 2
	 5 : 2
	 6 : 3 9 10
	 7 : 3
	 8 : 3
	 9 : 6
	 10 : 6

	Assuming in current code that numbering for constraints corresponds to unified fragment.
	Frozen dihedral atom list: 
	     9     6     3     2
	---Fragment 1 Geometry and Gradient---
	 H           5.3457728310       -0.6537970406        0.0030465052
	 C           3.5468310312        0.0318617408       -0.6858210312
	 C           1.4672497830       -0.8952303410        1.0650895994
	 H           3.2659440286       -0.6733368088       -2.5830871714
	 H           3.6024248843        2.0739810583       -0.7287234836
	 N          -1.0202099538        0.0350251424        0.1363610146
	 H           1.3365298674       -2.9253706845        1.0838791463
	 H           1.6749004493       -0.1573281909        2.9497890607
	 O          -2.2815700222       -1.4019415063       -1.0292182847
	 O          -1.5463720702        2.1661902449        0.5796208456
	            -0.0000141630        0.0002263779        0.0001346966
	            -0.0002758708       -0.0010548304       -0.0009306958
	            -0.0002543943        0.0006133606        0.0011490934
	            -0.0000061465        0.0001454094        0.0002762048
	             0.0000674304        0.0004166048        0.0000847224
	             0.0001570193        0.0011538324        0.0010166324
	             0.0001898417       -0.0004898606       -0.0004990321
	            -0.0001198936       -0.0004164982       -0.0004264080
	             0.0003629805       -0.0004989174       -0.0002501678
	            -0.0001068036       -0.0000954785       -0.0005550459

	Previous optimization step data not found.  Starting new optimization.

	---Fragment 1 Intrafragment Coordinates---
	 - Coordinate -           - BOHR/RAD -       - ANG/DEG -
	 R(1,2)           =         2.044715	       1.082016
	 R(2,3)           =         2.872255	       1.519932
	 R(2,4)           =         2.043483	       1.081365
	 R(2,5)           =         2.043326	       1.081282
	 R(3,6)           =         2.813426	       1.488801
	 R(3,7)           =         2.034431	       1.076575
	 R(3,8)           =         2.034628	       1.076679
	 R(6,9)           =         2.239303	       1.184988
	 R(6,10)          =         2.239462	       1.185072
	 B(1,2,3)         =         1.900103	     108.867866
	 B(1,2,4)         =         1.894422	     108.542408
	 B(1,2,5)         =         1.894701	     108.558375
	 B(2,3,6)         =         1.909412	     109.401265
	 B(2,3,7)         =         1.954379	     111.977696
	 B(2,3,8)         =         1.953813	     111.945250
	 B(3,2,4)         =         1.933782	     110.797562
	 B(3,2,5)         =         1.933799	     110.798504
	 B(3,6,9)         =         2.046164	     117.236552
	 B(3,6,10)        =         2.045471	     117.196864
	 B(4,2,5)         =         1.906187	     109.216485
	 B(6,3,7)         =         1.850625	     106.032986
	 B(6,3,8)         =         1.850528	     106.027441
	 B(7,3,8)         =         1.938967	     111.094626
	 B(9,6,10)        =         2.191187	     125.545748
	 D(1,2,3,6)       =        -3.141044	    -179.968563
	 D(1,2,3,7)       =        -1.094621	     -62.717156
	 D(1,2,3,8)       =         1.096180	      62.806468
	*D(2,3,6,9)       =         1.745329	      99.999995
	 D(2,3,6,10)      =        -1.368909	     -78.432704
	 D(4,2,3,6)       =        -1.058972	     -60.674620
	 D(4,2,3,7)       =         0.987451	      56.576787
	 D(4,2,3,8)       =        -3.104934	    -177.899589
	 D(5,2,3,6)       =         1.059717	      60.717301
	 D(5,2,3,7)       =         3.106140	     177.968708
	 D(5,2,3,8)       =        -0.986245	     -56.507668
	 D(7,3,6,9)       =        -0.365355	     -20.933321
	 D(7,3,6,10)      =         2.803592	     160.633980
	 D(8,3,6,9)       =        -2.427903	    -139.108608
	 D(8,3,6,10)      =         0.741044	      42.458693

	Current energy   :      -282.8133229772

	Generating empirical Hessian (Schlegel '84) for each fragment.
	Taking RFO optimization step.
	Going to follow RFO solution 1.
	Using RFO vector 1.
	Norm of target step-size    0.19424
	Projected energy change by RFO approximation:         0.0007756324

	Back-transformation to cartesian coordinates...
	Successfully converged to displaced geometry.

	Back-transformation to cartesian coordinates to adjust frozen coordinates...
	Successfully converged to displaced geometry.

	--- Internal Coordinate Step in ANG or DEG, aJ/ANG or AJ/DEG ---
	 ---------------------------------------------------------------------------
	   Coordinate                Previous        Force       Change         New 
	   ----------                --------       ------       ------       ------
	    1 R(1,2)          =      1.082016     0.000354     0.000064     1.082080
	    2 R(2,3)          =      1.519932    -0.000112    -0.000024     1.519908
	    3 R(2,4)          =      1.081365     0.002519     0.000451     1.081816
	    4 R(2,5)          =      1.081282    -0.003431    -0.000615     1.080667
	    5 R(3,6)          =      1.488801     0.002061     0.000394     1.489195
	    6 R(3,7)          =      1.076575    -0.003889    -0.000686     1.075889
	    7 R(3,8)          =      1.076679     0.004599     0.000811     1.077490
	    8 R(6,9)          =      1.184988    -0.002026    -0.000115     1.184873
	    9 R(6,10)         =      1.185072     0.001447     0.000082     1.185155
	   10 B(1,2,3)        =    108.867866     0.000000     0.005962   108.873828
	   11 B(1,2,4)        =    108.542408    -0.000008    -0.092871   108.449536
	   12 B(1,2,5)        =    108.558375     0.000007     0.096356   108.654731
	   13 B(2,3,6)        =    109.401265     0.000048     0.191674   109.592939
	   14 B(2,3,7)        =    111.977696     0.000010     0.211913   112.189609
	   15 B(2,3,8)        =    111.945250    -0.000018    -0.172948   111.772302
	   16 B(3,2,4)        =    110.797562    -0.000002    -0.041871   110.755691
	   17 B(3,2,5)        =    110.798504     0.000005     0.050426   110.848930
	   18 B(3,6,9)        =    117.236552     0.000087     0.208391   117.444943
	   19 B(3,6,10)       =    117.196864    -0.000075    -0.277471   116.919393
	   20 B(4,2,5)        =    109.216485    -0.000002    -0.018151   109.198334
	   21 B(6,3,7)        =    106.032986    -0.000022     0.007607   106.040593
	   22 B(6,3,8)        =    106.027441    -0.000018    -0.139553   105.887888
	   23 B(7,3,8)        =    111.094626    -0.000001    -0.101841   110.992785
	   24 B(9,6,10)       =    125.545748    -0.000012    -0.089640   125.456108
	   25 D(1,2,3,6)      =   -179.968563     0.000001     0.438010  -179.530553
	   26 D(1,2,3,7)      =    -62.717156     0.000003     0.699197   -62.017959
	   27 D(1,2,3,8)      =     62.806468     0.000002     0.593541    63.400009
	   28 *D(2,3,6,9)     =     99.999995    -0.000000    -0.000000    99.999995
	   29 D(2,3,6,10)     =    -78.432704    -0.000002    -6.168212   -84.600916
	   30 D(4,2,3,6)      =    -60.674620    -0.000001     0.302382   -60.372238
	   31 D(4,2,3,7)      =     56.576787     0.000001     0.563568    57.140355
	   32 D(4,2,3,8)      =   -177.899589    -0.000001     0.457913  -177.441676
	   33 D(5,2,3,6)      =     60.717301    -0.000002     0.285172    61.002472
	   34 D(5,2,3,7)      =    177.968708     0.000001     0.546358   178.515066
	   35 D(5,2,3,8)      =    -56.507668    -0.000001     0.440703   -56.066966
	   36 D(7,3,6,9)      =    -20.933321    -0.000006    -0.362950   -21.296271
	   37 D(7,3,6,10)     =    160.633980    -0.000008    -6.531162   154.102818
	   38 D(8,3,6,9)      =   -139.108608    -0.000001    -0.183231  -139.291838
	   39 D(8,3,6,10)     =     42.458693    -0.000004    -6.351443    36.107251
	 ---------------------------------------------------------------------------

  ==> Convergence Check <==

  Measures of convergence in internal coordinates in au.
  Criteria marked as inactive (o), active & met (*), and active & unmet ( ).
  --------------------------------------------------------------------------------------------- ~
   Step     Total Energy     Delta E     MAX Force     RMS Force      MAX Disp      RMS Disp    ~
  --------------------------------------------------------------------------------------------- ~
    Convergence Criteria    1.00e-06 *    3.00e-04 *             o    1.20e-03 *             o  ~
  --------------------------------------------------------------------------------------------- ~
      1    -282.81332298   -2.83e+02      1.14e-03      3.34e-04 o    1.14e-01      3.11e-02 o  ~
  ---------------------------------------------------------------------------------------------

	Writing optimization data to binary file.
	Structure for next step:
	Cartesian Geometry (in Angstrom)
	    H     2.8332040478  -0.3572084191   0.0055538705
	    C     1.8866050057   0.0118716151  -0.3667732946
	    C     0.7762589473  -0.4637968229   0.5557187932
	    H     1.7413638235  -0.3681235817  -1.3691876144
	    H     1.9246658562   1.0914165882  -0.3980074764
	    N    -0.5363951698   0.0262169588   0.0512108941
	    H     0.7024567277  -1.5368024607   0.5830897459
	    H     0.8805355329  -0.0585920634   1.5486540998
	    O    -1.2050400233  -0.7362239809  -0.5615870167
	    O    -0.8588226816   1.1212451405   0.3698734415
			--------------------------
			 OPTKING Finished Execution 
			--------------------------

    Structure for next step:
    Molecular point group: c1
    Full point group: C1

    Geometry (in Angstrom), charge = 0, multiplicity = 1:

    H            2.838836784288    -0.355388725929     0.001675361996
    C            1.892237814426     0.013691280067    -0.370651774584
    C            0.781891840811    -0.461977121632     0.551840242766
    H            1.746996643289    -0.366303887702    -1.373066017928
    H            1.930298662053     1.093236170741    -0.401885954029
    N           -0.530762175992     0.028036622670     0.047332382115
    H            0.708089626904    -1.534982677430     0.579211193357
    H            0.886168418495    -0.056772393055     1.544775473449
    O           -1.199406978438    -0.734404258819    -0.565465481854
    O           -0.853189663202     1.123064720731     0.365994905241

gradient() will perform analytic gradient computation.

*** tstart() called on cx1-27-3-3
*** at Fri Sep  9 21:10:32 2016


         ---------------------------------------------------------
                                   SCF
            by Justin Turney, Rob Parrish, and Andy Simmonett
                              RHF Reference
                        4 Threads,   2000 MiB Core
         ---------------------------------------------------------

  ==> Geometry <==

    Molecular point group: c1
    Full point group: C1

    Geometry (in Angstrom), charge = 0, multiplicity = 1:

       Center              X                  Y                   Z               Mass       
    ------------   -----------------  -----------------  -----------------  -----------------
           H          2.838836784288    -0.355388725929     0.001675361996     1.007825032070
           C          1.892237814426     0.013691280067    -0.370651774584    12.000000000000
           C          0.781891840811    -0.461977121632     0.551840242766    12.000000000000
           H          1.746996643289    -0.366303887702    -1.373066017928     1.007825032070
           H          1.930298662053     1.093236170741    -0.401885954029     1.007825032070
           N         -0.530762175992     0.028036622670     0.047332382115    14.003074004780
           H          0.708089626904    -1.534982677430     0.579211193357     1.007825032070
           H          0.886168418495    -0.056772393055     1.544775473449     1.007825032070
           O         -1.199406978438    -0.734404258819    -0.565465481854    15.994914619560
           O         -0.853189663202     1.123064720731     0.365994905241    15.994914619560

  Running in c1 symmetry.

  Rotational constants: A =      0.32368  B =      0.14157  C =      0.11676 [cm^-1]
  Rotational constants: A =   9703.81393  B =   4244.04204  C =   3500.43383 [MHz]
  Nuclear repulsion =  186.595464397332023

  Charge       = 0
  Multiplicity = 1
  Electrons    = 40
  Nalpha       = 20
  Nbeta        = 20

  ==> Algorithm <==

  SCF Algorithm Type is DF.
  DIIS enabled.
  MOM disabled.
  Fractional occupation disabled.
  Guess Type is READ.
  Energy threshold   = 1.00e-08
  Density threshold  = 1.00e-08
  Integral threshold = 0.00e+00

  ==> Primary Basis <==

  Basis Set: CC-PVTZ
    Number of shells: 80
    Number of basis function: 220
    Number of Cartesian functions: 250
    Spherical Harmonics?: true
    Max angular momentum: 3

  ==> Pre-Iterations <==

   -------------------------------------------------------
    Irrep   Nso     Nmo     Nalpha   Nbeta   Ndocc  Nsocc
   -------------------------------------------------------
     A        220     220       0       0       0       0
   -------------------------------------------------------
    Total     220     220      20      20      20       0
   -------------------------------------------------------

 OEINTS: Overlap, kinetic, potential, dipole, and quadrupole integrals
         stored in file 35.

  ==> Integral Setup <==

  ==> DFJK: Density-Fitted J/K Matrices <==

    J tasked:                  Yes
    K tasked:                  Yes
    wK tasked:                  No
    OpenMP threads:              4
    Integrals threads:           4
    Memory (MB):              1430
    Algorithm:                Core
    Integral Cache:           NONE
    Schwarz Cutoff:          1E-12
    Fitting Condition:       1E-12

   => Auxiliary Basis Set <=

  Basis Set: 
    Number of shells: 175
    Number of basis function: 545
    Number of Cartesian functions: 655
    Spherical Harmonics?: true
    Max angular momentum: 4

  Minimum eigenvalue in the overlap matrix is 8.9702134021E-04.
  Using Symmetric Orthogonalization.
  SCF Guess: Reading in previously saved MOs, projecting if necessary.

  Using orbitals from previous SCF, no projection.
  Recomputing DOCC and SOCC from number of alpha and beta electrons from previous calculation.
              A 
    DOCC [    20 ]

  ==> Iterations <==

                           Total Energy        Delta E     RMS |[F,P]|

   @DF-RHF iter   0:  -282.79933908950630   -2.82799e+02   8.62947e-04 
   @DF-RHF iter   1:  -282.81174825612271   -1.24092e-02   1.27155e-04 
   @DF-RHF iter   2:  -282.81238284867669   -6.34593e-04   6.40402e-05 DIIS
   @DF-RHF iter   3:  -282.81249887096629   -1.16022e-04   3.65413e-05 DIIS
   @DF-RHF iter   4:  -282.81255128486487   -5.24139e-05   1.04513e-05 DIIS
   @DF-RHF iter   5:  -282.81255974898346   -8.46412e-06   5.94043e-06 DIIS
   @DF-RHF iter   6:  -282.81256495170879   -5.20273e-06   2.53907e-06 DIIS
   @DF-RHF iter   7:  -282.81256580051735   -8.48809e-07   9.89297e-07 DIIS
   @DF-RHF iter   8:  -282.81256584684513   -4.63278e-08   2.37424e-07 DIIS
   @DF-RHF iter   9:  -282.81256584997470   -3.12957e-09   8.38893e-08 DIIS
   @DF-RHF iter  10:  -282.81256585044184   -4.67139e-10   3.20594e-08 DIIS
   @DF-RHF iter  11:  -282.81256585053478   -9.29390e-11   1.12412e-08 DIIS
   @DF-RHF iter  12:  -282.81256585054871   -1.39266e-11   4.29974e-09 DIIS

  ==> Post-Iterations <==

    Orbital Energies (a.u.)
    -----------------------

    Doubly Occupied:                                                      

       1A    -20.592539     2A    -20.591037     3A    -15.838253  
       4A    -11.301723     5A    -11.250919     6A     -1.637663  
       7A     -1.421902     8A     -1.126611     9A     -0.966512  
      10A     -0.840559    11A     -0.763573    12A     -0.739593  
      13A     -0.729505    14A     -0.659786    15A     -0.591442  
      16A     -0.560197    17A     -0.550229    18A     -0.488112  
      19A     -0.479022    20A     -0.454596  

    Virtual:                                                              

      21A      0.108376    22A      0.140132    23A      0.169813  
      24A      0.181817    25A      0.203218    26A      0.222045  
      27A      0.263176    28A      0.285487    29A      0.344870  
      30A      0.370952    31A      0.407993    32A      0.427546  
      33A      0.450060    34A      0.515139    35A      0.553537  
      36A      0.579778    37A      0.581293    38A      0.594527  
      39A      0.628398    40A      0.630952    41A      0.636357  
      42A      0.660365    43A      0.677140    44A      0.704349  
      45A      0.737305    46A      0.775380    47A      0.782405  
      48A      0.804453    49A      0.823314    50A      0.834420  
      51A      0.878979    52A      0.918301    53A      0.947419  
      54A      0.968672    55A      0.999576    56A      1.010861  
      57A      1.024041    58A      1.095455    59A      1.142800  
      60A      1.151590    61A      1.201749    62A      1.225691  
      63A      1.241329    64A      1.265805    65A      1.294673  
      66A      1.323316    67A      1.333879    68A      1.352220  
      69A      1.409716    70A      1.449853    71A      1.470026  
      72A      1.491548    73A      1.499948    74A      1.521062  
      75A      1.562026    76A      1.572305    77A      1.616061  
      78A      1.684260    79A      1.708012    80A      1.737175  
      81A      1.802341    82A      1.810235    83A      1.832127  
      84A      1.865166    85A      1.898520    86A      1.978183  
      87A      2.025886    88A      2.121279    89A      2.133375  
      90A      2.346307    91A      2.369609    92A      2.463602  
      93A      2.473249    94A      2.561563    95A      2.580078  
      96A      2.623415    97A      2.646800    98A      2.681325  
      99A      2.702936   100A      2.716138   101A      2.774128  
     102A      2.875067   103A      2.895720   104A      2.914315  
     105A      3.059312   106A      3.078627   107A      3.097627  
     108A      3.109094   109A      3.117579   110A      3.185731  
     111A      3.198235   112A      3.273019   113A      3.287533  
     114A      3.294907   115A      3.355537   116A      3.359162  
     117A      3.379078   118A      3.390619   119A      3.421818  
     120A      3.490049   121A      3.502702   122A      3.526157  
     123A      3.536724   124A      3.614502   125A      3.675578  
     126A      3.715222   127A      3.737974   128A      3.746673  
     129A      3.788099   130A      3.820101   131A      3.853353  
     132A      3.882604   133A      3.950325   134A      3.976973  
     135A      4.084661   136A      4.096502   137A      4.099929  
     138A      4.121243   139A      4.140004   140A      4.155973  
     141A      4.175770   142A      4.237115   143A      4.247218  
     144A      4.284775   145A      4.313792   146A      4.329201  
     147A      4.342745   148A      4.382029   149A      4.400316  
     150A      4.418706   151A      4.429279   152A      4.442587  
     153A      4.481341   154A      4.528668   155A      4.555795  
     156A      4.589761   157A      4.621077   158A      4.632693  
     159A      4.669383   160A      4.732459   161A      4.770845  
     162A      4.846972   163A      4.904052   164A      4.987790  
     165A      5.037398   166A      5.052904   167A      5.102746  
     168A      5.137960   169A      5.150134   170A      5.189772  
     171A      5.196856   172A      5.238635   173A      5.261327  
     174A      5.320953   175A      5.357250   176A      5.396906  
     177A      5.426528   178A      5.519027   179A      5.578755  
     180A      5.582862   181A      5.600402   182A      5.607524  
     183A      5.618747   184A      5.653798   185A      5.681767  
     186A      5.682675   187A      5.728905   188A      5.738414  
     189A      5.783103   190A      5.814282   191A      5.816392  
     192A      5.890496   193A      5.977177   194A      6.108050  
     195A      6.176380   196A      6.245862   197A      6.252419  
     198A      6.282712   199A      6.293391   200A      6.636073  
     201A      6.792535   202A      6.857874   203A      6.860581  
     204A      6.901795   205A      6.994444   206A      7.103526  
     207A      7.122755   208A      7.195973   209A      7.401872  
     210A      7.431049   211A      7.437364   212A      7.610365  
     213A      7.624164   214A      7.828057   215A      8.087598  
     216A      9.491612   217A     13.282500   218A     13.881095  
     219A     14.249868   220A     15.255593  

    Final Occupation by Irrep:
              A 
    DOCC [    20 ]

  Energy converged.

  @DF-RHF Final Energy:  -282.81256585054871

   => Energetics <=

    Nuclear Repulsion Energy =            186.5954643973320231
    One-Electron Energy =                -755.6485158808702636
    Two-Electron Energy =                 286.2404856329895324
    DFT Exchange-Correlation Energy =       0.0000000000000000
    Empirical Dispersion Energy =           0.0000000000000000
    PCM Polarization Energy =               0.0000000000000000
    EFP Energy =                            0.0000000000000000
    Total Energy =                       -282.8125658505486513

    Alert: EFP and PCM quantities not currently incorporated into SCF psivars.

Properties will be evaluated at   0.000000,   0.000000,   0.000000 Bohr
  ==> Properties <==


Properties computed using the SCF density matrix

  Nuclear Dipole Moment: (a.u.)
     X:     7.5949      Y:    -1.1421      Z:     0.3277

  Electronic Dipole Moment: (a.u.)
     X:    -6.0787      Y:     0.6818      Z:     0.0782

  Dipole Moment: (a.u.)
     X:     1.5162      Y:    -0.4603      Z:     0.4059     Total:     1.6357

  Dipole Moment: (Debye)
     X:     3.8538      Y:    -1.1701      Z:     1.0316     Total:     4.1575


  Saving occupied orbitals to File 180.

*** tstop() called on cx1-27-3-3 at Fri Sep  9 21:10:36 2016
Module time:
	user time   =      14.45 seconds =       0.24 minutes
	system time =       0.19 seconds =       0.00 minutes
	total time  =          4 seconds =       0.07 minutes
Total time:
	user time   =      60.93 seconds =       1.02 minutes
	system time =       0.84 seconds =       0.01 minutes
	total time  =         18 seconds =       0.30 minutes

*** tstart() called on cx1-27-3-3
*** at Fri Sep  9 21:10:36 2016


         ------------------------------------------------------------
                                   SCF GRAD                          
                          Rob Parrish, Justin Turney,                
                       Andy Simmonett, and Alex Sokolov              
         ------------------------------------------------------------

  ==> Geometry <==

    Molecular point group: c1
    Full point group: C1

    Geometry (in Angstrom), charge = 0, multiplicity = 1:

       Center              X                  Y                   Z               Mass       
    ------------   -----------------  -----------------  -----------------  -----------------
           H          2.838836784288    -0.355388725929     0.001675361996     1.007825032070
           C          1.892237814426     0.013691280067    -0.370651774584    12.000000000000
           C          0.781891840811    -0.461977121632     0.551840242766    12.000000000000
           H          1.746996643289    -0.366303887702    -1.373066017928     1.007825032070
           H          1.930298662053     1.093236170741    -0.401885954029     1.007825032070
           N         -0.530762175992     0.028036622670     0.047332382115    14.003074004780
           H          0.708089626904    -1.534982677430     0.579211193357     1.007825032070
           H          0.886168418495    -0.056772393055     1.544775473449     1.007825032070
           O         -1.199406978438    -0.734404258819    -0.565465481854    15.994914619560
           O         -0.853189663202     1.123064720731     0.365994905241    15.994914619560

  Nuclear repulsion =  186.595464397332023

  ==> Basis Set <==

  Basis Set: CC-PVTZ
    Number of shells: 80
    Number of basis function: 220
    Number of Cartesian functions: 250
    Spherical Harmonics?: true
    Max angular momentum: 3

  ==> DFJKGrad: Density-Fitted SCF Gradients <==

    Gradient:                    1
    J tasked:                  Yes
    K tasked:                  Yes
    wK tasked:                  No
    OpenMP threads:              4
    Integrals threads:           4
    Memory (MB):              1430
    Schwarz Cutoff:          0E+00
    Fitting Condition:       1E-12

   => Auxiliary Basis Set <=

  Basis Set: 
    Number of shells: 175
    Number of basis function: 545
    Number of Cartesian functions: 655
    Spherical Harmonics?: true
    Max angular momentum: 4


  -Total Gradient:
     Atom            X                  Y                   Z
    ------   -----------------  -----------------  -----------------
       1       -0.000149897540    -0.000185764833     0.000213957925
       2       -0.000433802567     0.000804258309    -0.000559013316
       3       -0.003353940485    -0.001870986348     0.004757340180
       4       -0.000119082115    -0.000005964300     0.000082812251
       5        0.000024308070    -0.000209787898    -0.000021647411
       6        0.009075585454     0.007301373661    -0.017821307195
       7        0.000180063640     0.000007689097     0.000337788784
       8        0.000634784238    -0.000136549720     0.000533129085
       9       -0.003094168628    -0.002267883427     0.006300503082
      10       -0.002763850071    -0.003436384537     0.006176436613


*** tstop() called on cx1-27-3-3 at Fri Sep  9 21:10:44 2016
Module time:
	user time   =      29.00 seconds =       0.48 minutes
	system time =       0.33 seconds =       0.01 minutes
	total time  =          8 seconds =       0.13 minutes
Total time:
	user time   =      89.94 seconds =       1.50 minutes
	system time =       1.17 seconds =       0.02 minutes
	total time  =         26 seconds =       0.43 minutes
CURRENT ENERGY: -282.8125658505

			-----------------------------------------
			 OPTKING 2.0: for geometry optimizations 
			  - R.A. King,  Bethel University        
			-----------------------------------------

	Previous internal coordinate definitions found.
	---Fragment 1 Geometry and Gradient---
	 H           5.3646240583       -0.6715873627        0.0031659753
	 C           3.5758112476        0.0258727697       -0.7004303446
	 C           1.4775614447       -0.8730102395        1.0428269279
	 H           3.3013452109       -0.6922140292       -2.5947187363
	 H           3.6477358260        2.0659169613       -0.7594543898
	 N          -1.0029951543        0.0529815385        0.0894452394
	 H           1.3380954724       -2.9006968791        1.0945505285
	 H           1.6746156186       -0.1072842748        2.9192025816
	 O          -2.2665507111       -1.3878229200       -1.0685748983
	 O          -1.6122948029        2.1222847517        0.6916301369
	            -0.0001498975       -0.0001857648        0.0002139579
	            -0.0004338026        0.0008042583       -0.0005590133
	            -0.0033539405       -0.0018709863        0.0047573402
	            -0.0001190821       -0.0000059643        0.0000828123
	             0.0000243081       -0.0002097879       -0.0000216474
	             0.0090755855        0.0073013737       -0.0178213072
	             0.0001800636        0.0000076891        0.0003377888
	             0.0006347842       -0.0001365497        0.0005331291
	            -0.0030941686       -0.0022678834        0.0063005031
	            -0.0027638501       -0.0034363845        0.0061764366

	---Fragment 1 Intrafragment Coordinates---
	 - Coordinate -           - BOHR/RAD -       - ANG/DEG -
	 R(1,2)           =         2.044835	       1.082080
	 R(2,3)           =         2.872210	       1.519908
	 R(2,4)           =         2.044336	       1.081816
	 R(2,5)           =         2.042165	       1.080667
	 R(3,6)           =         2.814171	       1.489195
	 R(3,7)           =         2.033135	       1.075889
	 R(3,8)           =         2.036161	       1.077490
	 R(6,9)           =         2.239085	       1.184873
	 R(6,10)          =         2.239618	       1.185155
	 B(1,2,3)         =         1.900207	     108.873828
	 B(1,2,4)         =         1.892801	     108.449536
	 B(1,2,5)         =         1.896383	     108.654731
	 B(2,3,6)         =         1.912758	     109.592939
	 B(2,3,7)         =         1.958078	     112.189609
	 B(2,3,8)         =         1.950795	     111.772302
	 B(3,2,4)         =         1.933051	     110.755691
	 B(3,2,5)         =         1.934679	     110.848930
	 B(3,6,9)         =         2.049801	     117.444943
	 B(3,6,10)        =         2.040628	     116.919393
	 B(4,2,5)         =         1.905870	     109.198334
	 B(6,3,7)         =         1.850757	     106.040593
	 B(6,3,8)         =         1.848092	     105.887888
	 B(7,3,8)         =         1.937190	     110.992785
	 B(9,6,10)        =         2.189622	     125.456108
	 D(1,2,3,6)       =        -3.133399	    -179.530553
	 D(1,2,3,7)       =        -1.082418	     -62.017959
	 D(1,2,3,8)       =         1.106539	      63.400009
	*D(2,3,6,9)       =         1.745329	      99.999995
	 D(2,3,6,10)      =        -1.476565	     -84.600916
	 D(4,2,3,6)       =        -1.053694	     -60.372238
	 D(4,2,3,7)       =         0.997287	      57.140355
	 D(4,2,3,8)       =        -3.096941	    -177.441676
	 D(5,2,3,6)       =         1.064694	      61.002472
	 D(5,2,3,7)       =         3.115676	     178.515066
	 D(5,2,3,8)       =        -0.978553	     -56.066966
	 D(7,3,6,9)       =        -0.371690	     -21.296271
	 D(7,3,6,10)      =         2.689602	     154.102818
	 D(8,3,6,9)       =        -2.431101	    -139.291838
	 D(8,3,6,10)      =         0.630190	      36.107251

	Current energy   :      -282.8125658505

	Energy change for the previous step:
		Projected    :         0.0007756324
		Actual       :         0.0007571266

	Performing BFGS update.
	Previous computed or guess Hessian on step 1.
	Steps to be used in Hessian update: 1
	Taking RFO optimization step.
	Going to follow RFO solution 1.
	Using RFO vector 1.
	Norm of target step-size    0.16644
	Projected energy change by RFO approximation:        -0.0009620509

	Back-transformation to cartesian coordinates...
	Successfully converged to displaced geometry.

	Back-transformation to cartesian coordinates to adjust frozen coordinates...
	Successfully converged to displaced geometry.

	--- Internal Coordinate Step in ANG or DEG, aJ/ANG or AJ/DEG ---
	 ---------------------------------------------------------------------------
	   Coordinate                Previous        Force       Change         New 
	   ----------                --------       ------       ------       ------
	    1 R(1,2)          =      1.082080    -0.000048     0.000020     1.082100
	    2 R(2,3)          =      1.519908     0.001625     0.000024     1.519932
	    3 R(2,4)          =      1.081816     0.000483     0.000157     1.081973
	    4 R(2,5)          =      1.080667     0.001714    -0.000175     1.080492
	    5 R(3,6)          =      1.489195     0.004120     0.000202     1.489397
	    6 R(3,7)          =      1.075889     0.000094    -0.000225     1.075664
	    7 R(3,8)          =      1.077490    -0.004131     0.000201     1.077691
	    8 R(6,9)          =      1.184873     0.000437    -0.000036     1.184837
	    9 R(6,10)         =      1.185155     0.006281     0.000060     1.185215
	   10 B(1,2,3)        =    108.873828     0.000034     0.017913   108.891741
	   11 B(1,2,4)        =    108.449536    -0.000017    -0.034459   108.415077
	   12 B(1,2,5)        =    108.654731    -0.000012     0.025480   108.680211
	   13 B(2,3,6)        =    109.592939     0.000128     0.100029   109.692968
	   14 B(2,3,7)        =    112.189609     0.000110     0.241382   112.430991
	   15 B(2,3,8)        =    111.772302    -0.000147    -0.227907   111.544395
	   16 B(3,2,4)        =    110.755691     0.000010    -0.008966   110.746725
	   17 B(3,2,5)        =    110.848930    -0.000014     0.008992   110.857922
	   18 B(3,6,9)        =    117.444943     0.000001     0.139142   117.584085
	   19 B(3,6,10)       =    116.919393     0.000061    -0.004536   116.914857
	   20 B(4,2,5)        =    109.198334    -0.000002    -0.009186   109.189148
	   21 B(6,3,7)        =    106.040593    -0.000049     0.068002   106.108595
	   22 B(6,3,8)        =    105.887888    -0.000071    -0.166287   105.721601
	   23 B(7,3,8)        =    110.992785     0.000028    -0.021250   110.971535
	   24 B(9,6,10)       =    125.456108    -0.000024     0.034450   125.490557
	   25 D(1,2,3,6)      =   -179.530553    -0.000015    -0.082128  -179.612681
	   26 D(1,2,3,7)      =    -62.017959     0.000005     0.216794   -61.801165
	   27 D(1,2,3,8)      =     63.400009     0.000007     0.197421    63.597430
	   28 *D(2,3,6,9)     =     99.999995    -0.000000     0.000000    99.999995
	   29 D(2,3,6,10)     =    -84.600916     0.000112     5.714295   -78.886621
	   30 D(4,2,3,6)      =    -60.372238    -0.000014    -0.118649   -60.490887
	   31 D(4,2,3,7)      =     57.140355     0.000007     0.180274    57.320629
	   32 D(4,2,3,8)      =   -177.441676     0.000008     0.160901  -177.280775
	   33 D(5,2,3,6)      =     61.002472    -0.000015    -0.130268    60.872204
	   34 D(5,2,3,7)      =    178.515066     0.000006     0.168654   178.683720
	   35 D(5,2,3,8)      =    -56.066966     0.000007     0.149281   -55.917684
	   36 D(7,3,6,9)      =    -21.296271    -0.000040    -0.385509   -21.681779
	   37 D(7,3,6,10)     =    154.102818     0.000073     5.328786   159.431604
	   38 D(8,3,6,9)      =   -139.291838    -0.000034    -0.314173  -139.606011
	   39 D(8,3,6,10)     =     36.107251     0.000078     5.400121    41.507372
	 ---------------------------------------------------------------------------

  ==> Convergence Check <==

  Measures of convergence in internal coordinates in au.
  Criteria marked as inactive (o), active & met (*), and active & unmet ( ).
  ---------------------------------------------------------------------------------------------
   Step     Total Energy     Delta E     MAX Force     RMS Force      MAX Disp      RMS Disp   
  ---------------------------------------------------------------------------------------------
    Convergence Criteria    1.00e-06 *    3.00e-04 *             o    1.20e-03 *             o
  ---------------------------------------------------------------------------------------------
      2    -282.81256585    7.57e-04      6.42e-03      1.62e-03 o    9.97e-02      2.66e-02 o  ~
  ---------------------------------------------------------------------------------------------

	Writing optimization data to binary file.
	Structure for next step:
	Cartesian Geometry (in Angstrom)
	    H     2.8358914218  -0.3491736046  -0.0034417220
	    C     1.8855069790   0.0190886441  -0.3668882626
	    C     0.7820063794  -0.4721847494   0.5556784247
	    H     1.7374526255  -0.3512879507  -1.3726548804
	    H     1.9176704074   1.0989109628  -0.3872169726
	    N    -0.5366523239   0.0173000613   0.0659349084
	    H     0.7126496123  -1.5453900616   0.5774337390
	    H     0.8907143115  -0.0724485000   1.5505712620
	    O    -1.2076065824  -0.7389833372  -0.5518791150
	    O    -0.8164712318   1.1423681693   0.3122229780
			--------------------------
			 OPTKING Finished Execution 
			--------------------------

    Structure for next step:
    Molecular point group: c1
    Full point group: C1

    Geometry (in Angstrom), charge = 0, multiplicity = 1:

    H            2.832184209631    -0.349550427758     0.000249514362
    C            1.881799839373     0.018711792773    -0.363196998428
    C            0.778299324035    -0.472561563137     0.559369618408
    H            1.733745497207    -0.351664773765    -1.368963539482
    H            1.913963265383     1.098534029086    -0.383525706893
    N           -0.540359278495     0.016923210099     0.069626139439
    H            0.708942562227    -1.545766793447     0.581124931016
    H            0.887007247901    -0.072825344268     1.554262379703
    O           -1.211313485799    -0.739360130607    -0.548187836781
    O           -0.820178165075     1.141991232248     0.315914190303

gradient() will perform analytic gradient computation.

*** tstart() called on cx1-27-3-3
*** at Fri Sep  9 21:10:44 2016


         ---------------------------------------------------------
                                   SCF
            by Justin Turney, Rob Parrish, and Andy Simmonett
                              RHF Reference
                        4 Threads,   2000 MiB Core
         ---------------------------------------------------------

  ==> Geometry <==

    Molecular point group: c1
    Full point group: C1

    Geometry (in Angstrom), charge = 0, multiplicity = 1:

       Center              X                  Y                   Z               Mass       
    ------------   -----------------  -----------------  -----------------  -----------------
           H          2.832184209631    -0.349550427758     0.000249514362     1.007825032070
           C          1.881799839373     0.018711792773    -0.363196998428    12.000000000000
           C          0.778299324035    -0.472561563137     0.559369618408    12.000000000000
           H          1.733745497207    -0.351664773765    -1.368963539482     1.007825032070
           H          1.913963265383     1.098534029086    -0.383525706893     1.007825032070
           N         -0.540359278495     0.016923210099     0.069626139439    14.003074004780
           H          0.708942562227    -1.545766793447     0.581124931016     1.007825032070
           H          0.887007247901    -0.072825344268     1.554262379703     1.007825032070
           O         -1.211313485799    -0.739360130607    -0.548187836781    15.994914619560
           O         -0.820178165075     1.141991232248     0.315914190303    15.994914619560

  Running in c1 symmetry.

  Rotational constants: A =      0.32204  B =      0.14259  C =      0.11758 [cm^-1]
  Rotational constants: A =   9654.65781  B =   4274.59114  C =   3524.88079 [MHz]
  Nuclear repulsion =  186.729710150497226

  Charge       = 0
  Multiplicity = 1
  Electrons    = 40
  Nalpha       = 20
  Nbeta        = 20

  ==> Algorithm <==

  SCF Algorithm Type is DF.
  DIIS enabled.
  MOM disabled.
  Fractional occupation disabled.
  Guess Type is READ.
  Energy threshold   = 1.00e-08
  Density threshold  = 1.00e-08
  Integral threshold = 0.00e+00

  ==> Primary Basis <==

  Basis Set: CC-PVTZ
    Number of shells: 80
    Number of basis function: 220
    Number of Cartesian functions: 250
    Spherical Harmonics?: true
    Max angular momentum: 3

  ==> Pre-Iterations <==

   -------------------------------------------------------
    Irrep   Nso     Nmo     Nalpha   Nbeta   Ndocc  Nsocc
   -------------------------------------------------------
     A        220     220       0       0       0       0
   -------------------------------------------------------
    Total     220     220      20      20      20       0
   -------------------------------------------------------

 OEINTS: Overlap, kinetic, potential, dipole, and quadrupole integrals
         stored in file 35.

  ==> Integral Setup <==

  ==> DFJK: Density-Fitted J/K Matrices <==

    J tasked:                  Yes
    K tasked:                  Yes
    wK tasked:                  No
    OpenMP threads:              4
    Integrals threads:           4
    Memory (MB):              1430
    Algorithm:                Core
    Integral Cache:           NONE
    Schwarz Cutoff:          1E-12
    Fitting Condition:       1E-12

   => Auxiliary Basis Set <=

  Basis Set: 
    Number of shells: 175
    Number of basis function: 545
    Number of Cartesian functions: 655
    Spherical Harmonics?: true
    Max angular momentum: 4

  Minimum eigenvalue in the overlap matrix is 8.9708137659E-04.
  Using Symmetric Orthogonalization.
  SCF Guess: Reading in previously saved MOs, projecting if necessary.

  Using orbitals from previous SCF, no projection.
  Recomputing DOCC and SOCC from number of alpha and beta electrons from previous calculation.
              A 
    DOCC [    20 ]

  ==> Iterations <==

                           Total Energy        Delta E     RMS |[F,P]|

   @DF-RHF iter   0:  -282.80450273322231   -2.82805e+02   7.66386e-04 
   @DF-RHF iter   1:  -282.81272618777791   -8.22345e-03   1.06193e-04 
   @DF-RHF iter   2:  -282.81321006378016   -4.83876e-04   4.64174e-05 DIIS
   @DF-RHF iter   3:  -282.81329285688076   -8.27931e-05   3.06384e-05 DIIS
   @DF-RHF iter   4:  -282.81332345157227   -3.05947e-05   8.19989e-06 DIIS
   @DF-RHF iter   5:  -282.81332930590673   -5.85433e-06   4.92714e-06 DIIS
   @DF-RHF iter   6:  -282.81333269979478   -3.39389e-06   2.06906e-06 DIIS
   @DF-RHF iter   7:  -282.81333326597741   -5.66183e-07   7.87082e-07 DIIS
   @DF-RHF iter   8:  -282.81333329420704   -2.82296e-08   2.05418e-07 DIIS
   @DF-RHF iter   9:  -282.81333329655769   -2.35065e-09   6.45543e-08 DIIS
   @DF-RHF iter  10:  -282.81333329687527   -3.17584e-10   2.61716e-08 DIIS
   @DF-RHF iter  11:  -282.81333329693234   -5.70708e-11   9.08721e-09 DIIS

  ==> Post-Iterations <==

    Orbital Energies (a.u.)
    -----------------------

    Doubly Occupied:                                                      

       1A    -20.592864     2A    -20.590864     3A    -15.838403  
       4A    -11.301917     5A    -11.250786     6A     -1.637631  
       7A     -1.421976     8A     -1.126397     9A     -0.966914  
      10A     -0.839664    11A     -0.763545    12A     -0.739798  
      13A     -0.730110    14A     -0.659500    15A     -0.590733  
      16A     -0.560409    17A     -0.549237    18A     -0.488491  
      19A     -0.479409    20A     -0.454829  

    Virtual:                                                              

      21A      0.110818    22A      0.137869    23A      0.168788  
      24A      0.181775    25A      0.203536    26A      0.223055  
      27A      0.262855    28A      0.289615    29A      0.344966  
      30A      0.371235    31A      0.407318    32A      0.427865  
      33A      0.453162    34A      0.513436    35A      0.552709  
      36A      0.578723    37A      0.579901    38A      0.593649  
      39A      0.628057    40A      0.630948    41A      0.636813  
      42A      0.659793    43A      0.677599    44A      0.703063  
      45A      0.738460    46A      0.774217    47A      0.785916  
      48A      0.801721    49A      0.822470    50A      0.840938  
      51A      0.880808    52A      0.915918    53A      0.944901  
      54A      0.969510    55A      1.000685    56A      1.012636  
      57A      1.029862    58A      1.095779    59A      1.144445  
      60A      1.149481    61A      1.193151    62A      1.225634  
      63A      1.241823    64A      1.265960    65A      1.293905  
      66A      1.323465    67A      1.333046    68A      1.354437  
      69A      1.419485    70A      1.451405    71A      1.469601  
      72A      1.486748    73A      1.497692    74A      1.525731  
      75A      1.564610    76A      1.575719    77A      1.616351  
      78A      1.686794    79A      1.710902    80A      1.739251  
      81A      1.800783    82A      1.807419    83A      1.833132  
      84A      1.865800    85A      1.891997    86A      1.971854  
      87A      2.028997    88A      2.120404    89A      2.132359  
      90A      2.343786    91A      2.371966    92A      2.456948  
      93A      2.476576    94A      2.563524    95A      2.581740  
      96A      2.620015    97A      2.652287    98A      2.687743  
      99A      2.700905   100A      2.713938   101A      2.783102  
     102A      2.876462   103A      2.894657   104A      2.913700  
     105A      3.057895   106A      3.071817   107A      3.098911  
     108A      3.109559   109A      3.119259   110A      3.188125  
     111A      3.196120   112A      3.276616   113A      3.289165  
     114A      3.296288   115A      3.354775   116A      3.357359  
     117A      3.378989   118A      3.394436   119A      3.423904  
     120A      3.489518   121A      3.506450   122A      3.528292  
     123A      3.535839   124A      3.613098   125A      3.677266  
     126A      3.713278   127A      3.739105   128A      3.746931  
     129A      3.786487   130A      3.820814   131A      3.848693  
     132A      3.884510   133A      3.947389   134A      3.977410  
     135A      4.086261   136A      4.092448   137A      4.099793  
     138A      4.129127   139A      4.138980   140A      4.156871  
     141A      4.174521   142A      4.236289   143A      4.244504  
     144A      4.283289   145A      4.314438   146A      4.333658  
     147A      4.342332   148A      4.384141   149A      4.402061  
     150A      4.420630   151A      4.428621   152A      4.447543  
     153A      4.472638   154A      4.530747   155A      4.556825  
     156A      4.589695   157A      4.625944   158A      4.640596  
     159A      4.670506   160A      4.730177   161A      4.757370  
     162A      4.850610   163A      4.906871   164A      4.993518  
     165A      5.040043   166A      5.053275   167A      5.103150  
     168A      5.144979   169A      5.153356   170A      5.187565  
     171A      5.197005   172A      5.235950   173A      5.262627  
     174A      5.312060   175A      5.353818   176A      5.396521  
     177A      5.434878   178A      5.517648   179A      5.580515  
     180A      5.584402   181A      5.599375   182A      5.609040  
     183A      5.618078   184A      5.649431   185A      5.679138  
     186A      5.683517   187A      5.726681   188A      5.735152  
     189A      5.782543   190A      5.815641   191A      5.820009  
     192A      5.889170   193A      5.984279   194A      6.104054  
     195A      6.164728   196A      6.245934   197A      6.253528  
     198A      6.284295   199A      6.300102   200A      6.637714  
     201A      6.792357   202A      6.855272   203A      6.858592  
     204A      6.904177   205A      6.992769   206A      7.107665  
     207A      7.120208   208A      7.196652   209A      7.401525  
     210A      7.431245   211A      7.435927   212A      7.608965  
     213A      7.625640   214A      7.828857   215A      8.091002  
     216A      9.493173   217A     13.277010   218A     13.894268  
     219A     14.251704   220A     15.257446  

    Final Occupation by Irrep:
              A 
    DOCC [    20 ]

  Energy converged.

  @DF-RHF Final Energy:  -282.81333329693234

   => Energetics <=

    Nuclear Repulsion Energy =            186.7297101504972261
    One-Electron Energy =                -755.9191340207728445
    Two-Electron Energy =                 286.3760905733432764
    DFT Exchange-Correlation Energy =       0.0000000000000000
    Empirical Dispersion Energy =           0.0000000000000000
    PCM Polarization Energy =               0.0000000000000000
    EFP Energy =                            0.0000000000000000
    Total Energy =                       -282.8133332969323419

    Alert: EFP and PCM quantities not currently incorporated into SCF psivars.

Properties will be evaluated at   0.000000,   0.000000,   0.000000 Bohr
  ==> Properties <==


Properties computed using the SCF density matrix

  Nuclear Dipole Moment: (a.u.)
     X:     7.5627      Y:    -1.1430      Z:     0.3579

  Electronic Dipole Moment: (a.u.)
     X:    -6.0664      Y:     0.6663      Z:     0.0811

  Dipole Moment: (a.u.)
     X:     1.4963      Y:    -0.4767      Z:     0.4390     Total:     1.6306

  Dipole Moment: (Debye)
     X:     3.8031      Y:    -1.2118      Z:     1.1158     Total:     4.1445


  Saving occupied orbitals to File 180.

*** tstop() called on cx1-27-3-3 at Fri Sep  9 21:10:49 2016
Module time:
	user time   =      13.34 seconds =       0.22 minutes
	system time =       0.19 seconds =       0.00 minutes
	total time  =          5 seconds =       0.08 minutes
Total time:
	user time   =     103.95 seconds =       1.73 minutes
	system time =       1.38 seconds =       0.02 minutes
	total time  =         31 seconds =       0.52 minutes

*** tstart() called on cx1-27-3-3
*** at Fri Sep  9 21:10:49 2016


         ------------------------------------------------------------
                                   SCF GRAD                          
                          Rob Parrish, Justin Turney,                
                       Andy Simmonett, and Alex Sokolov              
         ------------------------------------------------------------

  ==> Geometry <==

    Molecular point group: c1
    Full point group: C1

    Geometry (in Angstrom), charge = 0, multiplicity = 1:

       Center              X                  Y                   Z               Mass       
    ------------   -----------------  -----------------  -----------------  -----------------
           H          2.832184209631    -0.349550427758     0.000249514362     1.007825032070
           C          1.881799839373     0.018711792773    -0.363196998428    12.000000000000
           C          0.778299324035    -0.472561563137     0.559369618408    12.000000000000
           H          1.733745497207    -0.351664773765    -1.368963539482     1.007825032070
           H          1.913963265383     1.098534029086    -0.383525706893     1.007825032070
           N         -0.540359278495     0.016923210099     0.069626139439    14.003074004780
           H          0.708942562227    -1.545766793447     0.581124931016     1.007825032070
           H          0.887007247901    -0.072825344268     1.554262379703     1.007825032070
           O         -1.211313485799    -0.739360130607    -0.548187836781    15.994914619560
           O         -0.820178165075     1.141991232248     0.315914190303    15.994914619560

  Nuclear repulsion =  186.729710150497226

  ==> Basis Set <==

  Basis Set: CC-PVTZ
    Number of shells: 80
    Number of basis function: 220
    Number of Cartesian functions: 250
    Spherical Harmonics?: true
    Max angular momentum: 3

  ==> DFJKGrad: Density-Fitted SCF Gradients <==

    Gradient:                    1
    J tasked:                  Yes
    K tasked:                  Yes
    wK tasked:                  No
    OpenMP threads:              4
    Integrals threads:           4
    Memory (MB):              1430
    Schwarz Cutoff:          0E+00
    Fitting Condition:       1E-12

   => Auxiliary Basis Set <=

  Basis Set: 
    Number of shells: 175
    Number of basis function: 545
    Number of Cartesian functions: 655
    Spherical Harmonics?: true
    Max angular momentum: 4


  -Total Gradient:
     Atom            X                  Y                   Z
    ------   -----------------  -----------------  -----------------
       1        0.000090321815     0.000021942591    -0.000074545742
       2        0.000383930308     0.000591490390     0.000415369543
       3       -0.000161566075    -0.000786841256    -0.000500451151
       4       -0.000146063656    -0.000068910730     0.000058566717
       5        0.000103764328    -0.000065885171    -0.000074585620
       6        0.000372571807     0.000263301314    -0.000097818174
       7       -0.000138648039     0.000246162541     0.000267739583
       8        0.000122837112     0.000259002304     0.000018333214
       9       -0.000666241199    -0.000024338583    -0.000089063634
      10        0.000039093593    -0.000435923400     0.000076455265


*** tstop() called on cx1-27-3-3 at Fri Sep  9 21:10:56 2016
Module time:
	user time   =      28.39 seconds =       0.47 minutes
	system time =       0.34 seconds =       0.01 minutes
	total time  =          7 seconds =       0.12 minutes
Total time:
	user time   =     132.36 seconds =       2.21 minutes
	system time =       1.72 seconds =       0.03 minutes
	total time  =         38 seconds =       0.63 minutes
CURRENT ENERGY: -282.8133332969

			-----------------------------------------
			 OPTKING 2.0: for geometry optimizations 
			  - R.A. King,  Bethel University        
			-----------------------------------------

	Previous internal coordinate definitions found.
	---Fragment 1 Geometry and Gradient---
	 H           5.3520525141       -0.6605545781        0.0004715138
	 C           3.5560863333        0.0353601638       -0.6863428593
	 C           1.4707725718       -0.8930119353        1.0570553858
	 H           3.2763041738       -0.6645501130       -2.5869661755
	 H           3.6168664000        2.0759284626       -0.7247585509
	 N          -1.0211310497        0.0319802324        0.1315743352
	 H           1.3397072866       -2.9210759049        1.0981669686
	 H           1.6762007764       -0.1376199562        2.9371302363
	 O          -2.2890507492       -1.3971881604       -1.0359248809
	 O          -1.5499121122        2.1580506751        0.5969913012
	             0.0000903218        0.0000219426       -0.0000745457
	             0.0003839303        0.0005914904        0.0004153695
	            -0.0001615661       -0.0007868413       -0.0005004512
	            -0.0001460637       -0.0000689107        0.0000585667
	             0.0001037643       -0.0000658852       -0.0000745856
	             0.0003725718        0.0002633013       -0.0000978182
	            -0.0001386480        0.0002461625        0.0002677396
	             0.0001228371        0.0002590023        0.0000183332
	            -0.0006662412       -0.0000243386       -0.0000890636
	             0.0000390936       -0.0004359234        0.0000764553

	---Fragment 1 Intrafragment Coordinates---
	 - Coordinate -           - BOHR/RAD -       - ANG/DEG -
	 R(1,2)           =         2.044873	       1.082100
	 R(2,3)           =         2.872254	       1.519932
	 R(2,4)           =         2.044632	       1.081973
	 R(2,5)           =         2.041835	       1.080492
	 R(3,6)           =         2.814553	       1.489397
	 R(3,7)           =         2.032710	       1.075664
	 R(3,8)           =         2.036541	       1.077691
	 R(6,9)           =         2.239017	       1.184837
	 R(6,10)          =         2.239732	       1.185215
	 B(1,2,3)         =         1.900519	     108.891741
	 B(1,2,4)         =         1.892200	     108.415077
	 B(1,2,5)         =         1.896828	     108.680211
	 B(2,3,6)         =         1.914503	     109.692968
	 B(2,3,7)         =         1.962291	     112.430991
	 B(2,3,8)         =         1.946817	     111.544395
	 B(3,2,4)         =         1.932895	     110.746725
	 B(3,2,5)         =         1.934836	     110.857922
	 B(3,6,9)         =         2.052229	     117.584085
	 B(3,6,10)        =         2.040549	     116.914857
	 B(4,2,5)         =         1.905710	     109.189148
	 B(6,3,7)         =         1.851944	     106.108595
	 B(6,3,8)         =         1.845190	     105.721601
	 B(7,3,8)         =         1.936819	     110.971535
	 B(9,6,10)        =         2.190223	     125.490557
	 D(1,2,3,6)       =        -3.134833	    -179.612681
	 D(1,2,3,7)       =        -1.078634	     -61.801165
	 D(1,2,3,8)       =         1.109985	      63.597430
	*D(2,3,6,9)       =         1.745329	      99.999995
	 D(2,3,6,10)      =        -1.376831	     -78.886621
	 D(4,2,3,6)       =        -1.055765	     -60.490887
	 D(4,2,3,7)       =         1.000434	      57.320629
	 D(4,2,3,8)       =        -3.094133	    -177.280775
	 D(5,2,3,6)       =         1.062420	      60.872204
	 D(5,2,3,7)       =         3.118619	     178.683720
	 D(5,2,3,8)       =        -0.975948	     -55.917684
	 D(7,3,6,9)       =        -0.378418	     -21.681779
	 D(7,3,6,10)      =         2.782606	     159.431604
	 D(8,3,6,9)       =        -2.436585	    -139.606011
	 D(8,3,6,10)      =         0.724440	      41.507372

	Current energy   :      -282.8133332969

	Energy change for the previous step:
		Projected    :        -0.0009620509
		Actual       :        -0.0007674464
	Energy ratio indicates good step: Trust radius increased to 1.000e+00.


	Performing BFGS update.
	Previous computed or guess Hessian on step 1.
	Steps to be used in Hessian update: 2 1
	Taking RFO optimization step.
	Going to follow RFO solution 1.
	Using RFO vector 1.
	Norm of target step-size    0.01559
	Projected energy change by RFO approximation:         0.0000047377

	Back-transformation to cartesian coordinates...
	Successfully converged to displaced geometry.

	Back-transformation to cartesian coordinates to adjust frozen coordinates...
	Successfully converged to displaced geometry.

	--- Internal Coordinate Step in ANG or DEG, aJ/ANG or AJ/DEG ---
	 ---------------------------------------------------------------------------
	   Coordinate                Previous        Force       Change         New 
	   ----------                --------       ------       ------       ------
	    1 R(1,2)          =      1.082100    -0.000386    -0.000049     1.082051
	    2 R(2,3)          =      1.519932    -0.002234    -0.000310     1.519622
	    3 R(2,4)          =      1.081973     0.000090    -0.000030     1.081943
	    4 R(2,5)          =      1.080492     0.000505     0.000101     1.080594
	    5 R(3,6)          =      1.489397    -0.001623    -0.000252     1.489145
	    6 R(3,7)          =      1.075664     0.001905     0.000272     1.075936
	    7 R(3,8)          =      1.077691    -0.001033    -0.000165     1.077526
	    8 R(6,9)          =      1.184837    -0.003619    -0.000123     1.184714
	    9 R(6,10)         =      1.185215     0.003354     0.000106     1.185321
	   10 B(1,2,3)        =    108.891741    -0.000013    -0.050547   108.841194
	   11 B(1,2,4)        =    108.415077    -0.000002     0.013983   108.429060
	   12 B(1,2,5)        =    108.680211     0.000010    -0.000841   108.679370
	   13 B(2,3,6)        =    109.692968    -0.000028    -0.092443   109.600525
	   14 B(2,3,7)        =    112.430991    -0.000009    -0.173964   112.257027
	   15 B(2,3,8)        =    111.544395     0.000018     0.178083   111.722478
	   16 B(3,2,4)        =    110.746725     0.000024     0.087448   110.834172
	   17 B(3,2,5)        =    110.857922    -0.000016    -0.057439   110.800483
	   18 B(3,6,9)        =    117.584085    -0.000053    -0.124837   117.459247
	   19 B(3,6,10)       =    116.914857     0.000029     0.068960   116.983817
	   20 B(4,2,5)        =    109.189148    -0.000002     0.007232   109.196380
	   21 B(6,3,7)        =    106.108595     0.000014    -0.032591   106.076003
	   22 B(6,3,8)        =    105.721601     0.000008     0.104426   105.826027
	   23 B(7,3,8)        =    110.971535    -0.000003     0.019574   110.991109
	   24 B(9,6,10)       =    125.490557     0.000025     0.053155   125.543713
	   25 D(1,2,3,6)      =   -179.612681    -0.000000    -0.033366  -179.646047
	   26 D(1,2,3,7)      =    -61.801165    -0.000002    -0.241922   -62.043087
	   27 D(1,2,3,8)      =     63.597430    -0.000001    -0.211305    63.386126
	   28 *D(2,3,6,9)     =     99.999995     0.000000     0.000000    99.999995
	   29 D(2,3,6,10)     =    -78.886621    -0.000000     0.135265   -78.751356
	   30 D(4,2,3,6)      =    -60.490887     0.000001     0.004925   -60.485962
	   31 D(4,2,3,7)      =     57.320629    -0.000001    -0.203632    57.116998
	   32 D(4,2,3,8)      =   -177.280775    -0.000000    -0.173014  -177.453789
	   33 D(5,2,3,6)      =     60.872204     0.000001     0.034427    60.906630
	   34 D(5,2,3,7)      =    178.683720    -0.000000    -0.174130   178.509590
	   35 D(5,2,3,8)      =    -55.917684     0.000001    -0.143512   -56.061197
	   36 D(7,3,6,9)      =    -21.681779     0.000004     0.279614   -21.402165
	   37 D(7,3,6,10)     =    159.431604     0.000004     0.414879   159.846484
	   38 D(8,3,6,9)      =   -139.606011     0.000002     0.222891  -139.383120
	   39 D(8,3,6,10)     =     41.507372     0.000002     0.358157    41.865529
	 ---------------------------------------------------------------------------

  ==> Convergence Check <==

  Measures of convergence in internal coordinates in au.
  Criteria marked as inactive (o), active & met (*), and active & unmet ( ).
  ---------------------------------------------------------------------------------------------
   Step     Total Energy     Delta E     MAX Force     RMS Force      MAX Disp      RMS Disp   
  ---------------------------------------------------------------------------------------------
    Convergence Criteria    1.00e-06 *    3.00e-04 *             o    1.20e-03 *             o
  ---------------------------------------------------------------------------------------------
      3    -282.81333330   -7.67e-04      7.02e-04      2.20e-04 o    7.24e-03      2.50e-03 o  ~
  ---------------------------------------------------------------------------------------------

	Writing optimization data to binary file.
	Structure for next step:
	Cartesian Geometry (in Angstrom)
	    H     2.8310183285  -0.3491308111   0.0004424995
	    C     1.8805908530   0.0185537306  -0.3633289604
	    C     0.7784253886  -0.4719932030   0.5607090213
	    H     1.7328218177  -0.3518938331  -1.3690795346
	    H     1.9120927014   1.0984995727  -0.3835094667
	    N    -0.5395504469   0.0178233261   0.0702271000
	    H     0.7094013727  -1.5455632671   0.5786410171
	    H     0.8871400809  -0.0755010241   1.5567196691
	    O    -1.2090161956  -0.7403789325  -0.5466129905
[...]
     162A      4.850651   163A      4.906269   164A      4.993504  
     165A      5.039992   166A      5.053320   167A      5.102417  
     168A      5.146376   169A      5.153368   170A      5.188137  
     171A      5.197115   172A      5.235778   173A      5.263216  
     174A      5.313462   175A      5.353105   176A      5.396130  
     177A      5.434877   178A      5.518689   179A      5.580483  
     180A      5.584400   181A      5.599400   182A      5.608929  
     183A      5.618798   184A      5.649635   185A      5.679771  
     186A      5.683492   187A      5.726856   188A      5.735216  
     189A      5.782777   190A      5.815235   191A      5.820598  
     192A      5.889768   193A      5.984695   194A      6.104429  
     195A      6.163904   196A      6.245929   197A      6.253490  
     198A      6.284301   199A      6.299836   200A      6.637770  
     201A      6.792158   202A      6.855547   203A      6.858430  
     204A      6.904136   205A      6.992458   206A      7.108054  
     207A      7.121506   208A      7.196466   209A      7.401609  
     210A      7.431179   211A      7.436177   212A      7.608409  
     213A      7.625627   214A      7.828981   215A      8.092286  
     216A      9.495762   217A     13.278902   218A     13.894092  
     219A     14.254427   220A     15.259154  

    Final Occupation by Irrep:
              A 
    DOCC [    20 ]

  Energy converged.

  @DF-RHF Final Energy:  -282.81333844655501

   => Energetics <=

    Nuclear Repulsion Energy =            186.7670494348049886
    One-Electron Energy =                -755.9933362662987975
    Two-Electron Energy =                 286.4129483849386588
    DFT Exchange-Correlation Energy =       0.0000000000000000
    Empirical Dispersion Energy =           0.0000000000000000
    PCM Polarization Energy =               0.0000000000000000
    EFP Energy =                            0.0000000000000000
    Total Energy =                       -282.8133384465551217

    Alert: EFP and PCM quantities not currently incorporated into SCF psivars.

Properties will be evaluated at   0.000000,   0.000000,   0.000000 Bohr
  ==> Properties <==


Properties computed using the SCF density matrix

  Nuclear Dipole Moment: (a.u.)
     X:     7.5562      Y:    -1.1471      Z:     0.3584

  Electronic Dipole Moment: (a.u.)
     X:    -6.0626      Y:     0.6698      Z:     0.0822

  Dipole Moment: (a.u.)
     X:     1.4936      Y:    -0.4773      Z:     0.4406     Total:     1.6287

  Dipole Moment: (Debye)
     X:     3.7963      Y:    -1.2133      Z:     1.1198     Total:     4.1398


  Saving occupied orbitals to File 180.

*** tstop() called on cx1-27-3-3 at Fri Sep  9 21:11:01 2016
Module time:
	user time   =      12.83 seconds =       0.21 minutes
	system time =       0.16 seconds =       0.00 minutes
	total time  =          5 seconds =       0.08 minutes
Total time:
	user time   =     145.62 seconds =       2.43 minutes
	system time =       1.89 seconds =       0.03 minutes
	total time  =         43 seconds =       0.72 minutes

*** tstart() called on cx1-27-3-3
*** at Fri Sep  9 21:11:01 2016


         ------------------------------------------------------------
                                   SCF GRAD                          
                          Rob Parrish, Justin Turney,                
                       Andy Simmonett, and Alex Sokolov              
         ------------------------------------------------------------

  ==> Geometry <==

    Molecular point group: c1
    Full point group: C1

    Geometry (in Angstrom), charge = 0, multiplicity = 1:

       Center              X                  Y                   Z               Mass       
    ------------   -----------------  -----------------  -----------------  -----------------
           H          2.830308964356    -0.349547637814     0.000536037624     1.007825032070
           C          1.879881561444     0.018136875804    -0.363235394547    12.000000000000
           C          0.777716181191    -0.472410020367     0.560802516682    12.000000000000
           H          1.732112537387    -0.352310659632    -1.368985891917     1.007825032070
           H          1.911383407341     1.098082635432    -0.383415899227     1.007825032070
           N         -0.540259553741     0.017406471296     0.070320632745    14.003074004780
           H          0.708692170567    -1.545980002474     0.578734511050     1.007825032070
           H          0.886430865145    -0.075917871798     1.556813088420     1.007825032070
           O         -1.209725251264    -0.740795729380    -0.546519410603    15.994914619560
           O         -0.819541345998     1.143598636009     0.312557882972    15.994914619560

  Nuclear repulsion =  186.767049434804989

  ==> Basis Set <==

  Basis Set: CC-PVTZ
    Number of shells: 80
    Number of basis function: 220
    Number of Cartesian functions: 250
    Spherical Harmonics?: true
    Max angular momentum: 3

  ==> DFJKGrad: Density-Fitted SCF Gradients <==

    Gradient:                    1
    J tasked:                  Yes
    K tasked:                  Yes
    wK tasked:                  No
    OpenMP threads:              4
    Integrals threads:           4
    Memory (MB):              1430
    Schwarz Cutoff:          0E+00
    Fitting Condition:       1E-12

   => Auxiliary Basis Set <=

  Basis Set: 
    Number of shells: 175
    Number of basis function: 545
    Number of Cartesian functions: 655
    Spherical Harmonics?: true
    Max angular momentum: 4


  -Total Gradient:
     Atom            X                  Y                   Z
    ------   -----------------  -----------------  -----------------
       1       -0.000012836176     0.000003342115     0.000007541006
       2        0.000028638144     0.000053028338     0.000000684259
       3       -0.000036701919    -0.000111279081    -0.000012377278
       4        0.000005023839     0.000002706925    -0.000022448083
       5       -0.000013299700    -0.000017569067     0.000020611365
       6        0.000067655354     0.000306922022    -0.000025583427
       7       -0.000003325791     0.000038663909    -0.000004463453
       8       -0.000007862788     0.000016962141     0.000025935392
       9       -0.000106382540    -0.000183995022    -0.000004491041
      10        0.000079091577    -0.000108782278     0.000014591258


*** tstop() called on cx1-27-3-3 at Fri Sep  9 21:11:09 2016
Module time:
	user time   =      30.38 seconds =       0.51 minutes
	system time =       0.30 seconds =       0.01 minutes
	total time  =          8 seconds =       0.13 minutes
Total time:
	user time   =     176.03 seconds =       2.93 minutes
	system time =       2.19 seconds =       0.04 minutes
	total time  =         51 seconds =       0.85 minutes
CURRENT ENERGY: -282.8133384466

			-----------------------------------------
			 OPTKING 2.0: for geometry optimizations 
			  - R.A. King,  Bethel University        
			-----------------------------------------

	Previous internal coordinate definitions found.
	---Fragment 1 Geometry and Gradient---
	 H           5.3485088141       -0.6605493059        0.0010129643
	 C           3.5524613134        0.0342737282       -0.6864154175
	 C           1.4696705916       -0.8927255609        1.0597631712
	 H           3.2732183270       -0.6657706604       -2.5870084155
	 H           3.6119911748        2.0750754522       -0.7245510445
	 N          -1.0209425972        0.0328934637        0.1328867374
	 H           1.3392341149       -2.9214788116        1.0936497295
	 H           1.6751115709       -0.1434639863        2.9419503772
	 O          -2.2860494209       -1.3999010489       -1.0327720123
	 O          -1.5487086985        2.1610882280        0.5906487995
	            -0.0000128362        0.0000033421        0.0000075410
	             0.0000286381        0.0000530283        0.0000006843
	            -0.0000367019       -0.0001112791       -0.0000123773
	             0.0000050238        0.0000027069       -0.0000224481
	            -0.0000132997       -0.0000175691        0.0000206114
	             0.0000676554        0.0003069220       -0.0000255834
	            -0.0000033258        0.0000386639       -0.0000044635
	            -0.0000078628        0.0000169621        0.0000259354
	            -0.0001063825       -0.0001839950       -0.0000044910
	             0.0000790916       -0.0001087823        0.0000145913

	---Fragment 1 Intrafragment Coordinates---
	 - Coordinate -           - BOHR/RAD -       - ANG/DEG -
	 R(1,2)           =         2.044780	       1.082051
	 R(2,3)           =         2.871669	       1.519622
	 R(2,4)           =         2.044576	       1.081943
	 R(2,5)           =         2.042026	       1.080594
	 R(3,6)           =         2.814076	       1.489145
	 R(3,7)           =         2.033224	       1.075936
	 R(3,8)           =         2.036229	       1.077526
	 R(6,9)           =         2.238784	       1.184714
	 R(6,10)          =         2.239932	       1.185321
	 B(1,2,3)         =         1.899637	     108.841194
	 B(1,2,4)         =         1.892444	     108.429060
	 B(1,2,5)         =         1.896813	     108.679370
	 B(2,3,6)         =         1.912890	     109.600525
	 B(2,3,7)         =         1.959255	     112.257027
	 B(2,3,8)         =         1.949925	     111.722478
	 B(3,2,4)         =         1.934421	     110.834172
	 B(3,2,5)         =         1.933833	     110.800483
	 B(3,6,9)         =         2.050051	     117.459247
	 B(3,6,10)        =         2.041753	     116.983817
	 B(4,2,5)         =         1.905836	     109.196380
	 B(6,3,7)         =         1.851376	     106.076003
	 B(6,3,8)         =         1.847013	     105.826027
	 B(7,3,8)         =         1.937160	     110.991109
	 B(9,6,10)        =         2.191151	     125.543713
	 D(1,2,3,6)       =        -3.135415	    -179.646047
	 D(1,2,3,7)       =        -1.082856	     -62.043087
	 D(1,2,3,8)       =         1.106297	      63.386126
	*D(2,3,6,9)       =         1.745329	      99.999995
	 D(2,3,6,10)      =        -1.374470	     -78.751356
	 D(4,2,3,6)       =        -1.055679	     -60.485962
	 D(4,2,3,7)       =         0.996880	      57.116998
	 D(4,2,3,8)       =        -3.097153	    -177.453789
	 D(5,2,3,6)       =         1.063021	      60.906630
	 D(5,2,3,7)       =         3.115580	     178.509590
	 D(5,2,3,8)       =        -0.978452	     -56.061197
	 D(7,3,6,9)       =        -0.373538	     -21.402165
	 D(7,3,6,10)      =         2.789847	     159.846484
	 D(8,3,6,9)       =        -2.432694	    -139.383120
	 D(8,3,6,10)      =         0.730691	      41.865529

	Current energy   :      -282.8133384466

	Energy change for the previous step:
		Projected    :         0.0000047377
		Actual       :        -0.0000051496

	Performing BFGS update.
	Previous computed or guess Hessian on step 1.
	Steps to be used in Hessian update: 3 2
	Taking RFO optimization step.
	Going to follow RFO solution 1.
	Using RFO vector 1.
	Norm of target step-size    0.00189
	Projected energy change by RFO approximation:        -0.0000004014

	Back-transformation to cartesian coordinates...
	Successfully converged to displaced geometry.

	Back-transformation to cartesian coordinates to adjust frozen coordinates...
	Successfully converged to displaced geometry.

	--- Internal Coordinate Step in ANG or DEG, aJ/ANG or AJ/DEG ---
	 ---------------------------------------------------------------------------
	   Coordinate                Previous        Force       Change         New 
	   ----------                --------       ------       ------       ------
	    1 R(1,2)          =      1.082051     0.000081     0.000014     1.082064
	    2 R(2,3)          =      1.519622    -0.000123    -0.000031     1.519591
	    3 R(2,4)          =      1.081943    -0.000159    -0.000030     1.081914
	    4 R(2,5)          =      1.080594     0.000151     0.000029     1.080623
	    5 R(3,6)          =      1.489145     0.000214     0.000035     1.489180
	    6 R(3,7)          =      1.075936     0.000317     0.000060     1.075997
	    7 R(3,8)          =      1.077526    -0.000242    -0.000045     1.077481
	    8 R(6,9)          =      1.184714    -0.001485    -0.000085     1.184628
	    9 R(6,10)         =      1.185321     0.000981     0.000056     1.185377
	   10 B(1,2,3)        =    108.841194     0.000001     0.004270   108.845464
	   11 B(1,2,4)        =    108.429060    -0.000000    -0.004657   108.424403
	   12 B(1,2,5)        =    108.679370    -0.000001     0.000789   108.680159
	   13 B(2,3,6)        =    109.600525     0.000000     0.000121   109.600646
	   14 B(2,3,7)        =    112.257027    -0.000000    -0.004621   112.252405
	   15 B(2,3,8)        =    111.722478    -0.000001    -0.001125   111.721353
	   16 B(3,2,4)        =    110.834172    -0.000002    -0.011800   110.822372
	   17 B(3,2,5)        =    110.800483     0.000003     0.014388   110.814871
	   18 B(3,6,9)        =    117.459247     0.000003     0.005320   117.464568
	   19 B(3,6,10)       =    116.983817     0.000004     0.013542   116.997359
	   20 B(4,2,5)        =    109.196380    -0.000000    -0.003141   109.193239
	   21 B(6,3,7)        =    106.076003     0.000000     0.003304   106.079307
	   22 B(6,3,8)        =    105.826027     0.000000     0.006509   105.832535
	   23 B(7,3,8)        =    110.991109    -0.000000    -0.003211   110.987898
	   24 B(9,6,10)       =    125.543713    -0.000007    -0.018990   125.524723
	   25 D(1,2,3,6)      =   -179.646047     0.000000    -0.023528  -179.669575
	   26 D(1,2,3,7)      =    -62.043087     0.000000    -0.022187   -62.065275
	   27 D(1,2,3,8)      =     63.386126     0.000000    -0.030955    63.355171
	   28 *D(2,3,6,9)     =     99.999995    -0.000000    -0.000000    99.999995
	   29 D(2,3,6,10)     =    -78.751356     0.000000     0.006276   -78.745080
	   30 D(4,2,3,6)      =    -60.485962    -0.000000    -0.033690   -60.519652
	   31 D(4,2,3,7)      =     57.116998     0.000000    -0.032349    57.084649
	   32 D(4,2,3,8)      =   -177.453789    -0.000000    -0.041117  -177.494905
	   33 D(5,2,3,6)      =     60.906630    -0.000000    -0.035911    60.870719
	   34 D(5,2,3,7)      =    178.509590    -0.000000    -0.034570   178.475020
	   35 D(5,2,3,8)      =    -56.061197    -0.000000    -0.043338   -56.104534
	   36 D(7,3,6,9)      =    -21.402165    -0.000000     0.003509   -21.398656
	   37 D(7,3,6,10)     =    159.846484     0.000000     0.009785   159.856269
	   38 D(8,3,6,9)      =   -139.383120    -0.000000     0.002510  -139.380610
	   39 D(8,3,6,10)     =     41.865529     0.000000     0.008786    41.874315
	 ---------------------------------------------------------------------------

  ==> Convergence Check <==

  Measures of convergence in internal coordinates in au.
  Criteria marked as inactive (o), active & met (*), and active & unmet ( ).
  ---------------------------------------------------------------------------------------------
   Step     Total Energy     Delta E     MAX Force     RMS Force      MAX Disp      RMS Disp   
  ---------------------------------------------------------------------------------------------
    Convergence Criteria    1.00e-06 *    3.00e-04 *             o    1.20e-03 *             o
  ---------------------------------------------------------------------------------------------
      4    -282.81333845   -5.15e-06      1.80e-04 *    4.11e-05 o    7.56e-04 *    3.03e-04 o  ~
  ---------------------------------------------------------------------------------------------


  **** Optimization is complete! (in 4 steps) ****

  ==> Optimization Summary <==

  Measures of convergence in internal coordinates in au.
  --------------------------------------------------------------------------------------------------------------- ~
   Step         Total Energy             Delta E       MAX Force       RMS Force        MAX Disp        RMS Disp  ~
  --------------------------------------------------------------------------------------------------------------- ~
      1    -282.813322977155   -282.813322977155      0.00114127      0.00033407      0.11399028      0.03108972  ~
      2    -282.812565850549      0.000757126606      0.00642458      0.00162380      0.09973326      0.02664112  ~
      3    -282.813333296932     -0.000767446384      0.00070239      0.00022033      0.00724101      0.00249610  ~
      4    -282.813338446555     -0.000005149623      0.00018021      0.00004107      0.00075638      0.00030310  ~
  --------------------------------------------------------------------------------------------------------------- ~

	Writing optimization data to binary file.
	Final energy is   -282.8133384465550
	Final (previous) structure:
	Cartesian Geometry (in Angstrom)
	    H     2.8303091805  -0.3495476645   0.0005360377
	    C     1.8798817050   0.0181368772  -0.3632354223
	    C     0.7777162406  -0.4724100564   0.5608025595
	    H     1.7321126697  -0.3523106865  -1.3689859965
	    H     1.9113835533   1.0980827193  -0.3834159285
	    N    -0.5402595950   0.0174064726   0.0703206381
	    H     0.7086922247  -1.5459801205   0.5787345552
	    H     0.8864309328  -0.0759178776   1.5568132073
	    O    -1.2097253436  -0.7407957859  -0.5465194523
	    O    -0.8195414086   1.1435987233   0.3125579068
	Saving final (previous) structure.
			--------------------------
			 OPTKING Finished Execution 
			--------------------------

    Final optimized geometry and variables:
    Molecular point group: c1
    Full point group: C1

    Geometry (in Angstrom), charge = 0, multiplicity = 1:

    H            2.830308964356    -0.349547637814     0.000536037624
    C            1.879881561444     0.018136875804    -0.363235394547
    C            0.777716181191    -0.472410020367     0.560802516682
    H            1.732112537387    -0.352310659632    -1.368985891917
    H            1.911383407341     1.098082635432    -0.383415899227
    N           -0.540259553741     0.017406471296     0.070320632745
    H            0.708692170567    -1.545980002474     0.578734511050
    H            0.886430865145    -0.075917871798     1.556813088420
    O           -1.209725251264    -0.740795729380    -0.546519410603
    O           -0.819541345998     1.143598636009     0.312557882972

	Cleaning optimization helper files.


Properties will be evaluated at   0.000000,   0.000000,   0.000000 Bohr

Properties computed using the  density matrix

  Nuclear Dipole Moment: (a.u.)
     X:     7.5562      Y:    -1.1471      Z:     0.3584

  Electronic Dipole Moment: (a.u.)
     X:    -6.0626      Y:     0.6698      Z:     0.0822

  Dipole Moment: (a.u.)
     X:     1.4936      Y:    -0.4773      Z:     0.4406     Total:     1.6287

  Dipole Moment: (Debye)
     X:     3.7963      Y:    -1.2133      Z:     1.1198     Total:     4.1398

  Quadrupole Moment: (Debye Ang)
    XX:   -30.3615     YY:   -32.0261     ZZ:   -28.5096
    XY:    -0.2467     XZ:    -0.7657     YZ:    -1.9478

  Traceless Quadrupole Moment: (Debye Ang)
    XX:    -0.0625     YY:    -1.7270     ZZ:     1.7894
    XY:    -0.2467     XZ:    -0.7657     YZ:    -1.9478

  Mulliken Charges: (a.u.)
   Center  Symbol    Alpha    Beta     Spin     Total
       1     H     0.44797  0.44797  0.00000  0.10406
       2     C     3.14086  3.14086  0.00000 -0.28173
       3     C     3.03745  3.03745  0.00000 -0.07491
       4     H     0.44248  0.44248  0.00000  0.11504
       5     H     0.43916  0.43916  0.00000  0.12168
       6     N     3.27664  3.27664  0.00000  0.44671
       7     H     0.43389  0.43389  0.00000  0.13222
       8     H     0.43577  0.43577  0.00000  0.12846
       9     O     4.17121  4.17121  0.00000 -0.34243
      10     O     4.17455  4.17455  0.00000 -0.34910

   Total alpha = 20.00000, Total beta = 20.00000, Total charge =  0.00000


*** PSI4 exiting successfully. Buy a developer a beer!
