    -----------------------------------------------------------------------
          Psi4: An Open-Source Ab Initio Electronic Structure Package
                              Psi4 (no tag) Driver

                          Git: Rev {detached?}  

    J. M. Turney, A. C. Simmonett, R. M. Parrish, E. G. Hohenstein,
    F. A. Evangelista, J. T. Fermann, B. J. Mintz, L. A. Burns, J. J. Wilke,
    M. L. Abrams, N. J. Russ, M. L. Leininger, C. L. Janssen, E. T. Seidl,
    W. D. Allen, H. F. Schaefer, R. A. King, E. F. Valeev, C. D. Sherrill,
    and T. D. Crawford, WIREs Comput. Mol. Sci. 2, 556-565 (2012)
    (doi: 10.1002/wcms.93)

                         Additional Contributions by
    A. E. DePrince, M. Saitow, U. Bozkaya, A. Yu. Sokolov
    -----------------------------------------------------------------------


    Psi4 started on: Thu Sep  1 23:37:53 2016

    Process ID:  23115
    PSI4DATADIR: /export131/home/mjharvey/miniconda3/share
    Memory level set to 256.000 MB

  ==> Input File <==

--------------------------------------------------------------------------
set {
	reference rhf
	basis 6-31G*
}


set_num_threads( 1 )
memory 2 gb

molecule MOL {
0 1

H	 1.541107	 2.393291	 -2.881630
O	 2.429643	 2.071278	 -2.925016
C	 2.997600	 2.073988	 -1.639920
C	 2.445178	 0.977207	 -0.736246
H	 4.059676	 1.925772	 -1.787234
H	 2.869546	 3.047843	 -1.168763
C	 0.953501	 1.120333	 -0.424346
H	 2.628565	 0.015875	 -1.209086
H	 3.011585	 0.986662	 0.193518
C	 0.441780	 0.035811	 0.527900
H	 0.389584	 1.083951	 -1.352268
H	 0.768240	 2.099667	 0.017155
C	 -1.027319	 0.182458	 0.940919
H	 0.591477	 -0.940996	 0.071517
H	 1.054791	 0.047087	 1.426672
C	 -2.037799	 -0.007733	 -0.193645
H	 -1.238114	 -0.548317	 1.718961
H	 -1.176605	 1.160042	 1.396860
C	 -3.489788	 0.042957	 0.286558
H	 -1.854762	 -0.964450	 -0.680781
H	 -1.893172	 0.754610	 -0.955365
C	 -4.216917	 1.317354	 -0.141063
H	 -4.025645	 -0.823308	 -0.095450
H	 -3.513059	 -0.038752	 1.371301
H	 -4.239342	 1.411634	 -1.223113
H	 -5.243387	 1.322503	 0.212445
H	 -3.726170	 2.201406	 0.256408

	symmetry c1
}
set optking {
	frozen_dihedral = ("
		14 10 7 4,
		14 10 13 16,
		10 7 4 8,
		8 4 3 2,
		10 13 16 20,
		4 3 2 1
	")
}

ee = energy('scf')
oeprop('DIPOLE', 'QUADRUPOLE', 'MULLIKEN_CHARGES')
f=open( 'psi4out.xyz', 'w' )
f.write( "27  " )
f.write( str(ee) + "\n" )
f.write( MOL.save_string_xyz() )
f.close()
--------------------------------------------------------------------------

  Memory set to   2.000 GiB by Python script.

*** tstart() called on cx1-3-15-4.cx1.hpc.ic.ac.uk
*** at Thu Sep  1 23:37:53 2016


         ---------------------------------------------------------
                                   SCF
            by Justin Turney, Rob Parrish, and Andy Simmonett
                              RHF Reference
                        1 Threads,   2000 MiB Core
         ---------------------------------------------------------

  ==> Geometry <==

    Molecular point group: c1
    Full point group: C1

    Geometry (in Angstrom), charge = 0, multiplicity = 1:

       Center              X                  Y                   Z               Mass       
    ------------   -----------------  -----------------  -----------------  -----------------
           H          1.682629487587     1.491991017706    -2.358568253654     1.007825032070
           O          2.571165487587     1.169978017706    -2.401954253654    15.994914619560
           C          3.139122487587     1.172688017706    -1.116858253654    12.000000000000
           C          2.586700487587     0.075907017706    -0.213184253654    12.000000000000
           H          4.201198487587     1.024472017706    -1.264172253654     1.007825032070
           H          3.011068487587     2.146543017706    -0.645701253654     1.007825032070
           C          1.095023487587     0.219033017706     0.098715746346    12.000000000000
           H          2.770087487587    -0.885424982294    -0.686024253654     1.007825032070
           H          3.153107487587     0.085362017706     0.716579746346     1.007825032070
           C          0.583302487587    -0.865488982294     1.050961746346    12.000000000000
           H          0.531106487587     0.182651017706    -0.829206253654     1.007825032070
           H          0.909762487587     1.198367017706     0.540216746346     1.007825032070
           C         -0.885796512413    -0.718841982294     1.463980746346    12.000000000000
           H          0.732999487587    -1.842295982294     0.594578746346     1.007825032070
           H          1.196313487587    -0.854212982294     1.949733746346     1.007825032070
           C         -1.896276512413    -0.909032982294     0.329416746346    12.000000000000
           H         -1.096591512413    -1.449616982294     2.242022746346     1.007825032070
           H         -1.035082512413     0.258742017706     1.919921746346     1.007825032070
           C         -3.348265512413    -0.858342982294     0.809619746346    12.000000000000
           H         -1.713239512413    -1.865749982294    -0.157719253654     1.007825032070
           H         -1.751649512413    -0.146689982294    -0.432303253654     1.007825032070
           C         -4.075394512413     0.416054017706     0.381998746346    12.000000000000
           H         -3.884122512413    -1.724607982294     0.427611746346     1.007825032070
           H         -3.371536512413    -0.940051982294     1.894362746346     1.007825032070
           H         -4.097819512413     0.510334017706    -0.700051253654     1.007825032070
           H         -5.101864512413     0.421203017706     0.735506746346     1.007825032070
           H         -3.584647512413     1.300106017706     0.779469746346     1.007825032070

  Running in c1 symmetry.

  Rotational constants: A =      0.09575  B =      0.01700  C =      0.01520 [cm^-1]
  Rotational constants: A =   2870.47439  B =    509.77590  C =    455.76458 [MHz]
  Nuclear repulsion =  462.260566168844264

  Charge       = 0
  Multiplicity = 1
  Electrons    = 74
  Nalpha       = 37
  Nbeta        = 37

  ==> Algorithm <==

  SCF Algorithm Type is DF.
  DIIS enabled.
  MOM disabled.
  Fractional occupation disabled.
  Guess Type is CORE.
  Energy threshold   = 1.00e-06
  Density threshold  = 1.00e-06
  Integral threshold = 0.00e+00

  ==> Primary Basis <==

  Basis Set: 6-31G*
    Number of shells: 90
    Number of basis function: 171
    Number of Cartesian functions: 171
    Spherical Harmonics?: false
    Max angular momentum: 2

  ==> Pre-Iterations <==

   -------------------------------------------------------
    Irrep   Nso     Nmo     Nalpha   Nbeta   Ndocc  Nsocc
   -------------------------------------------------------
     A        171     171       0       0       0       0
   -------------------------------------------------------
    Total     171     171      37      37      37       0
   -------------------------------------------------------

 OEINTS: Overlap, kinetic, potential, dipole, and quadrupole integrals
         stored in file 35.

  ==> Integral Setup <==

  ==> DFJK: Density-Fitted J/K Matrices <==

    J tasked:                  Yes
    K tasked:                  Yes
    wK tasked:                  No
    OpenMP threads:              1
    Integrals threads:           1
    Memory (MB):              1430
    Algorithm:                Core
    Integral Cache:           NONE
    Schwarz Cutoff:          1E-12
    Fitting Condition:       1E-12

   => Auxiliary Basis Set <=

  Basis Set: 
    Number of shells: 378
    Number of basis function: 1179
    Number of Cartesian functions: 1179
    Spherical Harmonics?: false
    Max angular momentum: 3

  Minimum eigenvalue in the overlap matrix is 3.1855299230E-03.
  Using Symmetric Orthogonalization.
  SCF Guess: Core (One-Electron) Hamiltonian.

  ==> Iterations <==

                           Total Energy        Delta E     RMS |[F,P]|

   @DF-RHF iter   1:  -288.74706403890917   -2.88747e+02   5.83770e-02 
   @DF-RHF iter   2:     2.39715779539307    2.91144e+02   6.55791e-02 DIIS
   @DF-RHF iter   3:  -246.78629590696943   -2.49183e+02   5.37445e-02 DIIS
   @DF-RHF iter   4:  -246.10666730844486    6.79629e-01   6.02302e-02 DIIS
   @DF-RHF iter   5:  -361.96520755242926   -1.15859e+02   2.75084e-02 DIIS
   @DF-RHF iter   6:  -365.13245657085218   -3.16725e+00   2.39062e-02 DIIS
   @DF-RHF iter   7:  -373.76446659373306   -8.63201e+00   1.61360e-02 DIIS
   @DF-RHF iter   8:  -387.98315727923506   -1.42187e+01   4.38150e-03 DIIS
   @DF-RHF iter   9:  -388.24761882681190   -2.64462e-01   1.27044e-03 DIIS
   @DF-RHF iter  10:  -388.27261061288146   -2.49918e-02   3.99588e-04 DIIS
   @DF-RHF iter  11:  -388.27546239379677   -2.85178e-03   1.77344e-04 DIIS
   @DF-RHF iter  12:  -388.27608162468010   -6.19231e-04   7.66895e-05 DIIS
   @DF-RHF iter  13:  -388.27618852421125   -1.06900e-04   3.46438e-05 DIIS
   @DF-RHF iter  14:  -388.27621228639197   -2.37622e-05   1.48663e-05 DIIS
   @DF-RHF iter  15:  -388.27621702311927   -4.73673e-06   4.08472e-06 DIIS
   @DF-RHF iter  16:  -388.27621742953392   -4.06415e-07   9.74667e-07 DIIS

  ==> Post-Iterations <==

    Orbital Energies (a.u.)
    -----------------------

    Doubly Occupied:                                                      

       1A    -20.552244     2A    -11.267008     3A    -11.219699  
       4A    -11.216965     5A    -11.216034     6A    -11.215127  
       7A    -11.214572     8A    -11.212835     9A    -11.209987  
      10A     -1.358989    11A     -1.095440    12A     -1.061676  
      13A     -1.010772    14A     -0.947749    15A     -0.889370  
      16A     -0.822868    17A     -0.801218    18A     -0.776336  
      19A     -0.693673    20A     -0.649731    21A     -0.624373  
      22A     -0.616605    23A     -0.614114    24A     -0.587222  
      25A     -0.580556    26A     -0.551915    27A     -0.534764  
      28A     -0.532568    29A     -0.509392    30A     -0.490220  
      31A     -0.488983    32A     -0.475306    33A     -0.471113  
      34A     -0.453341    35A     -0.452130    36A     -0.440638  
      37A     -0.422591  

    Virtual:                                                              

      38A      0.219636    39A      0.232214    40A      0.244318  
      41A      0.255644    42A      0.264105    43A      0.275169  
      44A      0.289685    45A      0.301214    46A      0.310777  
      47A      0.315518    48A      0.325688    49A      0.327318  
      50A      0.334377    51A      0.341665    52A      0.348139  
      53A      0.358678    54A      0.371681    55A      0.376532  
      56A      0.400787    57A      0.411857    58A      0.428718  
      59A      0.439900    60A      0.464110    61A      0.471890  
      62A      0.475880    63A      0.500518    64A      0.701525  
      65A      0.711803    66A      0.725981    67A      0.735286  
      68A      0.742466    69A      0.761450    70A      0.786384  
      71A      0.793498    72A      0.822009    73A      0.827069  
      74A      0.858854    75A      0.895896    76A      0.923174  
      77A      0.928964    78A      0.948736    79A      0.967432  
      80A      0.975201    81A      1.013140    82A      1.019187  
      83A      1.069485    84A      1.088136    85A      1.093534  
      86A      1.123937    87A      1.129218    88A      1.145490  
      89A      1.153062    90A      1.154634    91A      1.163090  
      92A      1.176998    93A      1.181256    94A      1.186033  
      95A      1.193676    96A      1.203894    97A      1.204237  
      98A      1.217322    99A      1.230981   100A      1.241222  
     101A      1.250202   102A      1.251890   103A      1.262033  
     104A      1.273213   105A      1.304259   106A      1.331079  
     107A      1.352124   108A      1.402203   109A      1.430385  
     110A      1.471272   111A      1.549534   112A      1.584460  
     113A      1.667094   114A      1.701315   115A      1.746877  
     116A      1.796850   117A      1.808422   118A      1.846836  
     119A      1.875168   120A      1.938270   121A      1.960390  
     122A      1.992609   123A      2.010851   124A      2.050324  
     125A      2.087129   126A      2.118756   127A      2.140550  
     128A      2.171195   129A      2.195988   130A      2.247483  
     131A      2.258585   132A      2.269912   133A      2.273813  
     134A      2.308326   135A      2.325536   136A      2.346389  
     137A      2.371577   138A      2.410037   139A      2.442890  
     140A      2.463252   141A      2.507824   142A      2.543148  
     143A      2.595106   144A      2.635577   145A      2.647822  
     146A      2.665640   147A      2.701866   148A      2.711699  
     149A      2.734190   150A      2.759345   151A      2.779442  
     152A      2.803082   153A      2.822710   154A      2.891172  
     155A      2.909496   156A      2.979800   157A      3.007391  
     158A      3.040198   159A      3.084521   160A      3.133663  
     161A      3.187766   162A      3.222654   163A      4.186371  
     164A      4.545473   165A      4.602853   166A      4.680985  
     167A      4.762216   168A      4.836717   169A      4.887895  
     170A      4.956595   171A      5.012373  

    Final Occupation by Irrep:
              A 
    DOCC [    37 ]

  Energy converged.

  @DF-RHF Final Energy:  -388.27621742953392

   => Energetics <=

    Nuclear Repulsion Energy =            462.2605661688442638
    One-Electron Energy =               -1442.5180361135896874
    Two-Electron Energy =                 591.9812525152105991
    DFT Exchange-Correlation Energy =       0.0000000000000000
    Empirical Dispersion Energy =           0.0000000000000000
    PCM Polarization Energy =               0.0000000000000000
    EFP Energy =                            0.0000000000000000
    Total Energy =                       -388.2762174295348814

    Alert: EFP and PCM quantities not currently incorporated into SCF psivars.

Properties will be evaluated at   0.000000,   0.000000,   0.000000 Bohr
  ==> Properties <==


Properties computed using the SCF density matrix

  Nuclear Dipole Moment: (a.u.)
     X:    -6.9702      Y:    -1.0152      Z:     4.4192

  Electronic Dipole Moment: (a.u.)
     X:     6.5976      Y:     1.1210      Z:    -3.7947

  Dipole Moment: (a.u.)
     X:    -0.3726      Y:     0.1058      Z:     0.6245     Total:     0.7349

  Dipole Moment: (Debye)
     X:    -0.9470      Y:     0.2689      Z:     1.5874     Total:     1.8678


  Saving occupied orbitals to File 180.

*** tstop() called on cx1-3-15-4.cx1.hpc.ic.ac.uk at Thu Sep  1 23:38:21 2016
Module time:
	user time   =      26.79 seconds =       0.45 minutes
	system time =       0.25 seconds =       0.00 minutes
	total time  =         28 seconds =       0.47 minutes
Total time:
	user time   =      26.79 seconds =       0.45 minutes
	system time =       0.25 seconds =       0.00 minutes
	total time  =         28 seconds =       0.47 minutes


Properties will be evaluated at   0.000000,   0.000000,   0.000000 Bohr

Properties computed using the  density matrix

  Nuclear Dipole Moment: (a.u.)
     X:    -6.9702      Y:    -1.0152      Z:     4.4192

  Electronic Dipole Moment: (a.u.)
     X:     6.5976      Y:     1.1210      Z:    -3.7947

  Dipole Moment: (a.u.)
     X:    -0.3726      Y:     0.1058      Z:     0.6245     Total:     0.7349

  Dipole Moment: (Debye)
     X:    -0.9470      Y:     0.2689      Z:     1.5874     Total:     1.8678

  Quadrupole Moment: (Debye Ang)
    XX:   -63.4357     YY:   -58.9822     ZZ:   -66.4151
    XY:    -0.2679     XZ:     6.9578     YZ:     0.8427

  Traceless Quadrupole Moment: (Debye Ang)
    XX:    -0.4914     YY:     3.9621     ZZ:    -3.4708
    XY:    -0.2679     XZ:     6.9578     YZ:     0.8427

  Mulliken Charges: (a.u.)
   Center  Symbol    Alpha    Beta     Spin     Total
       1     H     0.27989  0.27989  0.00000  0.44021
       2     O     4.37095  4.37095  0.00000 -0.74190
       3     C     2.99737  2.99737  0.00000  0.00526
       4     C     3.16089  3.16089  0.00000 -0.32178
       5     H     0.41446  0.41446  0.00000  0.17109
       6     H     0.43206  0.43206  0.00000  0.13589
       7     C     3.16325  3.16325  0.00000 -0.32651
       8     H     0.41498  0.41498  0.00000  0.17004
       9     H     0.42435  0.42435  0.00000  0.15131
      10     C     3.15245  3.15245  0.00000 -0.30490
      11     H     0.42285  0.42285  0.00000  0.15431
      12     H     0.42554  0.42554  0.00000  0.14891
      13     C     3.15556  3.15556  0.00000 -0.31111
      14     H     0.42157  0.42157  0.00000  0.15686
      15     H     0.42165  0.42165  0.00000  0.15669
      16     C     3.15626  3.15626  0.00000 -0.31252
      17     H     0.42050  0.42050  0.00000  0.15899
      18     H     0.42418  0.42418  0.00000  0.15165
      19     C     3.15411  3.15411  0.00000 -0.30823
      20     H     0.42102  0.42102  0.00000  0.15796
      21     H     0.42106  0.42106  0.00000  0.15789
      22     C     3.24031  3.24031  0.00000 -0.48062
      23     H     0.42001  0.42001  0.00000  0.15998
      24     H     0.42047  0.42047  0.00000  0.15905
      25     H     0.42165  0.42165  0.00000  0.15671
      26     H     0.42002  0.42002  0.00000  0.15996
      27     H     0.42260  0.42260  0.00000  0.15481

   Total alpha = 37.00000, Total beta = 37.00000, Total charge = -0.00000


*** PSI4 exiting successfully. Buy a developer a beer!
