    -----------------------------------------------------------------------
          Psi4: An Open-Source Ab Initio Electronic Structure Package
                              Psi4 (no tag) Driver

                          Git: Rev {detached?}  

    J. M. Turney, A. C. Simmonett, R. M. Parrish, E. G. Hohenstein,
    F. A. Evangelista, J. T. Fermann, B. J. Mintz, L. A. Burns, J. J. Wilke,
    M. L. Abrams, N. J. Russ, M. L. Leininger, C. L. Janssen, E. T. Seidl,
    W. D. Allen, H. F. Schaefer, R. A. King, E. F. Valeev, C. D. Sherrill,
    and T. D. Crawford, WIREs Comput. Mol. Sci. 2, 556-565 (2012)
    (doi: 10.1002/wcms.93)

                         Additional Contributions by
    A. E. DePrince, M. Saitow, U. Bozkaya, A. Yu. Sokolov
    -----------------------------------------------------------------------


    Psi4 started on: Fri Sep  9 21:10:04 2016

    Process ID:  17759
    PSI4DATADIR: /export131/home/mjharvey/miniconda3/share
    Memory level set to 256.000 MB

  ==> Input File <==

--------------------------------------------------------------------------
set {
	reference rhf
	basis cc-pvtz
}


set_num_threads( 4 )
memory 2 gb

molecule MOL {
0 1

H	 2.867672	 -0.456275	 0.875795
C	 2.403497	 -0.020426	 0.000000
N	 0.989899	 -0.304564	 0.000000
H	 2.867672	 -0.456275	 -0.875795
H	 2.620366	 1.051270	 0.000000
C	 0.199528	 0.819417	 0.457763
C	 0.665292	 -1.497779	 0.753948
H	 0.453263	 1.093981	 1.486343
H	 0.403669	 1.678439	 -0.170835
C	 -1.277184	 0.481666	 0.383684
H	 1.211180	 -2.338959	 0.342671
H	 0.954059	 -1.397503	 1.804806
C	 -0.823387	 -1.775992	 0.672259
H	 -1.870464	 1.279031	 0.808953
H	 -1.568733	 0.351819	 -0.656623
O	 -1.566881	 -0.676816	 1.108350
H	 -1.088645	 -2.610547	 1.306122
H	 -1.091454	 -2.022666	 -0.353115

	symmetry c1
}
set optking {
	frozen_dihedral = ("
		6 3 2 5
	")
}

ee = optimize('scf')
oeprop('DIPOLE', 'QUADRUPOLE', 'MULLIKEN_CHARGES')
f=open( 'psi4out.xyz', 'w' )
f.write( "18  " )
f.write( str(ee) + "\n" )
f.write( MOL.save_string_xyz() )
f.close()
--------------------------------------------------------------------------

  Memory set to   2.000 GiB by Python script.
gradient() will perform analytic gradient computation.

*** tstart() called on cx1-27-2-4
*** at Fri Sep  9 21:10:05 2016


         ---------------------------------------------------------
                                   SCF
            by Justin Turney, Rob Parrish, and Andy Simmonett
                              RHF Reference
                        4 Threads,   2000 MiB Core
         ---------------------------------------------------------

  ==> Geometry <==

    Molecular point group: c1
    Full point group: C1

    Geometry (in Angstrom), charge = 0, multiplicity = 1:

       Center              X                  Y                   Z               Mass       
    ------------   -----------------  -----------------  -----------------  -----------------
           H          2.782435030753    -0.032217542912     0.385669465515     1.007825032070
           C          2.318260030753     0.403631457088    -0.490125534485    12.000000000000
           N          0.904662030753     0.119493457088    -0.490125534485    14.003074004780
           H          2.782435030753    -0.032217542912    -1.365920534485     1.007825032070
           H          2.535129030753     1.475327457088    -0.490125534485     1.007825032070
           C          0.114291030753     1.243474457088    -0.032362534485    12.000000000000
           C          0.580055030753    -1.073721542912     0.263822465515    12.000000000000
           H          0.368026030753     1.518038457088     0.996217465515     1.007825032070
           H          0.318432030753     2.102496457088    -0.660960534485     1.007825032070
           C         -1.362420969247     0.905723457088    -0.106441534485    12.000000000000
           H          1.125943030753    -1.914901542912    -0.147454534485     1.007825032070
           H          0.868822030753    -0.973445542912     1.314680465515     1.007825032070
           C         -0.908623969247    -1.351934542912     0.182133465515    12.000000000000
           H         -1.955700969247     1.703088457088     0.318827465515     1.007825032070
           H         -1.653969969247     0.775876457088    -1.146748534485     1.007825032070
           O         -1.652117969247    -0.252758542912     0.618224465515    15.994914619560
           H         -1.173881969247    -2.186489542912     0.815996465515     1.007825032070
           H         -1.176690969247    -1.598608542912    -0.843240534485     1.007825032070

  Running in c1 symmetry.

  Rotational constants: A =      0.16305  B =      0.07923  C =      0.05790 [cm^-1]
  Rotational constants: A =   4888.14858  B =   2375.13331  C =   1735.72608 [MHz]
  Nuclear repulsion =  342.025565370489744

  Charge       = 0
  Multiplicity = 1
  Electrons    = 56
  Nalpha       = 28
  Nbeta        = 28

  ==> Algorithm <==

  SCF Algorithm Type is DF.
  DIIS enabled.
  MOM disabled.
  Fractional occupation disabled.
  Guess Type is CORE.
  Energy threshold   = 1.00e-08
  Density threshold  = 1.00e-08
  Integral threshold = 0.00e+00

  ==> Primary Basis <==

  Basis Set: CC-PVTZ
    Number of shells: 136
    Number of basis function: 364
    Number of Cartesian functions: 410
    Spherical Harmonics?: true
    Max angular momentum: 3

  ==> Pre-Iterations <==

   -------------------------------------------------------
    Irrep   Nso     Nmo     Nalpha   Nbeta   Ndocc  Nsocc
   -------------------------------------------------------
     A        364     364       0       0       0       0
   -------------------------------------------------------
    Total     364     364      28      28      28       0
   -------------------------------------------------------

 OEINTS: Overlap, kinetic, potential, dipole, and quadrupole integrals
         stored in file 35.

  ==> Integral Setup <==

  ==> DFJK: Density-Fitted J/K Matrices <==

    J tasked:                  Yes
    K tasked:                  Yes
    wK tasked:                  No
    OpenMP threads:              4
    Integrals threads:           4
    Memory (MB):              1430
    Algorithm:                Core
    Integral Cache:           NONE
    Schwarz Cutoff:          1E-12
    Fitting Condition:       1E-12

   => Auxiliary Basis Set <=

  Basis Set: 
    Number of shells: 285
    Number of basis function: 883
    Number of Cartesian functions: 1057
    Spherical Harmonics?: true
    Max angular momentum: 4

  Minimum eigenvalue in the overlap matrix is 2.1992983770E-04.
  Using Symmetric Orthogonalization.
  SCF Guess: Core (One-Electron) Hamiltonian.

  ==> Iterations <==

                           Total Energy        Delta E     RMS |[F,P]|

   @DF-RHF iter   1:  -228.51914433680088   -2.28519e+02   4.01191e-02 
   @DF-RHF iter   2:  -121.41442323590155    1.07105e+02   3.73021e-02 DIIS
   @DF-RHF iter   3:  -253.57209506541187   -1.32158e+02   2.24585e-02 DIIS
   @DF-RHF iter   4:  -233.10120639121078    2.04709e+01   2.89345e-02 DIIS
   @DF-RHF iter   5:  -323.94032427032323   -9.08391e+01   4.22799e-03 DIIS
   @DF-RHF iter   6:  -324.98765462834831   -1.04733e+00   1.74156e-03 DIIS
   @DF-RHF iter   7:  -325.13111502142601   -1.43460e-01   3.54901e-04 DIIS
   @DF-RHF iter   8:  -325.13964384567328   -8.52882e-03   1.24513e-04 DIIS
   @DF-RHF iter   9:  -325.14078566467435   -1.14182e-03   3.05643e-05 DIIS
   @DF-RHF iter  10:  -325.14088323753435   -9.75729e-05   1.14064e-05 DIIS
   @DF-RHF iter  11:  -325.14089843653562   -1.51990e-05   3.39713e-06 DIIS
   @DF-RHF iter  12:  -325.14090015116801   -1.71463e-06   1.00118e-06 DIIS
   @DF-RHF iter  13:  -325.14090028713247   -1.35964e-07   3.42246e-07 DIIS
   @DF-RHF iter  14:  -325.14090030091052   -1.37780e-08   7.52812e-08 DIIS
   @DF-RHF iter  15:  -325.14090030156865   -6.58133e-10   2.19338e-08 DIIS
   @DF-RHF iter  16:  -325.14090030163641   -6.77574e-11   5.27413e-09 DIIS

  ==> Post-Iterations <==

    Orbital Energies (a.u.)
    -----------------------

    Doubly Occupied:                                                      

       1A    -20.547332     2A    -15.542093     3A    -11.264245  
       4A    -11.263593     5A    -11.243013     6A    -11.242065  
       7A    -11.238097     8A     -1.386222     9A     -1.233733  
      10A     -1.039030    11A     -0.981604    12A     -0.884215  
      13A     -0.869123    14A     -0.775055    15A     -0.684578  
      16A     -0.646708    17A     -0.644730    18A     -0.632805  
      19A     -0.631173    20A     -0.573466    21A     -0.558062  
      22A     -0.544774    23A     -0.527183    24A     -0.500544  
      25A     -0.484052    26A     -0.453726    27A     -0.409714  
      28A     -0.353195  

    Virtual:                                                              

      29A      0.143291    30A      0.163001    31A      0.163232  
      32A      0.179617    33A      0.206125    34A      0.209887  
      35A      0.217662    36A      0.221664    37A      0.231389  
      38A      0.249473    39A      0.257515    40A      0.260257  
      41A      0.303341    42A      0.320621    43A      0.339089  
      44A      0.356077    45A      0.373243    46A      0.379223  
      47A      0.401049    48A      0.428971    49A      0.460539  
      50A      0.479744    51A      0.508569    52A      0.515677  
      53A      0.528781    54A      0.553843    55A      0.557182  
      56A      0.574349    57A      0.578231    58A      0.596578  
      59A      0.597161    60A      0.601726    61A      0.608592  
      62A      0.626917    63A      0.629460    64A      0.639896  
      65A      0.645745    66A      0.657028    67A      0.664750  
      68A      0.674760    69A      0.684069    70A      0.692543  
      71A      0.700371    72A      0.733992    73A      0.746517  
      74A      0.788438    75A      0.793514    76A      0.806500  
      77A      0.832280    78A      0.842208    79A      0.858164  
      80A      0.889899    81A      0.939393    82A      0.957697  
      83A      0.978490    84A      1.011049    85A      1.022468  
      86A      1.030234    87A      1.039504    88A      1.062149  
      89A      1.072762    90A      1.086607    91A      1.111945  
      92A      1.128304    93A      1.149147    94A      1.165499  
      95A      1.178880    96A      1.187680    97A      1.194772  
      98A      1.206307    99A      1.229625   100A      1.252217  
     101A      1.271891   102A      1.298944   103A      1.302596  
     104A      1.315092   105A      1.324641   106A      1.327912  
     107A      1.342086   108A      1.348387   109A      1.377544  
     110A      1.387068   111A      1.403635   112A      1.416053  
     113A      1.432818   114A      1.443940   115A      1.453179  
     116A      1.474201   117A      1.477436   118A      1.487280  
     119A      1.497443   120A      1.516695   121A      1.532534  
     122A      1.559655   123A      1.568071   124A      1.585524  
     125A      1.589454   126A      1.611723   127A      1.621511  
     128A      1.632555   129A      1.657408   130A      1.669107  
     131A      1.694159   132A      1.713346   133A      1.742118  
     134A      1.751688   135A      1.766099   136A      1.783557  
     137A      1.787201   138A      1.814581   139A      1.856933  
     140A      1.883792   141A      1.912439   142A      1.931761  
     143A      1.962254   144A      2.072705   145A      2.126043  
     146A      2.169118   147A      2.189467   148A      2.214245  
     149A      2.248634   150A      2.338049   151A      2.385169  
     152A      2.477858   153A      2.508493   154A      2.543850  
     155A      2.584859   156A      2.609851   157A      2.636246  
     158A      2.656904   159A      2.698277   160A      2.742651  
     161A      2.769574   162A      2.804658   163A      2.834552  
     164A      2.845234   165A      2.890206   166A      2.897086  
     167A      2.909805   168A      2.926309   169A      2.943979  
     170A      2.951513   171A      2.973185   172A      3.011720  
     173A      3.038865   174A      3.059174   175A      3.070538  
     176A      3.084881   177A      3.098107   178A      3.128519  
     179A      3.134811   180A      3.153592   181A      3.162184  
     182A      3.198930   183A      3.213900   184A      3.235742  
     185A      3.242723   186A      3.254001   187A      3.268103  
     188A      3.282666   189A      3.294109   190A      3.308264  
     191A      3.323360   192A      3.333405   193A      3.342076  
     194A      3.362254   195A      3.381214   196A      3.385668  
     197A      3.390398   198A      3.412944   199A      3.418490  
     200A      3.431161   201A      3.436569   202A      3.458916  
     203A      3.466795   204A      3.485485   205A      3.522017  
     206A      3.527711   207A      3.532901   208A      3.560848  
     209A      3.568999   210A      3.593679   211A      3.596830  
     212A      3.606572   213A      3.607153   214A      3.645798  
     215A      3.655722   216A      3.666045   217A      3.679163  
     218A      3.690329   219A      3.694332   220A      3.744667  
     221A      3.746106   222A      3.756428   223A      3.791001  
     224A      3.803451   225A      3.828855   226A      3.837730  
     227A      3.848289   228A      3.871265   229A      3.887959  
     230A      3.899793   231A      3.909499   232A      3.918356  
     233A      3.939811   234A      3.945068   235A      3.972519  
     236A      4.001184   237A      4.038098   238A      4.043859  
     239A      4.057121   240A      4.075640   241A      4.076186  
     242A      4.098713   243A      4.111514   244A      4.116279  
     245A      4.154916   246A      4.163588   247A      4.181254  
     248A      4.187141   249A      4.200690   250A      4.244749  
     251A      4.257680   252A      4.264942   253A      4.287112  
     254A      4.306469   255A      4.316895   256A      4.340563  
     257A      4.359996   258A      4.365659   259A      4.386467  
     260A      4.396975   261A      4.406481   262A      4.408863  
     263A      4.415297   264A      4.441433   265A      4.464766  
     266A      4.469374   267A      4.483946   268A      4.503539  
     269A      4.509616   270A      4.528119   271A      4.540928  
     272A      4.566337   273A      4.574870   274A      4.589184  
     275A      4.617431   276A      4.626688   277A      4.659245  
     278A      4.693189   279A      4.716118   280A      4.738128  
     281A      4.741716   282A      4.786983   283A      4.807294  
     284A      4.832466   285A      4.851721   286A      4.896566  
     287A      4.911736   288A      4.975644   289A      4.987642  
     290A      5.017796   291A      5.039425   292A      5.064149  
     293A      5.093511   294A      5.111111   295A      5.149241  
     296A      5.187982   297A      5.213389   298A      5.246440  
     299A      5.257288   300A      5.260903   301A      5.291075  
     302A      5.319737   303A      5.333951   304A      5.350612  
     305A      5.363499   306A      5.398364   307A      5.409227  
     308A      5.448836   309A      5.462978   310A      5.484584  
     311A      5.508209   312A      5.510006   313A      5.524576  
     314A      5.552306   315A      5.607293   316A      5.625823  
     317A      5.648406   318A      5.662836   319A      5.676281  
     320A      5.708265   321A      5.736827   322A      5.769689  
     323A      5.780492   324A      5.795215   325A      5.810457  
     326A      5.839774   327A      5.919685   328A      5.928878  
     329A      5.946758   330A      5.963017   331A      5.983042  
     332A      6.020640   333A      6.046188   334A      6.100224  
     335A      6.144490   336A      6.150029   337A      6.233247  
     338A      6.263196   339A      6.277948   340A      6.280791  
     341A      6.338229   342A      6.349034   343A      6.376393  
     344A      6.401699   345A      6.420875   346A      6.437976  
     347A      6.470758   348A      6.520072   349A      6.587793  
     350A      6.835553   351A      6.873955   352A      6.977956  
     353A      7.344610   354A      7.417545   355A      7.568541  
     356A      7.859580   357A      7.984242   358A     11.013191  
     359A     11.937124   360A     13.399284   361A     13.442256  
     362A     13.978574   363A     14.000887   364A     14.525905  

    Final Occupation by Irrep:
              A 
    DOCC [    28 ]

  Energy converged.

  @DF-RHF Final Energy:  -325.14090030163641

   => Energetics <=

    Nuclear Repulsion Energy =            342.0255653704897441
    One-Electron Energy =               -1120.0246747172363939
    Two-Electron Energy =                 452.8582090451102431
    DFT Exchange-Correlation Energy =       0.0000000000000000
    Empirical Dispersion Energy =           0.0000000000000000
    PCM Polarization Energy =               0.0000000000000000
    EFP Energy =                            0.0000000000000000
    Total Energy =                       -325.1409003016364068

    Alert: EFP and PCM quantities not currently incorporated into SCF psivars.

Properties will be evaluated at   0.000000,   0.000000,   0.000000 Bohr
  ==> Properties <==


Properties computed using the SCF density matrix

  Nuclear Dipole Moment: (a.u.)
     X:     4.5090      Y:     0.7831      Z:    -0.7672

  Electronic Dipole Moment: (a.u.)
     X:    -4.0039      Y:    -0.6858      Z:     0.6339

  Dipole Moment: (a.u.)
     X:     0.5051      Y:     0.0972      Z:    -0.1333     Total:     0.5313

  Dipole Moment: (Debye)
     X:     1.2837      Y:     0.2472      Z:    -0.3387     Total:     1.3505


  Saving occupied orbitals to File 180.

*** tstop() called on cx1-27-2-4 at Fri Sep  9 21:10:22 2016
Module time:
	user time   =      56.07 seconds =       0.93 minutes
	system time =       0.77 seconds =       0.01 minutes
	total time  =         17 seconds =       0.28 minutes
Total time:
	user time   =      56.07 seconds =       0.93 minutes
	system time =       0.77 seconds =       0.01 minutes
	total time  =         17 seconds =       0.28 minutes

*** tstart() called on cx1-27-2-4
*** at Fri Sep  9 21:10:22 2016


         ------------------------------------------------------------
                                   SCF GRAD                          
                          Rob Parrish, Justin Turney,                
                       Andy Simmonett, and Alex Sokolov              
         ------------------------------------------------------------

  ==> Geometry <==

    Molecular point group: c1
    Full point group: C1

    Geometry (in Angstrom), charge = 0, multiplicity = 1:

       Center              X                  Y                   Z               Mass       
    ------------   -----------------  -----------------  -----------------  -----------------
           H          2.782435030753    -0.032217542912     0.385669465515     1.007825032070
           C          2.318260030753     0.403631457088    -0.490125534485    12.000000000000
           N          0.904662030753     0.119493457088    -0.490125534485    14.003074004780
           H          2.782435030753    -0.032217542912    -1.365920534485     1.007825032070
           H          2.535129030753     1.475327457088    -0.490125534485     1.007825032070
           C          0.114291030753     1.243474457088    -0.032362534485    12.000000000000
           C          0.580055030753    -1.073721542912     0.263822465515    12.000000000000
           H          0.368026030753     1.518038457088     0.996217465515     1.007825032070
           H          0.318432030753     2.102496457088    -0.660960534485     1.007825032070
           C         -1.362420969247     0.905723457088    -0.106441534485    12.000000000000
           H          1.125943030753    -1.914901542912    -0.147454534485     1.007825032070
           H          0.868822030753    -0.973445542912     1.314680465515     1.007825032070
           C         -0.908623969247    -1.351934542912     0.182133465515    12.000000000000
           H         -1.955700969247     1.703088457088     0.318827465515     1.007825032070
           H         -1.653969969247     0.775876457088    -1.146748534485     1.007825032070
           O         -1.652117969247    -0.252758542912     0.618224465515    15.994914619560
           H         -1.173881969247    -2.186489542912     0.815996465515     1.007825032070
           H         -1.176690969247    -1.598608542912    -0.843240534485     1.007825032070

  Nuclear repulsion =  342.025565370489744

  ==> Basis Set <==

  Basis Set: CC-PVTZ
    Number of shells: 136
    Number of basis function: 364
    Number of Cartesian functions: 410
    Spherical Harmonics?: true
    Max angular momentum: 3

  ==> DFJKGrad: Density-Fitted SCF Gradients <==

    Gradient:                    1
    J tasked:                  Yes
    K tasked:                  Yes
    wK tasked:                  No
    OpenMP threads:              4
    Integrals threads:           4
    Memory (MB):              1430
    Schwarz Cutoff:          0E+00
    Fitting Condition:       1E-12

   => Auxiliary Basis Set <=

  Basis Set: 
    Number of shells: 285
    Number of basis function: 883
    Number of Cartesian functions: 1057
    Spherical Harmonics?: true
    Max angular momentum: 4


  -Total Gradient:
     Atom            X                  Y                   Z
    ------   -----------------  -----------------  -----------------
       1       -0.006285279991    -0.002400694587    -0.003465183835
       2       -0.006025645037     0.001266688738     0.002122575624
       3        0.007006824360    -0.007655699759    -0.000945851865
       4       -0.002775316403     0.000188245284     0.000100484903
       5        0.004568724854     0.007466760706     0.001147070085
       6        0.002003170784     0.000285973226    -0.001251396898
       7        0.000860925785     0.000595200961     0.002174698488
       8        0.000540631001    -0.000375838783    -0.000217182514
       9        0.000494180220     0.000399401192    -0.000032546629
      10       -0.000095193700    -0.000317818836    -0.000304029637
      11       -0.000136091598     0.000436956730    -0.000027651008
      12       -0.000136773554    -0.000305218963     0.000311515849
      13        0.000143696766     0.000043258441     0.000319835165
      14        0.000117051950    -0.000061588580     0.000011137781
      15       -0.000080035426     0.000000134469     0.000099187108
      16       -0.000164345891     0.000278949868     0.000013755603
      17       -0.000057814374     0.000064580272    -0.000039475183
      18        0.000021290256     0.000090709619    -0.000016943038


*** tstop() called on cx1-27-2-4 at Fri Sep  9 21:10:50 2016
Module time:
	user time   =     108.36 seconds =       1.81 minutes
	system time =       0.72 seconds =       0.01 minutes
	total time  =         28 seconds =       0.47 minutes
Total time:
	user time   =     164.45 seconds =       2.74 minutes
	system time =       1.49 seconds =       0.02 minutes
	total time  =         45 seconds =       0.75 minutes
CURRENT ENERGY: -325.1409003016

			-----------------------------------------
			 OPTKING 2.0: for geometry optimizations 
			  - R.A. King,  Bethel University        
			-----------------------------------------

	Internal coordinates to be generated automatically.
	Detected frag with atoms:  1 2 3 4 5 6 7 8 9 10 11 12 13 14 15 16 17 18
	---Fragment 1 Bond Connectivity---
	 1 : 2
	 2 : 1 3 4 5
	 3 : 2 6 7
	 4 : 2
	 5 : 2
	 6 : 3 8 9 10
	 7 : 3 11 12 13
	 8 : 6
	 9 : 6
	 10 : 6 14 15 16
	 11 : 7
	 12 : 7
	 13 : 7 16 17 18
	 14 : 10
	 15 : 10
	 16 : 10 13
	 17 : 13
	 18 : 13

	Assuming in current code that numbering for constraints corresponds to unified fragment.
	Frozen dihedral atom list: 
	     6     3     2     5
	---Fragment 1 Geometry and Gradient---
	 H           5.2580401907       -0.0608823328        0.7288096676
	 C           4.3808765629        0.7627529125       -0.9262030309
	 N           1.7095634809        0.2258099086       -0.9262030309
	 H           5.2580401907       -0.0608823328       -2.5812157295
	 H           4.7906995797        2.7879648502       -0.9262030309
	 C           0.2159787476        2.3498261771       -0.0611563271
	 C           1.0961451501       -2.0290396591        0.4985522075
	 H           0.6954684079        2.8686769431        1.8825781786
	 H           0.6017493301        3.9731424993       -1.2490343948
	 C          -2.5746025096        1.7115692860       -0.2011453493
	 H           2.1277239694       -3.6186394875       -0.2786486872
	 H           1.6418356963       -1.8395454814        2.4843860321
	 C          -1.7170504597       -2.5547860357        0.3441823695
	 H          -3.6957392297        3.2183707640        0.6024965935
	 H          -3.1255502739        1.4661940168       -2.1670406735
	 O          -3.1220505011       -0.4776444239        1.1682749285
	 H          -2.2183154342       -4.1318664285        1.5420098452
	 H          -2.2236236749       -3.0209323398       -1.5934936743
	            -0.0062852800       -0.0024006946       -0.0034651838
	            -0.0060256450        0.0012666887        0.0021225756
	             0.0070068244       -0.0076556998       -0.0009458519
	            -0.0027753164        0.0001882453        0.0001004849
	             0.0045687249        0.0074667607        0.0011470701
	             0.0020031708        0.0002859732       -0.0012513969
	             0.0008609258        0.0005952010        0.0021746985
	             0.0005406310       -0.0003758388       -0.0002171825
	             0.0004941802        0.0003994012       -0.0000325466
	            -0.0000951937       -0.0003178188       -0.0003040296
	            -0.0001360916        0.0004369567       -0.0000276510
	            -0.0001367736       -0.0003052190        0.0003115158
	             0.0001436968        0.0000432584        0.0003198352
	             0.0001170519       -0.0000615886        0.0000111378
	            -0.0000800354        0.0000001345        0.0000991871
	            -0.0001643459        0.0002789499        0.0000137556
	            -0.0000578144        0.0000645803       -0.0000394752
	             0.0000212903        0.0000907096       -0.0000169430

	Previous optimization step data not found.  Starting new optimization.

	---Fragment 1 Intrafragment Coordinates---
	 - Coordinate -           - BOHR/RAD -       - ANG/DEG -
	 R(1,2)           =         2.046181	       1.082793
	 R(2,3)           =         2.724742	       1.441872
	 R(2,4)           =         2.046181	       1.082793
	 R(2,5)           =         2.066262	       1.093419
	 R(3,6)           =         2.736886	       1.448298
	 R(3,7)           =         2.736888	       1.448299
	 R(6,8)           =         2.068144	       1.094415
	 R(6,9)           =         2.048177	       1.083849
	 R(6,10)          =         2.866062	       1.516655
	 R(7,11)          =         2.048176	       1.083848
	 R(7,12)          =         2.068145	       1.094415
	 R(7,13)          =         2.866062	       1.516655
	 R(10,14)         =         2.042851	       1.081030
	 R(10,15)         =         2.056331	       1.088164
	 R(10,16)         =         2.639634	       1.396834
	 R(13,16)         =         2.639635	       1.396835
	 R(13,17)         =         2.042851	       1.081030
	 R(13,18)         =         2.056331	       1.088164
	 B(1,2,3)         =         1.918729	     109.935082
	 B(1,2,4)         =         1.884319	     107.963538
	 B(1,2,5)         =         1.885465	     108.029167
	 B(2,3,6)         =         1.962852	     112.463145
	 B(2,3,7)         =         1.962852	     112.463141
	 B(3,2,4)         =         1.918729	     109.935082
	 B(3,2,5)         =         1.968821	     112.805122
	 B(3,6,8)         =         1.944678	     111.421823
	 B(3,6,9)         =         1.906031	     109.207525
	 B(3,6,10)        =         1.920998	     110.065067
	 B(3,7,11)        =         1.906031	     109.207513
	 B(3,7,12)        =         1.944677	     111.421798
	 B(3,7,13)        =         1.920998	     110.065066
	 B(4,2,5)         =         1.885465	     108.029167
	 B(6,3,7)         =         1.931073	     110.642312
	 B(6,10,14)       =         1.929310	     110.541310
	 B(6,10,15)       =         1.911489	     109.520276
	 B(6,10,16)       =         1.940446	     111.179341
	 B(7,13,16)       =         1.940446	     111.179343
	 B(7,13,17)       =         1.929309	     110.541277
	 B(7,13,18)       =         1.911490	     109.520303
	 B(8,6,9)         =         1.878190	     107.612366
	 B(8,6,10)        =         1.904468	     109.117957
	 B(9,6,10)        =         1.908753	     109.363516
	 B(10,16,13)      =         1.960887	     112.350566
	 B(11,7,12)       =         1.878191	     107.612391
	 B(11,7,13)       =         1.908754	     109.363567
	 B(12,7,13)       =         1.904467	     109.117921
	 B(14,10,15)      =         1.893430	     108.485531
	 B(14,10,16)      =         1.869024	     107.087174
	 B(15,10,16)      =         1.919249	     109.964852
	 B(16,13,17)      =         1.869023	     107.087151
	 B(16,13,18)      =         1.919248	     109.964826
	 B(17,13,18)      =         1.893431	     108.485585
	 D(1,2,3,6)       =         1.756503	     100.640202
	 D(1,2,3,7)       =        -0.437630	     -25.074340
	 D(2,3,6,8)       =        -1.065694	     -61.059795
	 D(2,3,6,9)       =         1.006752	      57.682639
	 D(2,3,6,10)      =         3.102352	     177.751665
	 D(2,3,7,11)      =        -1.006751	     -57.682590
	 D(2,3,7,12)      =         1.065695	      61.059853
	 D(2,3,7,13)      =        -3.102352	    -177.751669
	 D(3,6,10,14)     =         3.049841	     174.743034
	 D(3,6,10,15)     =        -1.148069	     -65.779519
	 D(3,6,10,16)     =         0.976463	      55.947212
	 D(3,7,13,16)     =        -0.976462	     -55.947174
	 D(3,7,13,17)     =        -3.049840	    -174.742946
	 D(3,7,13,18)     =         1.148070	      65.779544
	 D(4,2,3,6)       =        -2.454635	    -140.640219
	 D(4,2,3,7)       =         1.634418	      93.645238
	*D(5,2,3,6)       =        -0.349066	     -20.000008
	 D(5,2,3,7)       =        -2.543199	    -145.714551
	 D(6,3,7,11)      =         3.065154	     175.620380
	 D(6,3,7,12)      =        -1.145585	     -65.637178
	 D(6,3,7,13)      =         0.969553	      55.551300
	 D(6,10,16,13)    =        -1.001110	     -57.359403
	 D(7,3,6,8)       =         1.145586	      65.637233
	 D(7,3,6,9)       =        -3.065153	    -175.620333
	 D(7,3,6,10)      =        -0.969553	     -55.551307
	 D(7,13,16,10)    =         1.001110	      57.359397
	 D(8,6,10,14)     =         0.910817	      52.185980
	 D(8,6,10,15)     =         2.996092	     171.663427
	 D(8,6,10,16)     =        -1.162561	     -66.609842
	 D(9,6,10,14)     =        -1.139393	     -65.282397
	 D(9,6,10,15)     =         0.945882	      54.195050
	 D(9,6,10,16)     =         3.070414	     175.921781
	 D(10,16,13,17)   =         3.110326	     178.208576
	 D(10,16,13,18)   =        -1.118895	     -64.107969
	 D(11,7,13,16)    =        -3.070414	    -175.921758
	 D(11,7,13,17)    =         1.139394	      65.282470
	 D(11,7,13,18)    =        -0.945882	     -54.195040
	 D(12,7,13,16)    =         1.162561	      66.609826
	 D(12,7,13,17)    =        -0.910817	     -52.185946
	 D(12,7,13,18)    =        -2.996093	    -171.663457
	 D(13,16,10,14)   =        -3.110327	    -178.208637
	 D(13,16,10,15)   =         1.118895	      64.107945

	Current energy   :      -325.1409003016

	Generating empirical Hessian (Schlegel '84) for each fragment.
	Taking RFO optimization step.
	Going to follow RFO solution 1.
	Using RFO vector 1.
	Norm of target step-size    0.21618
	Projected energy change by RFO approximation:        -0.0020788203

	Back-transformation to cartesian coordinates...
	Successfully converged to displaced geometry.

	Back-transformation to cartesian coordinates to adjust frozen coordinates...
	Successfully converged to displaced geometry.

	--- Internal Coordinate Step in ANG or DEG, aJ/ANG or AJ/DEG ---
	 ---------------------------------------------------------------------------
	   Coordinate                Previous        Force       Change         New 
	   ----------                --------       ------       ------       ------
	    1 R(1,2)          =      1.082793     0.037328     0.006678     1.089471
	    2 R(2,3)          =      1.441872     0.074365     0.012070     1.453942
	    3 R(2,4)          =      1.082793     0.011096     0.001985     1.084778
	    4 R(2,5)          =      1.093419    -0.067760    -0.012556     1.080863
	    5 R(3,6)          =      1.448298     0.017543     0.002878     1.451176
	    6 R(3,7)          =      1.448299    -0.003062    -0.000605     1.447694
	    7 R(6,8)          =      1.094415     0.001426     0.000265     1.094680
	    8 R(6,9)          =      1.083849    -0.003530    -0.000634     1.083215
	    9 R(6,10)         =      1.516655    -0.001348     0.000002     1.516657
	   10 R(7,11)         =      1.083848     0.003272     0.000587     1.084435
	   11 R(7,12)         =      1.094415    -0.001937    -0.000360     1.094055
	   12 R(7,13)         =      1.516655     0.000519    -0.000170     1.516484
	   13 R(10,14)        =      1.081030     0.000867     0.000154     1.081184
	   14 R(10,15)        =      1.088164     0.000605     0.000110     1.088274
	   15 R(10,16)        =      1.396834     0.000492     0.000131     1.396965
	   16 R(13,16)        =      1.396835    -0.001847    -0.000237     1.396598
	   17 R(13,17)        =      1.081030     0.000485     0.000086     1.081116
	   18 R(13,18)        =      1.088164     0.000081     0.000015     1.088178
	   19 B(1,2,3)        =    109.935082     0.000623     2.820295   112.755377
	   20 B(1,2,4)        =    107.963538    -0.000223    -0.147897   107.815641
	   21 B(1,2,5)        =    108.029167    -0.000197    -1.825973   106.203193
	   22 B(2,3,6)        =    112.463145     0.000213     2.018575   114.481720
	   23 B(2,3,7)        =    112.463141    -0.000057     0.708794   113.171935
	   24 B(3,2,4)        =    109.935082     0.000285     1.779397   111.714479
	   25 B(3,2,5)        =    112.805122    -0.000548    -2.999771   109.805351
	   26 B(3,6,8)        =    111.421823     0.000033     0.332207   111.754030
	   27 B(3,6,9)        =    109.207525    -0.000001     0.039457   109.246983
	   28 B(3,6,10)       =    110.065067     0.000020    -0.013498   110.051569
	   29 B(3,7,11)       =    109.207513     0.000008     0.134768   109.342281
	   30 B(3,7,12)       =    111.421798    -0.000042    -0.266840   111.154959
	   31 B(3,7,13)       =    110.065066     0.000043     0.125447   110.190512
	   32 B(4,2,5)        =    108.029167     0.000051     0.274957   108.304124
	   33 B(6,3,7)        =    110.642312    -0.000045     0.860099   111.502411
	   34 B(6,10,14)      =    110.541310     0.000001     0.051492   110.592802
	   35 B(6,10,15)      =    109.520276     0.000000    -0.108593   109.411683
	   36 B(6,10,16)      =    111.179341    -0.000007     0.095043   111.274384
	   37 B(7,13,16)      =    111.179343     0.000023    -0.049250   111.130093
	   38 B(7,13,17)      =    110.541277    -0.000008    -0.058138   110.483139
	   39 B(7,13,18)      =    109.520303    -0.000006     0.055001   109.575304
	   40 B(8,6,9)        =    107.612366     0.000011     0.059693   107.672058
	   41 B(8,6,10)       =    109.117957    -0.000044    -0.155549   108.962407
	   42 B(9,6,10)       =    109.363516    -0.000020    -0.273550   109.089966
	   43 B(10,16,13)     =    112.350566     0.000000    -0.009186   112.341379
	   44 B(11,7,12)      =    107.612391     0.000004    -0.022353   107.590038
	   45 B(11,7,13)      =    109.363567    -0.000041    -0.067760   109.295807
	   46 B(12,7,13)      =    109.117921     0.000027     0.094394   109.212315
	   47 B(14,10,15)     =    108.485531    -0.000000    -0.019921   108.465610
	   48 B(14,10,16)     =    107.087174     0.000004     0.075019   107.162193
	   49 B(15,10,16)     =    109.964852     0.000003    -0.092459   109.872393
	   50 B(16,13,17)     =    107.087151    -0.000004     0.032057   107.119208
	   51 B(16,13,18)     =    109.964826    -0.000006     0.036095   110.000921
	   52 B(17,13,18)     =    108.485585     0.000001    -0.015985   108.469600
	   53 D(1,2,3,6)      =    100.640202    -0.000041    -2.432108    98.208094
	   54 D(1,2,3,7)      =    -25.074340    -0.000056    -5.988435   -31.062775
	   55 D(2,3,6,8)      =    -61.059795    -0.000008    -1.930412   -62.990207
	   56 D(2,3,6,9)      =     57.682639    -0.000000    -1.626094    56.056545
	   57 D(2,3,6,10)     =    177.751665    -0.000003    -1.945782   175.805883
	   58 D(2,3,7,11)     =    -57.682590     0.000028     2.865955   -54.816635
	   59 D(2,3,7,12)     =     61.059853     0.000024     2.760718    63.820571
	   60 D(2,3,7,13)     =   -177.751669     0.000032     2.787554  -174.964115
	   61 D(3,6,10,14)    =    174.743034     0.000002    -0.555630   174.187405
	   62 D(3,6,10,15)    =    -65.779519     0.000002    -0.616861   -66.396379
	   63 D(3,6,10,16)    =     55.947212     0.000002    -0.744059    55.203153
	   64 D(3,7,13,16)    =    -55.947174     0.000002     0.507246   -55.439927
	   65 D(3,7,13,17)    =   -174.742946     0.000001     0.536334  -174.206612
	   66 D(3,7,13,18)    =     65.779544     0.000002     0.557394    66.336938
	   67 D(4,2,3,6)      =   -140.640219     0.000023     0.460112  -140.180107
	   68 D(4,2,3,7)      =     93.645238     0.000008    -3.096215    90.549024
	   69 *D(5,2,3,6)     =    -20.000008    -0.000000     0.000000   -20.000008
	   70 D(5,2,3,7)      =   -145.714551    -0.000015    -3.556327  -149.270878
	   71 D(6,3,7,11)     =    175.620380    -0.000019    -1.213436   174.406944
	   72 D(6,3,7,12)     =    -65.637178    -0.000023    -1.318673   -66.955851
	   73 D(6,3,7,13)     =     55.551300    -0.000015    -1.291837    54.259464
	   74 D(6,10,16,13)   =    -57.359403    -0.000003    -0.575097   -57.934500
	   75 D(7,3,6,8)      =     65.637233     0.000004     1.470211    67.107444
	   76 D(7,3,6,9)      =   -175.620333     0.000012     1.774530  -173.845804
	   77 D(7,3,6,10)     =    -55.551307     0.000009     1.454841   -54.096466
	   78 D(7,13,16,10)   =     57.359397    -0.000002     0.586121    57.945518
	   79 D(8,6,10,14)    =     52.185980    -0.000004    -0.858400    51.327580
	   80 D(8,6,10,15)    =    171.663427    -0.000004    -0.919631   170.743796
	   81 D(8,6,10,16)    =    -66.609842    -0.000004    -1.046829   -67.656671
	   82 D(9,6,10,14)    =    -65.282397     0.000001    -0.685543   -65.967940
	   83 D(9,6,10,15)    =     54.195050     0.000001    -0.746774    53.448276
	   84 D(9,6,10,16)    =    175.921781     0.000001    -0.873972   175.047809
	   85 D(10,16,13,17)  =    178.208576    -0.000001     0.506312   178.714888
	   86 D(10,16,13,18)  =    -64.107969    -0.000002     0.525024   -63.582945
	   87 D(11,7,13,16)   =   -175.921758    -0.000001     0.306314  -175.615444
	   88 D(11,7,13,17)   =     65.282470    -0.000002     0.335402    65.617872
	   89 D(11,7,13,18)   =    -54.195040     0.000000     0.356462   -53.838579
	   90 D(12,7,13,16)   =     66.609826    -0.000000     0.317781    66.927607
	   91 D(12,7,13,17)   =    -52.185946    -0.000001     0.346869   -51.839077
	   92 D(12,7,13,18)   =   -171.663457     0.000001     0.367929  -171.295528
	   93 D(13,16,10,14)  =   -178.208637    -0.000003    -0.742272  -178.950909
	   94 D(13,16,10,15)  =     64.107945    -0.000004    -0.711609    63.396336
	 ---------------------------------------------------------------------------

  ==> Convergence Check <==

  Measures of convergence in internal coordinates in au.
  Criteria marked as inactive (o), active & met (*), and active & unmet ( ).
  --------------------------------------------------------------------------------------------- ~
   Step     Total Energy     Delta E     MAX Force     RMS Force      MAX Disp      RMS Disp    ~
  --------------------------------------------------------------------------------------------- ~
    Convergence Criteria    1.00e-06 *    3.00e-04 *             o    1.20e-03 *             o  ~
  --------------------------------------------------------------------------------------------- ~
      1    -325.14090030   -3.25e+02      9.03e-03      1.98e-03 o    1.05e-01      2.23e-02 o  ~
  ---------------------------------------------------------------------------------------------

	Writing optimization data to binary file.
	Structure for next step:
	Cartesian Geometry (in Angstrom)
	    H     2.8625814912   0.0228781763   0.3830243362
	    C     2.3389815709   0.3873131724  -0.5001389202
	    N     0.9093130257   0.1268412364  -0.4537701233
	    H     2.8014280513  -0.0656044140  -1.3706282700
	    H     2.5160700189   1.4529161294  -0.5374759020
	    C     0.1067465318   1.2532962319  -0.0145690900
	    C     0.5733193855  -1.0794222044   0.2727650213
	    H     0.3435771813   1.5436697781   1.0139825919
	    H     0.3088170753   2.1056890443  -0.6517098883
	    C    -1.3672771793   0.9070758409  -0.1019429326
	    H     1.1196112202  -1.9162510037  -0.1482849633
	    H     0.8553609266  -0.9970973281   1.3266301118
	    C    -0.9151754202  -1.3522366307   0.1743763830
	    H    -1.9698228301   1.7006118104   0.3178177104
	    H    -1.6470312287   0.7770677824  -1.1455784874
	    O    -1.6583290731  -0.2553665703   0.6160599740
	    H    -1.1877008365  -2.1928661187   0.7971802428
	    H    -1.1753859897  -1.5876596415  -0.8556714823
			--------------------------
			 OPTKING Finished Execution 
			--------------------------

    Structure for next step:
    Molecular point group: c1
    Full point group: C1

    Geometry (in Angstrom), charge = 0, multiplicity = 1:

    H            2.863444269219     0.023532371201     0.377207285225
    C            2.339844388983     0.387967339421    -0.505955903705
    N            0.910175952868     0.127495423336    -0.459587110342
    H            2.802290833978    -0.064950212405    -1.376445187030
    H            2.516932823396     1.453570215046    -0.543292882708
    C            0.107609520343     1.253950332817    -0.020386110636
    C            0.574182338351    -1.078767925329     0.266947978749
    H            0.344440151717     1.544323856856     1.008165492727
    H            0.309680048408     2.106343080134    -0.657526860232
    C           -1.366414078239     0.907729968231    -0.107759946537
    H            1.120474131301    -1.915596660752    -0.154101973677
    H            0.856223857933    -0.996443055358     1.320812988798
    C           -0.914312353618    -1.351582330798     0.168559347973
    H           -1.968959682987     1.701265877180     0.312000664380
    H           -1.646168106244     0.777721919659    -1.151395421684
    O           -1.657465949773    -0.254712354148     0.610242905269
    H           -1.186837749142    -2.192211754605     0.791363160208
    H           -1.174522903272    -1.587005323638    -0.861488438693

gradient() will perform analytic gradient computation.

*** tstart() called on cx1-27-2-4
*** at Fri Sep  9 21:10:52 2016


         ---------------------------------------------------------
                                   SCF
            by Justin Turney, Rob Parrish, and Andy Simmonett
                              RHF Reference
                        4 Threads,   2000 MiB Core
         ---------------------------------------------------------

  ==> Geometry <==

    Molecular point group: c1
    Full point group: C1

    Geometry (in Angstrom), charge = 0, multiplicity = 1:

       Center              X                  Y                   Z               Mass       
    ------------   -----------------  -----------------  -----------------  -----------------
           H          2.863444269219     0.023532371201     0.377207285225     1.007825032070
           C          2.339844388983     0.387967339421    -0.505955903705    12.000000000000
           N          0.910175952868     0.127495423336    -0.459587110342    14.003074004780
           H          2.802290833978    -0.064950212405    -1.376445187030     1.007825032070
           H          2.516932823396     1.453570215046    -0.543292882708     1.007825032070
           C          0.107609520343     1.253950332817    -0.020386110636    12.000000000000
           C          0.574182338351    -1.078767925329     0.266947978749    12.000000000000
           H          0.344440151717     1.544323856856     1.008165492727     1.007825032070
           H          0.309680048408     2.106343080134    -0.657526860232     1.007825032070
           C         -1.366414078239     0.907729968231    -0.107759946537    12.000000000000
           H          1.120474131301    -1.915596660752    -0.154101973677     1.007825032070
           H          0.856223857933    -0.996443055358     1.320812988798     1.007825032070
           C         -0.914312353618    -1.351582330798     0.168559347973    12.000000000000
           H         -1.968959682987     1.701265877180     0.312000664380     1.007825032070
           H         -1.646168106244     0.777721919659    -1.151395421684     1.007825032070
           O         -1.657465949773    -0.254712354148     0.610242905269    15.994914619560
           H         -1.186837749142    -2.192211754605     0.791363160208     1.007825032070
           H         -1.174522903272    -1.587005323638    -0.861488438693     1.007825032070

  Running in c1 symmetry.

  Rotational constants: A =      0.16244  B =      0.07852  C =      0.05741 [cm^-1]
  Rotational constants: A =   4869.77689  B =   2353.90727  C =   1721.00058 [MHz]
  Nuclear repulsion =  341.163585056265845

  Charge       = 0
  Multiplicity = 1
  Electrons    = 56
  Nalpha       = 28
  Nbeta        = 28

  ==> Algorithm <==

  SCF Algorithm Type is DF.
  DIIS enabled.
  MOM disabled.
  Fractional occupation disabled.
  Guess Type is READ.
  Energy threshold   = 1.00e-08
  Density threshold  = 1.00e-08
  Integral threshold = 0.00e+00

  ==> Primary Basis <==

  Basis Set: CC-PVTZ
    Number of shells: 136
    Number of basis function: 364
    Number of Cartesian functions: 410
    Spherical Harmonics?: true
    Max angular momentum: 3

  ==> Pre-Iterations <==

   -------------------------------------------------------
    Irrep   Nso     Nmo     Nalpha   Nbeta   Ndocc  Nsocc
   -------------------------------------------------------
     A        364     364       0       0       0       0
   -------------------------------------------------------
    Total     364     364      28      28      28       0
   -------------------------------------------------------

 OEINTS: Overlap, kinetic, potential, dipole, and quadrupole integrals
         stored in file 35.

  ==> Integral Setup <==

  ==> DFJK: Density-Fitted J/K Matrices <==

    J tasked:                  Yes
    K tasked:                  Yes
    wK tasked:                  No
    OpenMP threads:              4
    Integrals threads:           4
    Memory (MB):              1430
    Algorithm:                Core
    Integral Cache:           NONE
    Schwarz Cutoff:          1E-12
    Fitting Condition:       1E-12

   => Auxiliary Basis Set <=

  Basis Set: 
    Number of shells: 285
    Number of basis function: 883
    Number of Cartesian functions: 1057
    Spherical Harmonics?: true
    Max angular momentum: 4

  Minimum eigenvalue in the overlap matrix is 2.2211752291E-04.
  Using Symmetric Orthogonalization.
  SCF Guess: Reading in previously saved MOs, projecting if necessary.

  Using orbitals from previous SCF, no projection.
  Recomputing DOCC and SOCC from number of alpha and beta electrons from previous calculation.
              A 
    DOCC [    28 ]

  ==> Iterations <==

                           Total Energy        Delta E     RMS |[F,P]|

   @DF-RHF iter   0:  -325.13824308959039   -3.25138e+02   2.27414e-04 
   @DF-RHF iter   1:  -325.14168128422767   -3.43819e-03   3.48063e-05 
   @DF-RHF iter   2:  -325.14181941819021   -1.38134e-04   1.17340e-05 DIIS
   @DF-RHF iter   3:  -325.14183818679118   -1.87686e-05   4.44302e-06 DIIS
   @DF-RHF iter   4:  -325.14183995704508   -1.77025e-06   8.59758e-07 DIIS
   @DF-RHF iter   5:  -325.14184005413614   -9.70911e-08   2.91686e-07 DIIS
   @DF-RHF iter   6:  -325.14184006483566   -1.06995e-08   8.71379e-08 DIIS
   @DF-RHF iter   7:  -325.14184006584225   -1.00658e-09   2.96426e-08 DIIS
   @DF-RHF iter   8:  -325.14184006596548   -1.23237e-10   7.83662e-09 DIIS

  ==> Post-Iterations <==

    Orbital Energies (a.u.)
    -----------------------

    Doubly Occupied:                                                      

       1A    -20.547241     2A    -15.542208     3A    -11.264103  
       4A    -11.263778     5A    -11.243054     6A    -11.242237  
       7A    -11.239430     8A     -1.386038     9A     -1.227953  
      10A     -1.038944    11A     -0.980777    12A     -0.883415  
      13A     -0.870620    14A     -0.773477    15A     -0.684492  
      16A     -0.645958    17A     -0.644717    18A     -0.632111  
      19A     -0.627824    20A     -0.572413    21A     -0.557618  
      22A     -0.545746    23A     -0.527160    24A     -0.500267  
      25A     -0.485278    26A     -0.453836    27A     -0.410376  
      28A     -0.349683  

    Virtual:                                                              

      29A      0.142793    30A      0.162687    31A      0.163579  
      32A      0.179689    33A      0.205987    34A      0.210216  
      35A      0.217954    36A      0.221138    37A      0.232215  
      38A      0.246379    39A      0.258286    40A      0.262002  
      41A      0.302894    42A      0.321087    43A      0.340193  
      44A      0.355342    45A      0.372995    46A      0.380272  
      47A      0.401507    48A      0.423709    49A      0.458154  
      50A      0.480794    51A      0.504249    52A      0.514636  
      53A      0.527889    54A      0.553731    55A      0.555527  
      56A      0.573481    57A      0.578233    58A      0.595522  
      59A      0.597904    60A      0.602437    61A      0.608906  
      62A      0.626020    63A      0.629229    64A      0.641642  
      65A      0.644945    66A      0.655564    67A      0.666361  
      68A      0.674553    69A      0.684273    70A      0.691764  
      71A      0.699437    72A      0.733229    73A      0.746502  
      74A      0.784957    75A      0.790942    76A      0.807974  
      77A      0.834364    78A      0.845390    79A      0.862658  
      80A      0.891042    81A      0.939506    82A      0.955186  
      83A      0.982339    84A      1.014221    85A      1.020508  
      86A      1.029074    87A      1.040810    88A      1.065564  
      89A      1.074859    90A      1.084459    91A      1.109763  
      92A      1.122912    93A      1.147193    94A      1.165236  
      95A      1.176388    96A      1.180446    97A      1.193130  
      98A      1.203337    99A      1.228100   100A      1.246997  
     101A      1.273287   102A      1.297757   103A      1.306918  
     104A      1.315315   105A      1.318408   106A      1.330778  
     107A      1.337557   108A      1.349359   109A      1.378316  
     110A      1.384288   111A      1.396631   112A      1.419802  
     113A      1.430475   114A      1.442230   115A      1.452609  
     116A      1.473888   117A      1.475664   118A      1.487859  
     119A      1.496239   120A      1.515044   121A      1.527307  
     122A      1.561059   123A      1.566280   124A      1.584937  
     125A      1.585893   126A      1.610092   127A      1.618946  
     128A      1.633399   129A      1.661721   130A      1.667772  
     131A      1.693147   132A      1.710265   133A      1.734571  
     134A      1.752784   135A      1.765144   136A      1.781395  
     137A      1.788663   138A      1.813514   139A      1.857213  
     140A      1.881732   141A      1.905012   142A      1.927820  
     143A      1.963879   144A      2.076665   145A      2.123140  
     146A      2.163559   147A      2.194751   148A      2.211721  
     149A      2.248885   150A      2.336496   151A      2.383778  
     152A      2.477819   153A      2.506973   154A      2.534744  
     155A      2.571092   156A      2.606830   157A      2.634605  
     158A      2.658659   159A      2.695351   160A      2.745692  
     161A      2.766975   162A      2.801410   163A      2.832871  
     164A      2.844214   165A      2.894268   166A      2.896967  
     167A      2.907210   168A      2.924885   169A      2.945623  
     170A      2.954615   171A      2.975540   172A      3.004438  
     173A      3.035279   174A      3.058420   175A      3.071823  
     176A      3.082069   177A      3.090209   178A      3.122604  
     179A      3.130900   180A      3.152552   181A      3.162361  
     182A      3.199349   183A      3.217096   184A      3.232772  
     185A      3.239383   186A      3.254480   187A      3.271284  
     188A      3.281637   189A      3.288728   190A      3.310380  
     191A      3.320859   192A      3.332764   193A      3.339437  
     194A      3.362715   195A      3.377468   196A      3.385580  
     197A      3.394725   198A      3.407942   199A      3.416181  
     200A      3.431115   201A      3.446411   202A      3.457229  
     203A      3.466290   204A      3.481660   205A      3.519044  
     206A      3.527069   207A      3.534981   208A      3.552709  
     209A      3.570409   210A      3.577372   211A      3.598175  
     212A      3.604257   213A      3.606572   214A      3.649801  
     215A      3.660611   216A      3.669857   217A      3.678067  
     218A      3.688355   219A      3.695392   220A      3.738349  
     221A      3.741030   222A      3.755310   223A      3.791601  
     224A      3.802266   225A      3.820393   226A      3.837125  
     227A      3.847982   228A      3.864741   229A      3.882473  
     230A      3.895741   231A      3.910703   232A      3.918211  
     233A      3.940590   234A      3.943173   235A      3.973337  
     236A      3.994901   237A      4.023679   238A      4.045498  
     239A      4.053438   240A      4.070031   241A      4.079796  
     242A      4.094315   243A      4.102477   244A      4.111194  
     245A      4.142778   246A      4.162358   247A      4.178773  
     248A      4.190422   249A      4.201211   250A      4.231928  
     251A      4.254659   252A      4.264256   253A      4.284728  
     254A      4.308766   255A      4.316298   256A      4.336472  
     257A      4.358640   258A      4.364647   259A      4.381454  
     260A      4.395727   261A      4.401800   262A      4.403338  
     263A      4.415213   264A      4.433189   265A      4.464350  
     266A      4.466118   267A      4.480891   268A      4.501990  
     269A      4.511913   270A      4.527755   271A      4.539814  
     272A      4.566109   273A      4.579587   274A      4.585047  
     275A      4.610631   276A      4.623501   277A      4.659165  
     278A      4.685918   279A      4.714137   280A      4.735375  
     281A      4.739277   282A      4.777169   283A      4.795627  
     284A      4.815436   285A      4.846384   286A      4.894581  
     287A      4.919208   288A      4.961443   289A      4.986849  
     290A      5.011867   291A      5.014083   292A      5.061097  
     293A      5.089763   294A      5.103273   295A      5.149983  
     296A      5.178048   297A      5.198494   298A      5.244360  
     299A      5.256458   300A      5.266543   301A      5.283450  
     302A      5.310968   303A      5.330156   304A      5.349211  
     305A      5.364792   306A      5.389551   307A      5.402640  
     308A      5.449507   309A      5.456777   310A      5.473028  
     311A      5.497829   312A      5.509097   313A      5.514261  
     314A      5.550018   315A      5.609738   316A      5.625313  
     317A      5.631042   318A      5.663949   319A      5.670894  
     320A      5.701617   321A      5.734448   322A      5.769200  
     323A      5.790552   324A      5.797790   325A      5.805850  
     326A      5.836418   327A      5.923877   328A      5.925391  
     329A      5.952127   330A      5.954708   331A      5.983717  
     332A      6.018727   333A      6.042871   334A      6.084599  
     335A      6.129571   336A      6.145712   337A      6.224518  
     338A      6.257694   339A      6.285176   340A      6.288695  
     341A      6.337512   342A      6.351132   343A      6.365428  
     344A      6.398126   345A      6.415920   346A      6.434843  
     347A      6.459830   348A      6.516029   349A      6.586500  
     350A      6.834349   351A      6.874744   352A      6.976342  
     353A      7.344319   354A      7.416117   355A      7.568377  
     356A      7.859590   357A      7.983825   358A     10.909580  
     359A     11.919153   360A     13.377548   361A     13.411945  
     362A     13.965642   363A     13.990769   364A     14.433249  

    Final Occupation by Irrep:
              A 
    DOCC [    28 ]

  Energy converged.

  @DF-RHF Final Energy:  -325.14184006596548

   => Energetics <=

    Nuclear Repulsion Energy =            341.1635850562658447
    One-Electron Energy =               -1118.3293370286276058
    Two-Electron Energy =                 452.0239119063963926
    DFT Exchange-Correlation Energy =       0.0000000000000000
    Empirical Dispersion Energy =           0.0000000000000000
    PCM Polarization Energy =               0.0000000000000000
    EFP Energy =                            0.0000000000000000
    Total Energy =                       -325.1418400659653116

    Alert: EFP and PCM quantities not currently incorporated into SCF psivars.

Properties will be evaluated at   0.000000,   0.000000,   0.000000 Bohr
  ==> Properties <==


Properties computed using the SCF density matrix

  Nuclear Dipole Moment: (a.u.)
     X:     4.5239      Y:     0.7958      Z:    -0.8720

  Electronic Dipole Moment: (a.u.)
     X:    -4.0163      Y:    -0.6928      Z:     0.7142

  Dipole Moment: (a.u.)
     X:     0.5076      Y:     0.1030      Z:    -0.1578     Total:     0.5415

  Dipole Moment: (Debye)
     X:     1.2903      Y:     0.2617      Z:    -0.4010     Total:     1.3762


  Saving occupied orbitals to File 180.

*** tstop() called on cx1-27-2-4 at Fri Sep  9 21:11:06 2016
Module time:
	user time   =      45.68 seconds =       0.76 minutes
	system time =       0.64 seconds =       0.01 minutes
	total time  =         14 seconds =       0.23 minutes
Total time:
	user time   =     211.28 seconds =       3.52 minutes
	system time =       2.16 seconds =       0.04 minutes
	total time  =         61 seconds =       1.02 minutes

*** tstart() called on cx1-27-2-4
*** at Fri Sep  9 21:11:06 2016


         ------------------------------------------------------------
                                   SCF GRAD                          
                          Rob Parrish, Justin Turney,                
                       Andy Simmonett, and Alex Sokolov              
         ------------------------------------------------------------

  ==> Geometry <==

    Molecular point group: c1
    Full point group: C1

    Geometry (in Angstrom), charge = 0, multiplicity = 1:

       Center              X                  Y                   Z               Mass       
    ------------   -----------------  -----------------  -----------------  -----------------
           H          2.863444269219     0.023532371201     0.377207285225     1.007825032070
           C          2.339844388983     0.387967339421    -0.505955903705    12.000000000000
           N          0.910175952868     0.127495423336    -0.459587110342    14.003074004780
           H          2.802290833978    -0.064950212405    -1.376445187030     1.007825032070
           H          2.516932823396     1.453570215046    -0.543292882708     1.007825032070
           C          0.107609520343     1.253950332817    -0.020386110636    12.000000000000
           C          0.574182338351    -1.078767925329     0.266947978749    12.000000000000
           H          0.344440151717     1.544323856856     1.008165492727     1.007825032070
           H          0.309680048408     2.106343080134    -0.657526860232     1.007825032070
           C         -1.366414078239     0.907729968231    -0.107759946537    12.000000000000
           H          1.120474131301    -1.915596660752    -0.154101973677     1.007825032070
           H          0.856223857933    -0.996443055358     1.320812988798     1.007825032070
           C         -0.914312353618    -1.351582330798     0.168559347973    12.000000000000
           H         -1.968959682987     1.701265877180     0.312000664380     1.007825032070
           H         -1.646168106244     0.777721919659    -1.151395421684     1.007825032070
           O         -1.657465949773    -0.254712354148     0.610242905269    15.994914619560
           H         -1.186837749142    -2.192211754605     0.791363160208     1.007825032070
           H         -1.174522903272    -1.587005323638    -0.861488438693     1.007825032070

  Nuclear repulsion =  341.163585056265845

  ==> Basis Set <==

  Basis Set: CC-PVTZ
    Number of shells: 136
    Number of basis function: 364
    Number of Cartesian functions: 410
    Spherical Harmonics?: true
    Max angular momentum: 3

  ==> DFJKGrad: Density-Fitted SCF Gradients <==

    Gradient:                    1
    J tasked:                  Yes
    K tasked:                  Yes
    wK tasked:                  No
    OpenMP threads:              4
    Integrals threads:           4
    Memory (MB):              1430
    Schwarz Cutoff:          0E+00
    Fitting Condition:       1E-12

   => Auxiliary Basis Set <=

  Basis Set: 
    Number of shells: 285
    Number of basis function: 883
    Number of Cartesian functions: 1057
    Spherical Harmonics?: true
    Max angular momentum: 4


  -Total Gradient:
     Atom            X                  Y                   Z
    ------   -----------------  -----------------  -----------------
       1        0.001211728734     0.000679398117    -0.001083913099
       2        0.003226264475    -0.001707042758    -0.003692112191
       3       -0.001769202103    -0.000676780604     0.003166862492
       4        0.001723259579     0.000982028797    -0.000572793150
       5       -0.000535460904    -0.000977886776     0.003461583097
       6       -0.003047912498     0.001742733062    -0.002560113787
       7       -0.000570877922    -0.001156537295     0.001091645367
       8        0.000108180235    -0.000059452844     0.000020535572
       9       -0.000178673258     0.000024023006     0.000067887694
      10       -0.000190648737     0.001076569402     0.000556774862
      11       -0.000111424869    -0.000163366137     0.000029383570
      12        0.000133225310     0.000460044797    -0.000271660324
      13       -0.000169627731     0.000097277512    -0.000185347210
      14       -0.000236774967     0.000001725076    -0.000093179726
      15        0.000083702696    -0.000043071181     0.000061296989
      16        0.000236627875    -0.000238773621     0.000000583373
      17        0.000083324773     0.000009048404    -0.000035931234
      18        0.000004289309    -0.000049936957     0.000038497706


*** tstop() called on cx1-27-2-4 at Fri Sep  9 21:11:35 2016
Module time:
	user time   =     108.65 seconds =       1.81 minutes
	system time =       0.88 seconds =       0.01 minutes
	total time  =         29 seconds =       0.48 minutes
Total time:
	user time   =     319.96 seconds =       5.33 minutes
	system time =       3.04 seconds =       0.05 minutes
	total time  =         90 seconds =       1.50 minutes
CURRENT ENERGY: -325.1418400660

			-----------------------------------------
			 OPTKING 2.0: for geometry optimizations 
			  - R.A. King,  Bethel University        
			-----------------------------------------

	Previous internal coordinate definitions found.
	---Fragment 1 Geometry and Gradient---
	 H           5.4111254656        0.0444697368        0.7128184644
	 C           4.4216650887        0.7331520200       -0.9561180933
	 N           1.7199832837        0.2409314333       -0.8684937727
	 H           5.2955622209       -0.1227381137       -2.6011044404
	 H           4.7563137311        2.7468496214       -1.0266747583
	 C           0.2033525227        2.3696227133       -0.0385241660
	 C           1.0850473698       -2.0385759398        0.5044585716
	 H           0.6508975559        2.9183491499        1.9051566779
	 H           0.5852104803        3.9804115634       -1.2425456909
	 C          -2.5821483920        1.7153610426       -0.2036367870
	 H           2.1173892471       -3.6199530699       -0.2912105268
	 H           1.6180285999       -1.8830044816        2.4959748216
	 C          -1.7277999483       -2.5541204513        0.3185310048
	 H          -3.7207945675        3.2149265871        0.5895958090
	 H          -3.1108068895        1.4696814357       -2.1758220176
	 O          -3.1321567197       -0.4813365920        1.1531919655
	 H          -2.2427983100       -4.1426798415        1.4954596444
	 H          -2.2195266240       -2.9990054331       -1.6279772158
	             0.0012117287        0.0006793981       -0.0010839131
	             0.0032262645       -0.0017070428       -0.0036921122
	            -0.0017692021       -0.0006767806        0.0031668625
	             0.0017232596        0.0009820288       -0.0005727931
	            -0.0005354609       -0.0009778868        0.0034615831
	            -0.0030479125        0.0017427331       -0.0025601138
	            -0.0005708779       -0.0011565373        0.0010916454
	             0.0001081802       -0.0000594528        0.0000205356
	            -0.0001786733        0.0000240230        0.0000678877
	            -0.0001906487        0.0010765694        0.0005567749
	            -0.0001114249       -0.0001633661        0.0000293836
	             0.0001332253        0.0004600448       -0.0002716603
	            -0.0001696277        0.0000972775       -0.0001853472
	            -0.0002367750        0.0000017251       -0.0000931797
	             0.0000837027       -0.0000430712        0.0000612970
	             0.0002366279       -0.0002387736        0.0000005834
	             0.0000833248        0.0000090484       -0.0000359312
	             0.0000042893       -0.0000499370        0.0000384977

	---Fragment 1 Intrafragment Coordinates---
	 - Coordinate -           - BOHR/RAD -       - ANG/DEG -
	 R(1,2)           =         2.058802	       1.089471
	 R(2,3)           =         2.747552	       1.453942
	 R(2,4)           =         2.049933	       1.084778
	 R(2,5)           =         2.042534	       1.080863
	 R(3,6)           =         2.742325	       1.451176
	 R(3,7)           =         2.735744	       1.447694
	 R(6,8)           =         2.068645	       1.094680
	 R(6,9)           =         2.046979	       1.083215
	 R(6,10)          =         2.866066	       1.516657
	 R(7,11)          =         2.049286	       1.084435
	 R(7,12)          =         2.067464	       1.094055
	 R(7,13)          =         2.865740	       1.516484
	 R(10,14)         =         2.043142	       1.081184
	 R(10,15)         =         2.056539	       1.088274
	 R(10,16)         =         2.639881	       1.396965
	 R(13,16)         =         2.639187	       1.396598
	 R(13,17)         =         2.043014	       1.081116
	 R(13,18)         =         2.056359	       1.088178
	 B(1,2,3)         =         1.967953	     112.755377
	 B(1,2,4)         =         1.881738	     107.815641
	 B(1,2,5)         =         1.853595	     106.203193
	 B(2,3,6)         =         1.998083	     114.481720
	 B(2,3,7)         =         1.975223	     113.171935
	 B(3,2,4)         =         1.949785	     111.714479
	 B(3,2,5)         =         1.916465	     109.805351
	 B(3,6,8)         =         1.950476	     111.754030
	 B(3,6,9)         =         1.906720	     109.246983
	 B(3,6,10)        =         1.920762	     110.051569
	 B(3,7,11)        =         1.908383	     109.342281
	 B(3,7,12)        =         1.940020	     111.154959
	 B(3,7,13)        =         1.923187	     110.190512
	 B(4,2,5)         =         1.890264	     108.304124
	 B(6,3,7)         =         1.946084	     111.502411
	 B(6,10,14)       =         1.930209	     110.592802
	 B(6,10,15)       =         1.909594	     109.411683
	 B(6,10,16)       =         1.942104	     111.274384
	 B(7,13,16)       =         1.939586	     111.130093
	 B(7,13,17)       =         1.928295	     110.483139
	 B(7,13,18)       =         1.912450	     109.575304
	 B(8,6,9)         =         1.879232	     107.672058
	 B(8,6,10)        =         1.901753	     108.962407
	 B(9,6,10)        =         1.903979	     109.089966
	 B(10,16,13)      =         1.960727	     112.341379
	 B(11,7,12)       =         1.877800	     107.590038
	 B(11,7,13)       =         1.907572	     109.295807
	 B(12,7,13)       =         1.906114	     109.212315
	 B(14,10,15)      =         1.893082	     108.465610
	 B(14,10,16)      =         1.870333	     107.162193
	 B(15,10,16)      =         1.917635	     109.872393
	 B(16,13,17)      =         1.869583	     107.119208
	 B(16,13,18)      =         1.919878	     110.000921
	 B(17,13,18)      =         1.893152	     108.469600
	 D(1,2,3,6)       =         1.714055	      98.208094
	 D(1,2,3,7)       =        -0.542148	     -31.062775
	 D(2,3,6,8)       =        -1.099387	     -62.990207
	 D(2,3,6,9)       =         0.978371	      56.056545
	 D(2,3,6,10)      =         3.068391	     175.805883
	 D(2,3,7,11)      =        -0.956731	     -54.816635
	 D(2,3,7,12)      =         1.113879	      63.820571
	 D(2,3,7,13)      =        -3.053700	    -174.964115
	 D(3,6,10,14)     =         3.040144	     174.187405
	 D(3,6,10,15)     =        -1.158835	     -66.396379
	 D(3,6,10,16)     =         0.963477	      55.203153
	 D(3,7,13,16)     =        -0.967609	     -55.439927
	 D(3,7,13,17)     =        -3.040479	    -174.206612
	 D(3,7,13,18)     =         1.157798	      66.336938
	 D(4,2,3,6)       =        -2.446604	    -140.180107
	 D(4,2,3,7)       =         1.580379	      90.549024
	*D(5,2,3,6)       =        -0.349066	     -20.000008
	 D(5,2,3,7)       =        -2.605268	    -149.270878
	 D(6,3,7,11)      =         3.043975	     174.406944
	 D(6,3,7,12)      =        -1.168600	     -66.955851
	 D(6,3,7,13)      =         0.947006	      54.259464
	 D(6,10,16,13)    =        -1.011148	     -57.934500
	 D(7,3,6,8)       =         1.171246	      67.107444
	 D(7,3,6,9)       =        -3.034182	    -173.845804
	 D(7,3,6,10)      =        -0.944161	     -54.096466
	 D(7,13,16,10)    =         1.011340	      57.945518
	 D(8,6,10,14)     =         0.895835	      51.327580
	 D(8,6,10,15)     =         2.980041	     170.743796
	 D(8,6,10,16)     =        -1.180832	     -67.656671
	 D(9,6,10,14)     =        -1.151358	     -65.967940
	 D(9,6,10,15)     =         0.932848	      53.448276
	 D(9,6,10,16)     =         3.055161	     175.047809
	 D(10,16,13,17)   =         3.119163	     178.714888
	 D(10,16,13,18)   =        -1.109732	     -63.582945
	 D(11,7,13,16)    =        -3.065068	    -175.615444
	 D(11,7,13,17)    =         1.145248	      65.617872
	 D(11,7,13,18)    =        -0.939660	     -53.838579
	 D(12,7,13,16)    =         1.168107	      66.927607
	 D(12,7,13,17)    =        -0.904763	     -51.839077
	 D(12,7,13,18)    =        -2.989671	    -171.295528
	 D(13,16,10,14)   =        -3.123283	    -178.950909
	 D(13,16,10,15)   =         1.106475	      63.396336

	Current energy   :      -325.1418400660

	Energy change for the previous step:
		Projected    :        -0.0020788203
		Actual       :        -0.0009397643

	Performing BFGS update.
	Previous computed or guess Hessian on step 1.
	Steps to be used in Hessian update: 1
	Taking RFO optimization step.
	Going to follow RFO solution 1.
	Using RFO vector 1.
	Norm of target step-size    0.05837
	Projected energy change by RFO approximation:        -0.0004549739

	Back-transformation to cartesian coordinates...
	Successfully converged to displaced geometry.

	Back-transformation to cartesian coordinates to adjust frozen coordinates...
	Successfully converged to displaced geometry.

	--- Internal Coordinate Step in ANG or DEG, aJ/ANG or AJ/DEG ---
	 ---------------------------------------------------------------------------
	   Coordinate                Previous        Force       Change         New 
	   ----------                --------       ------       ------       ------
	    1 R(1,2)          =      1.089471     0.004314     0.001020     1.090491
	    2 R(2,3)          =      1.453942    -0.044561    -0.005394     1.448548
	    3 R(2,4)          =      1.084778    -0.006461    -0.000859     1.083918
	    4 R(2,5)          =      1.080863     0.009651     0.000801     1.081663
	    5 R(3,6)          =      1.451176    -0.024020    -0.003573     1.447603
	    6 R(3,7)          =      1.447694    -0.009350    -0.001475     1.446218
	    7 R(6,8)          =      1.094680    -0.000222    -0.000020     1.094660
	    8 R(6,9)          =      1.083215     0.000448     0.000032     1.083247
	    9 R(6,10)         =      1.516657     0.001582     0.000048     1.516705
	   10 R(7,11)         =      1.084435    -0.000482    -0.000040     1.084396
	   11 R(7,12)         =      1.094055     0.001588     0.000228     1.094283
	   12 R(7,13)         =      1.516484    -0.001427    -0.000014     1.516470
	   13 R(10,14)        =      1.081184    -0.000800    -0.000111     1.081074
	   14 R(10,15)        =      1.088274     0.000619     0.000101     1.088374
	   15 R(10,16)        =      1.396965    -0.001371    -0.000034     1.396931
	   16 R(13,16)        =      1.396598    -0.001840     0.000094     1.396691
	   17 R(13,17)        =      1.081116     0.000402     0.000065     1.081181
	   18 R(13,18)        =      1.088178     0.000220     0.000034     1.088213
	   19 B(1,2,3)        =    112.755377    -0.000174    -0.719520   112.035858
	   20 B(1,2,4)        =    107.815641     0.000116     0.190297   108.005938
	   21 B(1,2,5)        =    106.203193     0.000048    -0.035545   106.167649
	   22 B(2,3,6)        =    114.481720    -0.000098    -0.095916   114.385804
	   23 B(2,3,7)        =    113.171935     0.000018     0.234158   113.406093
	   24 B(3,2,4)        =    111.714479    -0.000168    -0.486090   111.228388
	   25 B(3,2,5)        =    109.805351     0.000130     0.467699   110.273050
	   26 B(3,6,8)        =    111.754030     0.000024     0.182086   111.936117
	   27 B(3,6,9)        =    109.246983     0.000003    -0.030536   109.216447
	   28 B(3,6,10)       =    110.051569    -0.000051    -0.360008   109.691561
	   29 B(3,7,11)       =    109.342281    -0.000006    -0.083596   109.258685
	   30 B(3,7,12)       =    111.154959     0.000027     0.223316   111.378275
	   31 B(3,7,13)       =    110.190512    -0.000011    -0.063366   110.127146
	   32 B(4,2,5)        =    108.304124     0.000067     0.644296   108.948421
	   33 B(6,3,7)        =    111.502411     0.000073     0.366228   111.868640
	   34 B(6,10,14)      =    110.592802    -0.000031    -0.148333   110.444470
	   35 B(6,10,15)      =    109.411683     0.000004     0.069786   109.481469
	   36 B(6,10,16)      =    111.274384     0.000036     0.052006   111.326390
	   37 B(7,13,16)      =    111.130093    -0.000017    -0.002678   111.127415
	   38 B(7,13,17)      =    110.483139     0.000012     0.061585   110.544723
	   39 B(7,13,18)      =    109.575304     0.000000    -0.035312   109.539992
	   40 B(8,6,9)        =    107.672058    -0.000007     0.065228   107.737286
	   41 B(8,6,10)       =    108.962407     0.000016     0.083209   109.045616
	   42 B(9,6,10)       =    109.089966     0.000016     0.068457   109.158423
	   43 B(10,16,13)     =    112.341379    -0.000055     0.001691   112.343071
	   44 B(11,7,12)      =    107.590038    -0.000006    -0.047235   107.542803
	   45 B(11,7,13)      =    109.295807     0.000007     0.025341   109.321147
	   46 B(12,7,13)      =    109.212315    -0.000011    -0.055776   109.156540
	   47 B(14,10,15)     =    108.465610     0.000008     0.014397   108.480007
	   48 B(14,10,16)     =    107.162193    -0.000008    -0.056211   107.105982
	   49 B(15,10,16)     =    109.872393    -0.000010     0.065316   109.937709
	   50 B(16,13,17)     =    107.119208     0.000011     0.019564   107.138772
	   51 B(16,13,18)     =    110.000921    -0.000005    -0.053349   109.947572
	   52 B(17,13,18)     =    108.469600    -0.000001     0.011511   108.481111
	   53 D(1,2,3,6)      =     98.208094     0.000008    -0.190864    98.017231
	   54 D(1,2,3,7)      =    -31.062775     0.000001    -0.850840   -31.913615
	   55 D(2,3,6,8)      =    -62.990207    -0.000003    -0.827138   -63.817345
	   56 D(2,3,6,9)      =     56.056545    -0.000001    -0.652509    55.404036
	   57 D(2,3,6,10)     =    175.805883    -0.000003    -0.806132   174.999751
	   58 D(2,3,7,11)     =    -54.816635    -0.000005     0.376227   -54.440408
	   59 D(2,3,7,12)     =     63.820571    -0.000004     0.401418    64.221988
	   60 D(2,3,7,13)     =   -174.964115    -0.000004     0.436631  -174.527485
	   61 D(3,6,10,14)    =    174.187405     0.000002     0.091228   174.278632
	   62 D(3,6,10,15)    =    -66.396379     0.000000     0.061443   -66.334937
	   63 D(3,6,10,16)    =     55.203153     0.000003     0.224859    55.428012
	   64 D(3,7,13,16)    =    -55.439927     0.000001     0.418795   -55.021132
	   65 D(3,7,13,17)    =   -174.206612    -0.000001     0.356261  -173.850350
	   66 D(3,7,13,18)    =     66.336938    -0.000002     0.326166    66.663103
	   67 D(4,2,3,6)      =   -140.180107    -0.000014    -0.806790  -140.986897
	   68 D(4,2,3,7)      =     90.549024    -0.000021    -1.466766    89.082258
	   69 *D(5,2,3,6)     =    -20.000008    -0.000000     0.000000   -20.000008
	   70 D(5,2,3,7)      =   -149.270878    -0.000007    -0.659976  -149.930853
	   71 D(6,3,7,11)     =    174.406944     0.000008    -0.034479   174.372465
	   72 D(6,3,7,12)     =    -66.955851     0.000009    -0.009289   -66.965139
	   73 D(6,3,7,13)     =     54.259464     0.000008     0.025924    54.285388
	   74 D(6,10,16,13)   =    -57.934500    -0.000004    -0.191164   -58.125664
	   75 D(7,3,6,8)      =     67.107444    -0.000002    -0.238118    66.869326
	   76 D(7,3,6,9)      =   -173.845804    -0.000000    -0.063489  -173.909293
	   77 D(7,3,6,10)     =    -54.096466    -0.000002    -0.217112   -54.313578
	   78 D(7,13,16,10)   =     57.945518    -0.000002    -0.211840    57.733678
	   79 D(8,6,10,14)    =     51.327580     0.000000     0.042322    51.369902
	   80 D(8,6,10,15)    =    170.743796    -0.000002     0.012537   170.756333
	   81 D(8,6,10,16)    =    -67.656671     0.000002     0.175953   -67.480718
	   82 D(9,6,10,14)    =    -65.967940    -0.000002    -0.122188   -66.090128
	   83 D(9,6,10,15)    =     53.448276    -0.000004    -0.151973    53.296303
	   84 D(9,6,10,16)    =    175.047809    -0.000000     0.011443   175.059252
	   85 D(10,16,13,17)  =    178.714888     0.000001    -0.125678   178.589210
	   86 D(10,16,13,18)  =    -63.582945     0.000001    -0.129502   -63.712447
	   87 D(11,7,13,16)   =   -175.615444     0.000004     0.544996  -175.070448
	   88 D(11,7,13,17)   =     65.617872     0.000001     0.482463    66.100334
[...]
	 R(6,9)           =         2.047061	       1.083258
	 R(6,10)          =         2.867097	       1.517202
	 R(7,11)          =         2.049257	       1.084420
	 R(7,12)          =         2.068603	       1.094658
	 R(7,13)          =         2.866196	       1.516726
	 R(10,14)         =         2.043050	       1.081135
	 R(10,15)         =         2.056627	       1.088320
	 R(10,16)         =         2.639634	       1.396834
	 R(13,16)         =         2.639534	       1.396781
	 R(13,17)         =         2.043080	       1.081152
	 R(13,18)         =         2.056438	       1.088220
	 B(1,2,3)         =         1.955189	     112.024103
	 B(1,2,4)         =         1.883128	     107.895288
	 B(1,2,5)         =         1.851198	     106.065859
	 B(2,3,6)         =         2.000334	     114.610701
	 B(2,3,7)         =         1.979976	     113.444288
	 B(3,2,4)         =         1.940919	     111.206460
	 B(3,2,5)         =         1.926645	     110.388616
	 B(3,6,8)         =         1.954232	     111.969228
	 B(3,6,9)         =         1.906800	     109.251571
	 B(3,6,10)        =         1.916149	     109.787231
	 B(3,7,11)        =         1.907079	     109.267550
	 B(3,7,12)        =         1.944372	     111.404286
	 B(3,7,13)        =         1.922342	     110.142067
	 B(4,2,5)         =         1.903735	     109.075988
	 B(6,3,7)         =         1.955691	     112.052845
	 B(6,10,14)       =         1.929337	     110.542894
	 B(6,10,15)       =         1.910053	     109.437947
	 B(6,10,16)       =         1.941942	     111.265093
	 B(7,13,16)       =         1.939233	     111.109884
	 B(7,13,17)       =         1.929893	     110.574715
	 B(7,13,18)       =         1.911965	     109.547542
	 B(8,6,9)         =         1.879128	     107.666083
	 B(8,6,10)        =         1.901726	     108.960881
	 B(9,6,10)        =         1.904960	     109.146192
	 B(10,16,13)      =         1.961196	     112.368225
	 B(11,7,12)       =         1.875843	     107.477908
	 B(11,7,13)       =         1.908183	     109.330831
	 B(12,7,13)       =         1.905203	     109.160084
	 B(14,10,15)      =         1.893686	     108.500243
	 B(14,10,16)      =         1.869319	     107.104093
	 B(15,10,16)      =         1.918623	     109.928985
	 B(16,13,17)      =         1.869451	     107.111659
	 B(16,13,18)      =         1.918948	     109.947610
	 B(17,13,18)      =         1.893475	     108.488135
	 D(1,2,3,6)       =         1.709691	      97.958083
	 D(1,2,3,7)       =        -0.567084	     -32.491496
	 D(2,3,6,8)       =        -1.117538	     -64.030237
	 D(2,3,6,9)       =         0.962482	      55.146170
	 D(2,3,6,10)      =         3.050946	     174.806322
	 D(2,3,7,11)      =        -0.944481	     -54.114765
	 D(2,3,7,12)      =         1.125545	      64.488979
	 D(2,3,7,13)      =        -3.040861	    -174.228509
	 D(3,6,10,14)     =         3.038559	     174.096579
	 D(3,6,10,15)     =        -1.159924	     -66.458725
	 D(3,6,10,16)     =         0.963833	      55.223567
	 D(3,7,13,16)     =        -0.958558	     -54.921334
	 D(3,7,13,17)     =        -3.032071	    -173.724873
	 D(3,7,13,18)     =         1.165121	      66.756538
	 D(4,2,3,6)       =        -2.464608	    -141.211633
	 D(4,2,3,7)       =         1.541803	      88.338788
	*D(5,2,3,6)       =        -0.349066	     -20.000008
	 D(5,2,3,7)       =        -2.625841	    -150.449587
	 D(6,3,7,11)      =         3.039840	     174.170013
	 D(6,3,7,12)      =        -1.173319	     -67.226244
	 D(6,3,7,13)      =         0.943460	      54.056268
	 D(6,10,16,13)    =        -1.014477	     -58.125256
	 D(7,3,6,8)       =         1.171039	      67.095581
	 D(7,3,6,9)       =        -3.032126	    -173.728011
	 D(7,3,6,10)      =        -0.943662	     -54.067860
	 D(7,13,16,10)    =         1.009205	      57.823178
	 D(8,6,10,14)     =         0.892568	      51.140370
	 D(8,6,10,15)     =         2.977271	     170.585066
	 D(8,6,10,16)     =        -1.182158	     -67.732642
	 D(9,6,10,14)     =        -1.155040	     -66.178917
	 D(9,6,10,15)     =         0.929663	      53.265780
	 D(9,6,10,16)     =         3.053420	     174.948071
	 D(10,16,13,17)   =         3.118692	     178.687875
	 D(10,16,13,18)   =        -1.110394	     -63.620886
	 D(11,7,13,16)    =        -3.054271	    -174.996843
	 D(11,7,13,17)    =         1.155401	      66.199618
	 D(11,7,13,18)    =        -0.930592	     -53.318971
	 D(12,7,13,16)    =         1.181435	      67.691252
	 D(12,7,13,17)    =        -0.892078	     -51.112287
	 D(12,7,13,18)    =        -2.978071	    -170.630876
	 D(13,16,10,14)   =        -3.124800	    -179.037840
	 D(13,16,10,15)   =         1.104284	      63.270828

	Current energy   :      -325.1419813252

	Energy change for the previous step:
		Projected    :        -0.0000042355
		Actual       :        -0.0000009337
	Energy ratio indicates iffy step: Trust radius decreased to 3.125e-02.


	Performing BFGS update.
	Previous computed or guess Hessian on step 1.
	Steps to be used in Hessian update: 4 3
	Taking RFO optimization step.
	Going to follow RFO solution 1.
	Rejecting RFO root 1 because normalization gives large value.
	Using RFO vector 2.
	Norm of target step-size    0.00152
	Projected energy change by RFO approximation:         0.0000001950

	Back-transformation to cartesian coordinates...
	Successfully converged to displaced geometry.

	Back-transformation to cartesian coordinates to adjust frozen coordinates...
	Successfully converged to displaced geometry.

	--- Internal Coordinate Step in ANG or DEG, aJ/ANG or AJ/DEG ---
	 ---------------------------------------------------------------------------
	   Coordinate                Previous        Force       Change         New 
	   ----------                --------       ------       ------       ------
	    1 R(1,2)          =      1.091230    -0.000129    -0.000022     1.091208
	    2 R(2,3)          =      1.446624    -0.000566    -0.000100     1.446524
	    3 R(2,4)          =      1.083570     0.000369     0.000066     1.083636
	    4 R(2,5)          =      1.082076    -0.000067    -0.000003     1.082074
	    5 R(3,6)          =      1.446085     0.000078    -0.000011     1.446074
	    6 R(3,7)          =      1.444546    -0.000148    -0.000036     1.444510
	    7 R(6,8)          =      1.094972     0.000064     0.000021     1.094993
	    8 R(6,9)          =      1.083258     0.000041     0.000011     1.083269
	    9 R(6,10)         =      1.517202    -0.000160    -0.000019     1.517183
	   10 R(7,11)         =      1.084420     0.000017     0.000005     1.084425
	   11 R(7,12)         =      1.094658     0.000126     0.000027     1.094684
	   12 R(7,13)         =      1.516726    -0.000019    -0.000018     1.516707
	   13 R(10,14)        =      1.081135     0.000026    -0.000004     1.081131
	   14 R(10,15)        =      1.088320    -0.000079    -0.000007     1.088313
	   15 R(10,16)        =      1.396834    -0.000009     0.000017     1.396851
	   16 R(13,16)        =      1.396781     0.000094     0.000010     1.396791
	   17 R(13,17)        =      1.081152    -0.000139    -0.000023     1.081129
	   18 R(13,18)        =      1.088220     0.000121     0.000019     1.088239
	   19 B(1,2,3)        =    112.024103    -0.000001     0.000757   112.024860
	   20 B(1,2,4)        =    107.895288     0.000000     0.004768   107.900056
	   21 B(1,2,5)        =    106.065859     0.000001     0.002369   106.068228
	   22 B(2,3,6)        =    114.610701     0.000000     0.000984   114.611685
	   23 B(2,3,7)        =    113.444288    -0.000001     0.002664   113.446952
	   24 B(3,2,4)        =    111.206460     0.000002     0.008264   111.214724
	   25 B(3,2,5)        =    110.388616    -0.000001    -0.005089   110.383527
	   26 B(3,6,8)        =    111.969228     0.000001     0.006696   111.975924
	   27 B(3,6,9)        =    109.251571    -0.000000     0.001620   109.253192
	   28 B(3,6,10)       =    109.787231     0.000000     0.002107   109.789338
	   29 B(3,7,11)       =    109.267550    -0.000000    -0.000036   109.267514
	   30 B(3,7,12)       =    111.404286     0.000001     0.008742   111.413028
	   31 B(3,7,13)       =    110.142067    -0.000002    -0.010431   110.131637
	   32 B(4,2,5)        =    109.075988    -0.000002    -0.011577   109.064412
	   33 B(6,3,7)        =    112.052845     0.000001    -0.003070   112.049774
	   34 B(6,10,14)      =    110.542894    -0.000000    -0.003572   110.539322
	   35 B(6,10,15)      =    109.437947     0.000000    -0.000573   109.437374
	   36 B(6,10,16)      =    111.265093     0.000000     0.006766   111.271859
	   37 B(7,13,16)      =    111.109884     0.000001     0.001283   111.111168
	   38 B(7,13,17)      =    110.574715    -0.000003    -0.015069   110.559646
	   39 B(7,13,18)      =    109.547542     0.000001     0.009391   109.556933
	   40 B(8,6,9)        =    107.666083    -0.000000    -0.003988   107.662094
	   41 B(8,6,10)       =    108.960881    -0.000001    -0.009090   108.951791
	   42 B(9,6,10)       =    109.146192     0.000000     0.002501   109.148693
	   43 B(10,16,13)     =    112.368225    -0.000002    -0.004918   112.363307
	   44 B(11,7,12)      =    107.477908    -0.000000    -0.000151   107.477757
	   45 B(11,7,13)      =    109.330831     0.000000    -0.003575   109.327255
	   46 B(12,7,13)      =    109.160084     0.000001     0.005529   109.165613
	   47 B(14,10,15)     =    108.500243     0.000000     0.000244   108.500487
	   48 B(14,10,16)     =    107.104093     0.000001     0.007821   107.111915
	   49 B(15,10,16)     =    109.928985    -0.000001    -0.010807   109.918177
	   50 B(16,13,17)     =    107.111659    -0.000000    -0.000345   107.111314
	   51 B(16,13,18)     =    109.947610    -0.000000     0.004277   109.951887
	   52 B(17,13,18)     =    108.488135     0.000000     0.000189   108.488325
	   53 D(1,2,3,6)      =     97.958083     0.000000     0.000112    97.958195
	   54 D(1,2,3,7)      =    -32.491496    -0.000000     0.001062   -32.490434
	   55 D(2,3,6,8)      =    -64.030237    -0.000000    -0.011749   -64.041986
	   56 D(2,3,6,9)      =     55.146170    -0.000000    -0.011468    55.134702
	   57 D(2,3,6,10)     =    174.806322     0.000000    -0.006136   174.800186
	   58 D(2,3,7,11)     =    -54.114765    -0.000000     0.011280   -54.103485
	   59 D(2,3,7,12)     =     64.488979     0.000000     0.016419    64.505399
	   60 D(2,3,7,13)     =   -174.228509     0.000000     0.022135  -174.206374
	   61 D(3,6,10,14)    =    174.096579     0.000000    -0.002486   174.094092
	   62 D(3,6,10,15)    =    -66.458725     0.000000    -0.004749   -66.463474
	   63 D(3,6,10,16)    =     55.223567    -0.000000    -0.014291    55.209276
	   64 D(3,7,13,16)    =    -54.921334    -0.000000    -0.025763   -54.947097
	   65 D(3,7,13,17)    =   -173.724873    -0.000000    -0.016407  -173.741280
	   66 D(3,7,13,18)    =     66.756538    -0.000000    -0.013228    66.743310
	   67 D(4,2,3,6)      =   -141.211633     0.000000     0.012560  -141.199074
	   68 D(4,2,3,7)      =     88.338788     0.000000     0.013510    88.352298
	   69 *D(5,2,3,6)     =    -20.000008     0.000000    -0.000000   -20.000008
	   70 D(5,2,3,7)      =   -150.449587    -0.000000     0.000950  -150.448637
	   71 D(6,3,7,11)     =    174.170013    -0.000000     0.010288   174.180300
	   72 D(6,3,7,12)     =    -67.226244    -0.000000     0.015427   -67.210816
	   73 D(6,3,7,13)     =     54.056268     0.000000     0.021143    54.077411
	   74 D(6,10,16,13)   =    -58.125256     0.000000     0.016990   -58.108265
	   75 D(7,3,6,8)      =     67.095581    -0.000000    -0.009929    67.085653
	   76 D(7,3,6,9)      =   -173.728011    -0.000000    -0.009649  -173.737660
	   77 D(7,3,6,10)     =    -54.067860     0.000000    -0.004316   -54.072176
	   78 D(7,13,16,10)   =     57.823178     0.000000     0.004689    57.827867
	   79 D(8,6,10,14)    =     51.140370    -0.000000    -0.006234    51.134135
	   80 D(8,6,10,15)    =    170.585066    -0.000000    -0.008497   170.576569
	   81 D(8,6,10,16)    =    -67.732642    -0.000000    -0.018039   -67.750681
	   82 D(9,6,10,14)    =    -66.178917     0.000000     0.002303   -66.176614
	   83 D(9,6,10,15)    =     53.265780     0.000000     0.000040    53.265820
	   84 D(9,6,10,16)    =    174.948071    -0.000000    -0.009502   174.938569
	   85 D(10,16,13,17)  =    178.687875    -0.000000    -0.013206   178.674669
	   86 D(10,16,13,18)  =    -63.620886    -0.000000    -0.010875   -63.631761
	   87 D(11,7,13,16)   =   -174.996843    -0.000000    -0.017035  -175.013878
	   88 D(11,7,13,17)   =     66.199618     0.000000    -0.007679    66.191939
	   89 D(11,7,13,18)   =    -53.318971     0.000000    -0.004500   -53.323471
	   90 D(12,7,13,16)   =     67.691252    -0.000000    -0.017981    67.673271
	   91 D(12,7,13,17)   =    -51.112287    -0.000000    -0.008626   -51.120913
	   92 D(12,7,13,18)   =   -170.630876     0.000000    -0.005447  -170.636322
	   93 D(13,16,10,14)  =   -179.037840     0.000000     0.012373  -179.025467
	   94 D(13,16,10,15)  =     63.270828     0.000000     0.013429    63.284258
	 ---------------------------------------------------------------------------

  ==> Convergence Check <==

  Measures of convergence in internal coordinates in au.
  Criteria marked as inactive (o), active & met (*), and active & unmet ( ).
  ---------------------------------------------------------------------------------------------
   Step     Total Energy     Delta E     MAX Force     RMS Force      MAX Disp      RMS Disp   
  ---------------------------------------------------------------------------------------------
    Convergence Criteria    1.00e-06 *    3.00e-04 *             o    1.20e-03 *             o
  ---------------------------------------------------------------------------------------------
      5    -325.14198133   -9.34e-07 *    6.87e-05 *    1.40e-05 o    4.50e-04 *    1.57e-04 o  ~
  ---------------------------------------------------------------------------------------------


  **** Optimization is complete! (in 5 steps) ****

  ==> Optimization Summary <==

  Measures of convergence in internal coordinates in au.
  --------------------------------------------------------------------------------------------------------------- ~
   Step         Total Energy             Delta E       MAX Force       RMS Force        MAX Disp        RMS Disp  ~
  --------------------------------------------------------------------------------------------------------------- ~
      1    -325.140900301636   -325.140900301636      0.00902624      0.00197764      0.10451790      0.02228900  ~
      2    -325.141840065965     -0.000939764329      0.00540870      0.00084198      0.02559990      0.00602058  ~
      3    -325.141970554918     -0.000130488952      0.00101021      0.00019373      0.01236000      0.00283181  ~
      4    -325.141980391554     -0.000009836636      0.00023706      0.00005987      0.00196921      0.00070629  ~
      5    -325.141981325240     -0.000000933686      0.00006871      0.00001400      0.00044964      0.00015725  ~
  --------------------------------------------------------------------------------------------------------------- ~

	Writing optimization data to binary file.
	Final energy is   -325.1419813252399
	Final (previous) structure:
	Cartesian Geometry (in Angstrom)
	    H     2.8513160339   0.0337083513   0.3792000589
	    C     2.3307286487   0.3903332169  -0.5110754222
	    N     0.9089443148   0.1308259819  -0.4485703763
	    H     2.7790923946  -0.0888575914  -1.3733221157
	    H     2.5177824460   1.4549474724  -0.5610435874
	    C     0.1100291457   1.2553473429  -0.0145800874
	    C     0.5764809606  -1.0790760366   0.2671948042
	    H     0.3396855766   1.5478122468   1.0153162663
	    H     0.3158978719   2.1068310080  -0.6517938981
	    C    -1.3633264795   0.9063190963  -0.1110440409
	    H     1.1246802813  -1.9106557811  -0.1616637317
	    H     0.8581139441  -1.0090179738   1.3226805522
	    C    -0.9118088246  -1.3534104866   0.1662436335
	    H    -1.9690028245   1.6984768538   0.3066830379
	    H    -1.6371732563   0.7768530051  -1.1563607021
	    O    -1.6564931459  -0.2563564442   0.6054649581
	    H    -1.1862995470  -2.1938759987   0.7884667241
	    H    -1.1696339473  -1.5884232053  -0.8645416880
	Saving final (previous) structure.
			--------------------------
			 OPTKING Finished Execution 
			--------------------------

    Final optimized geometry and variables:
    Molecular point group: c1
    Full point group: C1

    Geometry (in Angstrom), charge = 0, multiplicity = 1:

    H            2.851315816211     0.033708348713     0.379200029982
    C            2.330728470680     0.390333187089    -0.511075383171
    N            0.908944245411     0.130825971909    -0.448570342033
    H            2.779092182384    -0.088857584611    -1.373322010856
    H            2.517782253700     1.454947361321    -0.561043544580
    C            0.110029137287     1.255347247041    -0.014580086324
    C            0.576480916543    -1.079075954194     0.267194783797
    H            0.339685550684     1.547812128598     1.015316188722
    H            0.315897847794     2.106830847147    -0.651793848357
    C           -1.363326375432     0.906319027066    -0.111044032404
    H            1.124680195414    -1.910655635225    -0.161663719372
    H            0.858113878595    -1.009017896755     1.322680451239
    C           -0.911808754955    -1.353410383206     0.166243620762
    H           -1.969002674107     1.698476724142     0.306683014501
    H           -1.637173131233     0.776852945817    -1.156360613781
    O           -1.656493019358    -0.256356424645     0.605464911896
    H           -1.186299456458    -2.193875831157     0.788466663887
    H           -1.169633857947    -1.588423083979    -0.864541621961

	Cleaning optimization helper files.


Properties will be evaluated at   0.000000,   0.000000,   0.000000 Bohr

Properties computed using the  density matrix

  Nuclear Dipole Moment: (a.u.)
     X:     4.5122      Y:     0.7744      Z:    -0.8924

  Electronic Dipole Moment: (a.u.)
     X:    -4.0061      Y:    -0.6753      Z:     0.7224

  Dipole Moment: (a.u.)
     X:     0.5061      Y:     0.0992      Z:    -0.1699     Total:     0.5430

  Dipole Moment: (Debye)
     X:     1.2863      Y:     0.2520      Z:    -0.4319     Total:     1.3801

  Quadrupole Moment: (Debye Ang)
    XX:   -46.0960     YY:   -40.1318     ZZ:   -46.3234
    XY:    -0.7815     XZ:     1.9313     YZ:    -0.3179

  Traceless Quadrupole Moment: (Debye Ang)
    XX:    -1.9123     YY:     4.0519     ZZ:    -2.1397
    XY:    -0.7815     XZ:     1.9313     YZ:    -0.3179

  Mulliken Charges: (a.u.)
   Center  Symbol    Alpha    Beta     Spin     Total
       1     H     0.46651  0.46651  0.00000  0.06699
       2     C     3.09213  3.09213  0.00000 -0.18425
       3     N     3.61818  3.61818  0.00000 -0.23635
       4     H     0.44909  0.44909  0.00000  0.10182
       5     H     0.45547  0.45547  0.00000  0.08907
       6     C     3.03938  3.03938  0.00000 -0.07875
       7     C     3.04060  3.04060  0.00000 -0.08121
       8     H     0.47005  0.47005  0.00000  0.05990
       9     H     0.45410  0.45410  0.00000  0.09179
      10     C     2.98418  2.98418  0.00000  0.03163
      11     H     0.45421  0.45421  0.00000  0.09157
      12     H     0.46897  0.46897  0.00000  0.06206
      13     C     2.98391  2.98391  0.00000  0.03218
      14     H     0.45003  0.45003  0.00000  0.09994
      15     H     0.46838  0.46838  0.00000  0.06325
      16     O     4.18646  4.18646  0.00000 -0.37293
      17     H     0.45011  0.45011  0.00000  0.09978
      18     H     0.46824  0.46824  0.00000  0.06353

   Total alpha = 28.00000, Total beta = 28.00000, Total charge = -0.00000


*** PSI4 exiting successfully. Buy a developer a beer!
