    -----------------------------------------------------------------------
          Psi4: An Open-Source Ab Initio Electronic Structure Package
                              Psi4 (no tag) Driver

                          Git: Rev {detached?}  

    J. M. Turney, A. C. Simmonett, R. M. Parrish, E. G. Hohenstein,
    F. A. Evangelista, J. T. Fermann, B. J. Mintz, L. A. Burns, J. J. Wilke,
    M. L. Abrams, N. J. Russ, M. L. Leininger, C. L. Janssen, E. T. Seidl,
    W. D. Allen, H. F. Schaefer, R. A. King, E. F. Valeev, C. D. Sherrill,
    and T. D. Crawford, WIREs Comput. Mol. Sci. 2, 556-565 (2012)
    (doi: 10.1002/wcms.93)

                         Additional Contributions by
    A. E. DePrince, M. Saitow, U. Bozkaya, A. Yu. Sokolov
    -----------------------------------------------------------------------


    Psi4 started on: Sat Sep 10 00:22:41 2016

    Process ID:  31151
    PSI4DATADIR: /export131/home/mjharvey/miniconda3/share
    Memory level set to 256.000 MB

  ==> Input File <==

--------------------------------------------------------------------------
set {
	reference rhf
	basis cc-pvtz
}


set_num_threads( 4 )
memory 2 gb

molecule MOL {
0 1

H	 -3.436473	 1.252944	 -1.023892
O	 -3.458596	 0.315260	 -0.960865
C	 -3.176635	 -0.080824	 0.355601
C	 -1.763371	 0.265266	 0.799691
H	 -3.321825	 -1.153438	 0.379502
H	 -3.895468	 0.357385	 1.043382
C	 -0.673390	 -0.426948	 -0.013392
H	 -1.631049	 1.344913	 0.747560
H	 -1.664587	 -0.001624	 1.849167
C	 0.737842	 -0.043159	 0.423759
H	 -0.806103	 -0.190518	 -1.063345
H	 -0.797221	 -1.503753	 0.074146
C	 1.824000	 -0.743224	 -0.390623
H	 0.850588	 1.033777	 0.343840
H	 0.868587	 -0.286314	 1.476203
C	 3.255957	 -0.453067	 0.062319
H	 1.718250	 -0.470599	 -1.438164
H	 1.658105	 -1.815850	 -0.339904
C	 4.239312	 -1.600518	 -0.155653
H	 3.237951	 -0.207675	 1.119785
H	 3.620201	 0.435014	 -0.447640
H	 3.897912	 -2.504623	 0.338430
H	 5.214476	 -1.352975	 0.248104
H	 4.371307	 -1.827923	 -1.206590

	symmetry c1
}
set optking {
	frozen_dihedral = ("
		20 16 13 17
	")
}

ee = optimize('scf')
oeprop('DIPOLE', 'QUADRUPOLE', 'MULLIKEN_CHARGES')
f=open( 'psi4out.xyz', 'w' )
f.write( "24  " )
f.write( str(ee) + "\n" )
f.write( MOL.save_string_xyz() )
f.close()
--------------------------------------------------------------------------

  Memory set to   2.000 GiB by Python script.
gradient() will perform analytic gradient computation.

*** tstart() called on cx1-27-1-3
*** at Sat Sep 10 00:22:41 2016


         ---------------------------------------------------------
                                   SCF
            by Justin Turney, Rob Parrish, and Andy Simmonett
                              RHF Reference
                        4 Threads,   2000 MiB Core
         ---------------------------------------------------------

  ==> Geometry <==

    Molecular point group: c1
    Full point group: C1

    Geometry (in Angstrom), charge = 0, multiplicity = 1:

       Center              X                  Y                   Z               Mass       
    ------------   -----------------  -----------------  -----------------  -----------------
           H         -3.505079812682     1.587875760060    -1.021553830610     1.007825032070
           O         -3.527202812682     0.650191760060    -0.958526830610    15.994914619560
           C         -3.245241812682     0.254107760060     0.357939169390    12.000000000000
           C         -1.831977812682     0.600197760060     0.802029169390    12.000000000000
           H         -3.390431812682    -0.818506239940     0.381840169390     1.007825032070
           H         -3.964074812682     0.692316760060     1.045720169390     1.007825032070
           C         -0.741996812682    -0.092016239940    -0.011053830610    12.000000000000
           H         -1.699655812682     1.679844760060     0.749898169390     1.007825032070
           H         -1.733193812682     0.333307760060     1.851505169390     1.007825032070
           C          0.669235187318     0.291772760060     0.426097169390    12.000000000000
           H         -0.874709812682     0.144413760060    -1.061006830610     1.007825032070
           H         -0.865827812682    -1.168821239940     0.076484169390     1.007825032070
           C          1.755393187318    -0.408292239940    -0.388284830610    12.000000000000
           H          0.781981187318     1.368708760060     0.346178169390     1.007825032070
           H          0.799980187318     0.048617760060     1.478541169390     1.007825032070
           C          3.187350187318    -0.118135239940     0.064657169390    12.000000000000
           H          1.649643187318    -0.135667239940    -1.435825830610     1.007825032070
           H          1.589498187318    -1.480918239940    -0.337565830610     1.007825032070
           C          4.170705187318    -1.265586239940    -0.153314830610    12.000000000000
           H          3.169344187318     0.127256760060     1.122123169390     1.007825032070
           H          3.551594187318     0.769945760060    -0.445301830610     1.007825032070
           H          3.829305187318    -2.169691239940     0.340768169390     1.007825032070
           H          5.145869187318    -1.018043239940     0.250442169390     1.007825032070
           H          4.302700187318    -1.492991239940    -1.204251830610     1.007825032070

  Running in c1 symmetry.

  Rotational constants: A =      0.24510  B =      0.01802  C =      0.01762 [cm^-1]
  Rotational constants: A =   7347.90552  B =    540.16553  C =    528.19748 [MHz]
  Nuclear repulsion =  380.855717932751759

  Charge       = 0
  Multiplicity = 1
  Electrons    = 66
  Nalpha       = 33
  Nbeta        = 33

  ==> Algorithm <==

  SCF Algorithm Type is DF.
  DIIS enabled.
  MOM disabled.
  Fractional occupation disabled.
  Guess Type is CORE.
  Energy threshold   = 1.00e-08
  Density threshold  = 1.00e-08
  Integral threshold = 0.00e+00

  ==> Primary Basis <==

  Basis Set: CC-PVTZ
    Number of shells: 176
    Number of basis function: 464
    Number of Cartesian functions: 520
    Spherical Harmonics?: true
    Max angular momentum: 3

  ==> Pre-Iterations <==

   -------------------------------------------------------
    Irrep   Nso     Nmo     Nalpha   Nbeta   Ndocc  Nsocc
   -------------------------------------------------------
     A        464     464       0       0       0       0
   -------------------------------------------------------
    Total     464     464      33      33      33       0
   -------------------------------------------------------

 OEINTS: Overlap, kinetic, potential, dipole, and quadrupole integrals
         stored in file 35.

  ==> Integral Setup <==

  ==> DFJK: Density-Fitted J/K Matrices <==

    J tasked:                  Yes
    K tasked:                  Yes
    wK tasked:                  No
    OpenMP threads:              4
    Integrals threads:           4
    Memory (MB):              1430
    Algorithm:                Core
    Integral Cache:           NONE
    Schwarz Cutoff:          1E-12
    Fitting Condition:       1E-12

   => Auxiliary Basis Set <=

  Basis Set: 
    Number of shells: 360
    Number of basis function: 1112
    Number of Cartesian functions: 1328
    Spherical Harmonics?: true
    Max angular momentum: 4

  Minimum eigenvalue in the overlap matrix is 2.5866600982E-04.
  Using Symmetric Orthogonalization.
  SCF Guess: Core (One-Electron) Hamiltonian.

  ==> Iterations <==

                           Total Energy        Delta E     RMS |[F,P]|

   @DF-RHF iter   1:  -235.72868419572433   -2.35729e+02   3.35615e-02 
   @DF-RHF iter   2:   -20.22816264362973    2.15501e+02   3.98186e-02 DIIS
   @DF-RHF iter   3:  -219.94024878348341   -1.99712e+02   1.93918e-02 DIIS
   @DF-RHF iter   4:  -168.73964997973212    5.12006e+01   2.68373e-02 DIIS
   @DF-RHF iter   5:  -300.10609534555931   -1.31366e+02   1.38498e-02 DIIS
   @DF-RHF iter   6:  -298.29086177886961    1.81523e+00   1.62103e-02 DIIS
   @DF-RHF iter   7:  -344.71075333140038   -4.64199e+01   5.61598e-03 DIIS
   @DF-RHF iter   8:  -349.22348008357062   -4.51273e+00   1.04537e-03 DIIS
   @DF-RHF iter   9:  -349.35503972485412   -1.31560e-01   4.35610e-04 DIIS
   @DF-RHF iter  10:  -349.37475837699708   -1.97187e-02   1.50164e-04 DIIS
   @DF-RHF iter  11:  -349.37819993701987   -3.44156e-03   5.97460e-05 DIIS
   @DF-RHF iter  12:  -349.37869279519168   -4.92858e-04   2.16024e-05 DIIS
   @DF-RHF iter  13:  -349.37876294002888   -7.01448e-05   6.96660e-06 DIIS
   @DF-RHF iter  14:  -349.37877135799363   -8.41796e-06   1.42339e-06 DIIS
   @DF-RHF iter  15:  -349.37877170528009   -3.47286e-07   3.75113e-07 DIIS
   @DF-RHF iter  16:  -349.37877173489744   -2.96174e-08   9.61682e-08 DIIS
   @DF-RHF iter  17:  -349.37877173687264   -1.97520e-09   2.39501e-08 DIIS
   @DF-RHF iter  18:  -349.37877173699758   -1.24942e-10   6.90365e-09 DIIS

  ==> Post-Iterations <==

    Orbital Energies (a.u.)
    -----------------------

    Doubly Occupied:                                                      

       1A    -20.546356     2A    -11.265630     3A    -11.215335  
       4A    -11.211225     5A    -11.211162     6A    -11.209108  
       7A    -11.208666     8A    -11.205932     9A     -1.364170  
      10A     -1.089351    11A     -1.049534    12A     -0.989261  
      13A     -0.915155    14A     -0.844226    15A     -0.798383  
      16A     -0.787471    17A     -0.681725    18A     -0.657820  
      19A     -0.630876    20A     -0.615970    21A     -0.592950  
      22A     -0.586543    23A     -0.552533    24A     -0.541656  
      25A     -0.529899    26A     -0.502727    27A     -0.497037  
      28A     -0.473250    29A     -0.465488    30A     -0.460751  
      31A     -0.456385    32A     -0.455234    33A     -0.421379  

    Virtual:                                                              

      34A      0.138674    35A      0.146323    36A      0.160762  
      37A      0.167337    38A      0.168370    39A      0.183449  
      40A      0.195983    41A      0.209424    42A      0.218039  
      43A      0.228776    44A      0.231614    45A      0.243819  
      46A      0.249164    47A      0.259573    48A      0.271892  
      49A      0.287618    50A      0.303750    51A      0.325421  
      52A      0.340250    53A      0.347880    54A      0.357789  
      55A      0.371373    56A      0.388340    57A      0.401312  
      58A      0.423318    59A      0.443662    60A      0.449542  
      61A      0.458000    62A      0.473762    63A      0.501189  
      64A      0.503262    65A      0.513552    66A      0.518794  
      67A      0.528795    68A      0.551368    69A      0.562339  
      70A      0.574244    71A      0.581279    72A      0.591301  
      73A      0.604051    74A      0.611592    75A      0.621399  
      76A      0.630458    77A      0.635136    78A      0.646641  
      79A      0.651334    80A      0.654120    81A      0.658562  
      82A      0.664730    83A      0.668436    84A      0.673286  
      85A      0.679577    86A      0.685552    87A      0.692611  
      88A      0.705534    89A      0.718041    90A      0.724675  
      91A      0.737105    92A      0.742543    93A      0.759650  
      94A      0.771293    95A      0.808319    96A      0.816421  
      97A      0.834171    98A      0.847338    99A      0.866005  
     100A      0.882894   101A      0.909248   102A      0.918473  
     103A      0.931789   104A      0.935748   105A      0.952015  
     106A      0.987466   107A      0.995119   108A      1.006887  
     109A      1.012299   110A      1.029604   111A      1.036764  
     112A      1.052065   113A      1.063403   114A      1.081458  
     115A      1.093067   116A      1.108598   117A      1.125140  
     118A      1.144041   119A      1.151760   120A      1.170358  
     121A      1.190447   122A      1.221688   123A      1.234096  
     124A      1.235657   125A      1.244462   126A      1.271666  
     127A      1.278486   128A      1.283528   129A      1.291679  
     130A      1.296930   131A      1.308020   132A      1.314233  
     133A      1.323807   134A      1.330474   135A      1.336207  
     136A      1.352851   137A      1.362066   138A      1.369855  
     139A      1.379048   140A      1.395850   141A      1.401946  
     142A      1.416444   143A      1.422234   144A      1.431468  
     145A      1.450162   146A      1.457391   147A      1.465230  
     148A      1.480903   149A      1.488943   150A      1.497788  
     151A      1.501925   152A      1.510394   153A      1.519000  
     154A      1.525837   155A      1.547346   156A      1.559077  
     157A      1.569224   158A      1.574591   159A      1.585706  
     160A      1.594445   161A      1.611868   162A      1.628348  
     163A      1.630516   164A      1.641098   165A      1.647689  
     166A      1.659905   167A      1.693678   168A      1.695814  
     169A      1.711070   170A      1.726528   171A      1.732353  
     172A      1.764351   173A      1.774901   174A      1.787616  
     175A      1.795878   176A      1.806312   177A      1.822395  
     178A      1.826319   179A      1.835909   180A      1.850082  
     181A      1.883549   182A      1.900513   183A      1.944791  
     184A      1.963318   185A      1.983087   186A      2.015467  
     187A      2.061075   188A      2.153989   189A      2.249330  
     190A      2.293333   191A      2.370116   192A      2.431547  
     193A      2.524006   194A      2.557741   195A      2.585611  
     196A      2.620592   197A      2.646144   198A      2.659592  
     199A      2.693025   200A      2.701080   201A      2.705640  
     202A      2.713211   203A      2.730856   204A      2.743240  
     205A      2.774692   206A      2.787762   207A      2.795967  
     208A      2.807969   209A      2.816150   210A      2.830396  
     211A      2.852041   212A      2.854797   213A      2.856585  
     214A      2.874303   215A      2.910384   216A      2.923862  
     217A      2.939431   218A      2.945702   219A      2.956088  
     220A      2.972070   221A      2.991410   222A      3.010610  
     223A      3.017480   224A      3.029180   225A      3.038249  
     226A      3.068008   227A      3.070846   228A      3.080943  
     229A      3.101153   230A      3.128260   231A      3.132799  
     232A      3.149119   233A      3.166273   234A      3.200850  
     235A      3.227385   236A      3.239082   237A      3.249310  
     238A      3.252055   239A      3.266062   240A      3.271793  
     241A      3.286263   242A      3.304834   243A      3.319706  
     244A      3.329295   245A      3.330066   246A      3.345864  
     247A      3.351012   248A      3.370996   249A      3.376631  
     250A      3.393285   251A      3.394889   252A      3.404560  
     253A      3.407767   254A      3.415447   255A      3.426013  
     256A      3.432367   257A      3.439711   258A      3.447597  
     259A      3.449433   260A      3.455543   261A      3.474849  
     262A      3.476990   263A      3.490707   264A      3.506172  
     265A      3.509690   266A      3.518579   267A      3.542911  
     268A      3.552151   269A      3.564555   270A      3.577444  
     271A      3.579372   272A      3.585015   273A      3.596029  
     274A      3.611442   275A      3.615577   276A      3.620499  
     277A      3.630623   278A      3.665591   279A      3.668316  
     280A      3.682302   281A      3.712114   282A      3.725781  
     283A      3.749145   284A      3.771574   285A      3.783144  
     286A      3.796436   287A      3.811326   288A      3.827207  
     289A      3.832282   290A      3.842767   291A      3.854367  
     292A      3.862189   293A      3.884119   294A      3.900725  
     295A      3.907601   296A      3.915158   297A      3.930901  
     298A      3.942314   299A      3.953667   300A      3.957724  
     301A      3.972016   302A      3.999263   303A      4.012388  
     304A      4.021605   305A      4.041487   306A      4.054068  
     307A      4.090858   308A      4.097774   309A      4.102401  
     310A      4.111802   311A      4.119263   312A      4.136953  
     313A      4.148407   314A      4.152649   315A      4.165788  
     316A      4.173271   317A      4.179950   318A      4.195359  
     319A      4.197818   320A      4.206477   321A      4.216542  
     322A      4.231163   323A      4.238192   324A      4.247191  
     325A      4.256121   326A      4.275043   327A      4.282631  
     328A      4.288667   329A      4.303729   330A      4.320145  
     331A      4.326823   332A      4.342342   333A      4.359515  
     334A      4.372360   335A      4.375709   336A      4.383453  
     337A      4.389006   338A      4.397067   339A      4.417802  
     340A      4.424470   341A      4.443674   342A      4.455790  
     343A      4.460852   344A      4.463154   345A      4.480471  
     346A      4.493613   347A      4.503936   348A      4.514722  
     349A      4.534257   350A      4.546196   351A      4.554827  
     352A      4.567160   353A      4.580321   354A      4.595953  
     355A      4.611866   356A      4.617537   357A      4.634912  
     358A      4.649183   359A      4.656995   360A      4.659652  
     361A      4.686600   362A      4.688873   363A      4.702111  
     364A      4.718627   365A      4.729018   366A      4.739326  
     367A      4.749279   368A      4.766867   369A      4.782995  
     370A      4.800769   371A      4.821406   372A      4.830197  
     373A      4.854723   374A      4.885135   375A      4.946860  
     376A      4.990204   377A      5.000432   378A      5.027595  
     379A      5.035373   380A      5.041690   381A      5.073783  
     382A      5.085604   383A      5.115618   384A      5.144329  
     385A      5.151165   386A      5.171068   387A      5.188891  
     388A      5.203753   389A      5.211507   390A      5.222105  
     391A      5.233679   392A      5.243605   393A      5.268631  
     394A      5.280265   395A      5.295455   396A      5.313040  
     397A      5.321528   398A      5.333774   399A      5.346315  
     400A      5.357018   401A      5.379442   402A      5.399423  
     403A      5.416019   404A      5.455526   405A      5.468641  
     406A      5.489113   407A      5.502979   408A      5.526568  
     409A      5.550262   410A      5.566989   411A      5.599301  
     412A      5.619687   413A      5.632958   414A      5.648182  
     415A      5.737162   416A      5.739132   417A      5.755505  
     418A      5.770615   419A      5.781166   420A      5.811753  
     421A      5.824911   422A      5.839460   423A      5.847522  
     424A      5.861184   425A      5.891253   426A      5.897587  
     427A      5.911354   428A      5.920530   429A      5.931946  
     430A      5.958359   431A      5.968774   432A      5.991623  
     433A      6.013086   434A      6.048710   435A      6.060526  
     436A      6.101412   437A      6.130168   438A      6.217206  
     439A      6.287907   440A      6.328305   441A      6.334691  
     442A      6.352765   443A      6.377212   444A      6.413365  
     445A      6.459184   446A      6.504340   447A      6.535216  
     448A      6.760581   449A      7.077660   450A      7.178286  
     451A      7.265725   452A      7.301374   453A      7.427646  
     454A      7.534226   455A      7.722776   456A      8.028920  
     457A     12.799345   458A     12.992722   459A     13.319123  
     460A     13.509047   461A     13.675329   462A     13.839190  
     463A     14.066979   464A     14.265334  

    Final Occupation by Irrep:
              A 
    DOCC [    33 ]

  Energy converged.

  @DF-RHF Final Energy:  -349.37877173699758

   => Energetics <=

    Nuclear Repulsion Energy =            380.8557179327517588
    One-Electron Energy =               -1228.4026058848646699
    Two-Electron Energy =                 498.1681162151152193
    DFT Exchange-Correlation Energy =       0.0000000000000000
    Empirical Dispersion Energy =           0.0000000000000000
    PCM Polarization Energy =               0.0000000000000000
    EFP Energy =                            0.0000000000000000
    Total Energy =                       -349.3787717369976917

    Alert: EFP and PCM quantities not currently incorporated into SCF psivars.

Properties will be evaluated at   0.000000,   0.000000,   0.000000 Bohr
  ==> Properties <==


Properties computed using the SCF density matrix

  Nuclear Dipole Moment: (a.u.)
     X:     8.2205      Y:    -1.4334      Z:     1.9997

  Electronic Dipole Moment: (a.u.)
     X:    -8.0593      Y:     1.8499      Z:    -1.5339

  Dipole Moment: (a.u.)
     X:     0.1612      Y:     0.4165      Z:     0.4658     Total:     0.6453

  Dipole Moment: (Debye)
     X:     0.4098      Y:     1.0586      Z:     1.1839     Total:     1.6402


  Saving occupied orbitals to File 180.

*** tstop() called on cx1-27-1-3 at Sat Sep 10 00:23:14 2016
Module time:
	user time   =     110.38 seconds =       1.84 minutes
	system time =       1.52 seconds =       0.03 minutes
	total time  =         33 seconds =       0.55 minutes
Total time:
	user time   =     110.38 seconds =       1.84 minutes
	system time =       1.52 seconds =       0.03 minutes
	total time  =         33 seconds =       0.55 minutes

*** tstart() called on cx1-27-1-3
*** at Sat Sep 10 00:23:14 2016


         ------------------------------------------------------------
                                   SCF GRAD                          
                          Rob Parrish, Justin Turney,                
                       Andy Simmonett, and Alex Sokolov              
         ------------------------------------------------------------

  ==> Geometry <==

    Molecular point group: c1
    Full point group: C1

    Geometry (in Angstrom), charge = 0, multiplicity = 1:

       Center              X                  Y                   Z               Mass       
    ------------   -----------------  -----------------  -----------------  -----------------
           H         -3.505079812682     1.587875760060    -1.021553830610     1.007825032070
           O         -3.527202812682     0.650191760060    -0.958526830610    15.994914619560
           C         -3.245241812682     0.254107760060     0.357939169390    12.000000000000
           C         -1.831977812682     0.600197760060     0.802029169390    12.000000000000
           H         -3.390431812682    -0.818506239940     0.381840169390     1.007825032070
           H         -3.964074812682     0.692316760060     1.045720169390     1.007825032070
           C         -0.741996812682    -0.092016239940    -0.011053830610    12.000000000000
           H         -1.699655812682     1.679844760060     0.749898169390     1.007825032070
           H         -1.733193812682     0.333307760060     1.851505169390     1.007825032070
           C          0.669235187318     0.291772760060     0.426097169390    12.000000000000
           H         -0.874709812682     0.144413760060    -1.061006830610     1.007825032070
           H         -0.865827812682    -1.168821239940     0.076484169390     1.007825032070
           C          1.755393187318    -0.408292239940    -0.388284830610    12.000000000000
           H          0.781981187318     1.368708760060     0.346178169390     1.007825032070
           H          0.799980187318     0.048617760060     1.478541169390     1.007825032070
           C          3.187350187318    -0.118135239940     0.064657169390    12.000000000000
           H          1.649643187318    -0.135667239940    -1.435825830610     1.007825032070
           H          1.589498187318    -1.480918239940    -0.337565830610     1.007825032070
           C          4.170705187318    -1.265586239940    -0.153314830610    12.000000000000
           H          3.169344187318     0.127256760060     1.122123169390     1.007825032070
           H          3.551594187318     0.769945760060    -0.445301830610     1.007825032070
           H          3.829305187318    -2.169691239940     0.340768169390     1.007825032070
           H          5.145869187318    -1.018043239940     0.250442169390     1.007825032070
           H          4.302700187318    -1.492991239940    -1.204251830610     1.007825032070

  Nuclear repulsion =  380.855717932751759

  ==> Basis Set <==

  Basis Set: CC-PVTZ
    Number of shells: 176
    Number of basis function: 464
    Number of Cartesian functions: 520
    Spherical Harmonics?: true
    Max angular momentum: 3

  ==> DFJKGrad: Density-Fitted SCF Gradients <==

    Gradient:                    1
    J tasked:                  Yes
    K tasked:                  Yes
    wK tasked:                  No
    OpenMP threads:              4
    Integrals threads:           4
    Memory (MB):              1430
    Schwarz Cutoff:          0E+00
    Fitting Condition:       1E-12

   => Auxiliary Basis Set <=

  Basis Set: 
    Number of shells: 360
    Number of basis function: 1112
    Number of Cartesian functions: 1328
    Spherical Harmonics?: true
    Max angular momentum: 4


  -Total Gradient:
     Atom            X                  Y                   Z
    ------   -----------------  -----------------  -----------------
       1       -0.000001907073     0.000024618227    -0.000026981954
       2       -0.000036819397     0.000063166289    -0.000051179856
       3        0.000025679603    -0.000066029771     0.000012554604
       4       -0.000051578513    -0.000029689816    -0.000024789388
       5        0.000023416760    -0.000004343340     0.000044588114
       6        0.000004531808     0.000005817089     0.000002205146
       7        0.000032959305    -0.000288622620     0.000309092405
       8        0.000011459438     0.000008788187    -0.000006644115
       9        0.000003438729    -0.000011238775    -0.000007585303
      10       -0.000370245113     0.000489358730     0.000453186094
      11        0.000081717823     0.000011709989    -0.000006061894
      12       -0.000098696245    -0.000029502837    -0.000017494725
      13        0.000204810980     0.004711075404     0.003906968849
      14       -0.001440945743    -0.001329367927    -0.000053529750
      15        0.000005607988     0.000007216890     0.000453567501
      16       -0.000393655191    -0.004797794635    -0.003725256633
      17        0.000868863035     0.001690020679    -0.000368221455
      18        0.001782923700     0.000163633258    -0.000274347482
      19        0.000650303590    -0.000731802783     0.000031081891
      20       -0.001760401906     0.000449941884    -0.000703368588
      21       -0.000429768129     0.000029886387    -0.001717556272
      22       -0.000056659527    -0.000402018953     0.000131454334
      23       -0.000170449278    -0.000167824300     0.000229875861
      24        0.001115413355     0.000203002745     0.001408442612


*** tstop() called on cx1-27-1-3 at Sat Sep 10 00:24:10 2016
Module time:
	user time   =     218.06 seconds =       3.63 minutes
	system time =       0.97 seconds =       0.02 minutes
	total time  =         56 seconds =       0.93 minutes
Total time:
	user time   =     328.46 seconds =       5.47 minutes
	system time =       2.49 seconds =       0.04 minutes
	total time  =         89 seconds =       1.48 minutes
CURRENT ENERGY: -349.3787717370

			-----------------------------------------
			 OPTKING 2.0: for geometry optimizations 
			  - R.A. King,  Bethel University        
			-----------------------------------------

	Internal coordinates to be generated automatically.
	Detected frag with atoms:  1 2 3 4 5 6 7 8 9 10 11 12 13 14 15 16 17 18 19 20
	 21 22 23 24
	---Fragment 1 Bond Connectivity---
	 1 : 2
	 2 : 1 3
	 3 : 2 4 5 6
	 4 : 3 7 8 9
	 5 : 3
	 6 : 3
	 7 : 4 10 11 12
	 8 : 4
	 9 : 4
	 10 : 7 13 14 15
	 11 : 7
	 12 : 7
	 13 : 10 16 17 18
	 14 : 10
	 15 : 10
	 16 : 13 19 20 21
	 17 : 13
	 18 : 13
	 19 : 16 22 23 24
	 20 : 16
	 21 : 16
	 22 : 19
	 23 : 19
	 24 : 19

	Assuming in current code that numbering for constraints corresponds to unified fragment.
	Frozen dihedral atom list: 
	    20    16    13    17
	---Fragment 1 Geometry and Gradient---
	 H          -6.6236409199        3.0006503196       -1.9304569699
	 O          -6.6654473311        1.2286843604       -1.8113532009
	 C          -6.1326182610        0.4801940748        0.6764070024
	 C          -3.4619363475        1.1342093921        1.5156154807
	 H          -6.4069875982       -1.5467526315        0.7215733467
	 H          -7.4910157662        1.3082890737        1.9761247318
	 C          -1.4021707674       -0.1738854933       -0.0208887126
	 H          -3.2118840061        3.1744465423        1.4171021677
	 H          -3.2752616412        0.6298603845        3.4988377038
	 C           1.2646712225        0.5513706095        0.8052069561
	 H          -1.6529619917        0.2729024563       -2.0050123350
	 H          -1.6361774442       -2.2087520418        0.1445341336
	 C           3.3172123796       -0.7715605157       -0.7337519914
	 H           1.4777302851        2.5864847122        0.6541819333
	 H           1.5117434658        0.0918742517        2.7940378863
	 C           6.0232189436       -0.2232432501        0.1221843427
	 H           3.1173738410       -0.2563739287       -2.7133175944
	 H           3.0037162627       -2.7985298987       -0.6379069717
	 C           7.8814905850       -2.3916113910       -0.2897230420
	 H           5.9891925349        0.2404804251        2.1205054775
	 H           6.7115403492        1.4549866237       -0.8414985063
	 H           7.2363380833       -4.1001222364        0.6439585150
	 H           9.7242834797       -1.9238229149        0.4732671123
	 H           8.1309249859       -2.8213445623       -2.2757061549
	            -0.0000019071        0.0000246182       -0.0000269820
	            -0.0000368194        0.0000631663       -0.0000511799
	             0.0000256796       -0.0000660298        0.0000125546
	            -0.0000515785       -0.0000296898       -0.0000247894
	             0.0000234168       -0.0000043433        0.0000445881
	             0.0000045318        0.0000058171        0.0000022051
	             0.0000329593       -0.0002886226        0.0003090924
	             0.0000114594        0.0000087882       -0.0000066441
	             0.0000034387       -0.0000112388       -0.0000075853
	            -0.0003702451        0.0004893587        0.0004531861
	             0.0000817178        0.0000117100       -0.0000060619
	            -0.0000986962       -0.0000295028       -0.0000174947
	             0.0002048110        0.0047110754        0.0039069688
	            -0.0014409457       -0.0013293679       -0.0000535298
	             0.0000056080        0.0000072169        0.0004535675
	            -0.0003936552       -0.0047977946       -0.0037252566
	             0.0008688630        0.0016900207       -0.0003682215
	             0.0017829237        0.0001636333       -0.0002743475
	             0.0006503036       -0.0007318028        0.0000310819
	            -0.0017604019        0.0004499419       -0.0007033686
	            -0.0004297681        0.0000298864       -0.0017175563
	            -0.0000566595       -0.0004020190        0.0001314543
	            -0.0001704493       -0.0001678243        0.0002298759
	             0.0011154134        0.0002030027        0.0014084426

	Previous optimization step data not found.  Starting new optimization.

	---Fragment 1 Intrafragment Coordinates---
	 - Coordinate -           - BOHR/RAD -       - ANG/DEG -
	 R(1,2)           =         1.776456	       0.940060
	 R(2,3)           =         2.651998	       1.403377
	 R(3,4)           =         2.874813	       1.521286
	 R(3,5)           =         2.045930	       1.082660
	 R(3,6)           =         2.054325	       1.087102
	 R(4,7)           =         2.883503	       1.525884
	 R(4,8)           =         2.057863	       1.088974
	 R(4,9)           =         2.054844	       1.087377
	 R(7,10)          =         2.884524	       1.526424
	 R(7,11)          =         2.049210	       1.084395
	 R(7,12)          =         2.054947	       1.087431
	 R(10,13)         =         2.886428	       1.527432
	 R(10,14)         =         2.051802	       1.085767
	 R(10,15)         =         2.056120	       1.088052
	 R(13,16)         =         2.890631	       1.529656
	 R(13,17)         =         2.055245	       1.087589
	 R(13,18)         =         2.053307	       1.086564
	 R(16,19)         =         2.885249	       1.526808
	 R(16,20)         =         2.051703	       1.085714
	 R(16,21)         =         2.054003	       1.086931
	 R(19,22)         =         2.051095	       1.085393
	 R(19,23)         =         2.048625	       1.084086
	 R(19,24)         =         2.047197	       1.083330
	 B(1,2,3)         =         1.917382	     109.857880
	 B(2,3,4)         =         1.978258	     113.345861
	 B(2,3,5)         =         1.847704	     105.865657
	 B(2,3,6)         =         1.925028	     110.295994
	 B(3,4,7)         =         1.987611	     113.881728
	 B(3,4,8)         =         1.901235	     108.932738
	 B(3,4,9)         =         1.886305	     108.077317
	 B(4,3,5)         =         1.921465	     110.091821
	 B(4,3,6)         =         1.915473	     109.748538
	 B(4,7,10)        =         1.975509	     113.188316
	 B(4,7,11)        =         1.906681	     109.244779
	 B(4,7,12)        =         1.901783	     108.964112
	 B(5,3,6)         =         1.872048	     107.260452
	 B(7,4,8)         =         1.915008	     109.721893
	 B(7,4,9)         =         1.915639	     109.758006
	 B(7,10,13)       =         1.970891	     112.923739
	 B(7,10,14)       =         1.901077	     108.923706
	 B(7,10,15)       =         1.909138	     109.385572
	 B(8,4,9)         =         1.853035	     106.171057
	 B(10,7,11)       =         1.913062	     109.610374
	 B(10,7,12)       =         1.908372	     109.341639
	 B(10,13,16)      =         2.005198	     114.889392
	 B(10,13,17)      =         1.906577	     109.238824
	 B(10,13,18)      =         1.895462	     108.601958
	 B(11,7,12)       =         1.854492	     106.254557
	 B(13,10,14)      =         1.919325	     109.969210
	 B(13,10,15)      =         1.904820	     109.138157
	 B(13,16,19)      =         2.002141	     114.714244
	 B(13,16,20)      =         1.892044	     108.406135
	 B(13,16,21)      =         1.906854	     109.254702
	 B(14,10,15)      =         1.854985	     106.282831
	 B(16,13,17)      =         1.905700	     109.188547
	 B(16,13,18)      =         1.892686	     108.442923
	 B(16,19,22)      =         1.937393	     111.004443
	 B(16,19,23)      =         1.933251	     110.767099
	 B(16,19,24)      =         1.954896	     112.007309
	 B(17,13,18)      =         1.852058	     106.115102
	 B(19,16,20)      =         1.896095	     108.638220
	 B(19,16,21)      =         1.908405	     109.343579
	 B(20,16,21)      =         1.852356	     106.132178
	 B(22,19,23)      =         1.879267	     107.674093
	 B(22,19,24)      =         1.880810	     107.762479
	 B(23,19,24)      =         1.875107	     107.435718
	 D(1,2,3,4)       =        -1.135895	     -65.081972
	 D(1,2,3,5)       =         3.039395	     174.144510
	 D(1,2,3,6)       =         1.019675	      58.423088
	 D(2,3,4,7)       =        -1.089366	     -62.416066
	 D(2,3,4,8)       =         1.054284	      60.406016
	 D(2,3,4,9)       =         3.060386	     175.347189
	 D(3,4,7,10)      =         3.117777	     178.635459
	 D(3,4,7,11)      =         0.980963	      56.205063
	 D(3,4,7,12)      =        -1.038154	     -59.481819
	 D(4,7,10,13)     =         3.137973	     179.792631
	 D(4,7,10,14)     =        -1.007570	     -57.729496
	 D(4,7,10,15)     =         1.013097	      58.046163
	 D(5,3,4,7)       =         0.976321	      55.939057
	 D(5,3,4,8)       =         3.119970	     178.761138
	 D(5,3,4,9)       =        -1.157113	     -66.297688
	 D(6,3,4,7)       =         3.033020	     173.779226
	 D(6,3,4,8)       =        -1.106516	     -63.398692
	 D(6,3,4,9)       =         0.899586	      51.542481
	 D(7,10,13,16)    =        -3.083034	    -176.644830
	 D(7,10,13,17)    =         1.052152	      60.283844
	 D(7,10,13,18)    =        -0.960542	     -55.034980
	 D(8,4,7,10)      =         0.981679	      56.246076
	 D(8,4,7,11)      =        -1.155134	     -66.184320
	 D(8,4,7,12)      =         3.108934	     178.128799
	 D(9,4,7,10)      =        -1.048208	     -60.057873
	 D(9,4,7,11)      =         3.098164	     177.511731
	 D(9,4,7,12)      =         1.079047	      61.824850
	 D(10,13,16,19)   =         2.591796	     148.498990
	 D(10,13,16,20)   =         0.469525	      26.901785
	 D(10,13,16,21)   =        -1.541810	     -88.339233
	 D(11,7,10,13)    =        -1.011954	     -57.980719
	 D(11,7,10,14)    =         1.125688	      64.497155
	 D(11,7,10,15)    =        -3.136831	    -179.727187
	 D(12,7,10,13)    =         1.014413	      58.121576
	 D(12,7,10,14)    =        -3.131130	    -179.400551
	 D(12,7,10,15)    =        -1.110464	     -63.624892
	 D(13,16,19,22)   =        -0.986875	     -56.543776
	 D(13,16,19,23)   =        -3.073674	    -176.108532
	 D(13,16,19,24)   =         1.116379	      63.963783
	 D(14,10,13,16)   =         1.072746	      61.463831
	 D(14,10,13,17)   =        -1.075254	     -61.607495
	 D(14,10,13,18)   =        -3.087947	    -176.926319
	 D(15,10,13,16)   =        -0.955725	     -54.759006
	 D(15,10,13,17)   =        -3.103725	    -177.830331
	 D(15,10,13,18)   =         1.166767	      66.850844
	 D(17,13,16,19)   =        -1.542920	     -88.402790
	*D(17,13,16,20)   =         2.617994	     150.000005
	 D(17,13,16,21)   =         0.606659	      34.758987
	 D(18,13,16,19)   =         0.467796	      26.802711
	 D(18,13,16,20)   =        -1.654476	     -94.794494
	 D(18,13,16,21)   =         2.617374	     149.964488
	 D(20,16,19,22)   =         1.133185	      64.926713
	 D(20,16,19,23)   =        -0.953614	     -54.638043
	 D(20,16,19,24)   =        -3.046747	    -174.565727
	 D(21,16,19,22)   =        -3.135622	    -179.657880
	 D(21,16,19,23)   =         1.060765	      60.777364
	 D(21,16,19,24)   =        -1.032368	     -59.150320

	Current energy   :      -349.3787717370

	Generating empirical Hessian (Schlegel '84) for each fragment.
	Taking RFO optimization step.
	Going to follow RFO solution 1.
	Using RFO vector 1.
	Norm of target step-size    0.43892
	Projected energy change by RFO approximation:        -0.0007381005

	Back-transformation to cartesian coordinates...
	Successfully converged to displaced geometry.

	Back-transformation to cartesian coordinates to adjust frozen coordinates...
	Successfully converged to displaced geometry.

	--- Internal Coordinate Step in ANG or DEG, aJ/ANG or AJ/DEG ---
	 ---------------------------------------------------------------------------
	   Coordinate                Previous        Force       Change         New 
	   ----------                --------       ------       ------       ------
	    1 R(1,2)          =      0.940060    -0.000217    -0.000023     0.940037
	    2 R(2,3)          =      1.403377    -0.000872    -0.000124     1.403253
	    3 R(3,4)          =      1.521286     0.000112     0.000024     1.521309
	    4 R(3,5)          =      1.082660    -0.000018    -0.000003     1.082657
	    5 R(3,6)          =      1.087102    -0.000006    -0.000001     1.087101
	    6 R(4,7)          =      1.525884     0.000159     0.000034     1.525918
	    7 R(4,8)          =      1.088974    -0.000086    -0.000016     1.088958
	    8 R(4,9)          =      1.087377     0.000035     0.000006     1.087383
	    9 R(7,10)         =      1.526424    -0.000160    -0.000034     1.526390
	   10 R(7,11)         =      1.084395     0.000013     0.000002     1.084398
	   11 R(7,12)         =      1.087431    -0.000322    -0.000059     1.087372
	   12 R(10,13)        =      1.527432    -0.011025    -0.002374     1.525058
	   13 R(10,14)        =      1.085767     0.012063     0.002184     1.087951
	   14 R(10,15)        =      1.088052    -0.003607    -0.000658     1.087394
	   15 R(13,16)        =      1.529656     0.027127     0.005882     1.535538
	   16 R(13,17)        =      1.087589    -0.005716    -0.001041     1.086548
	   17 R(13,18)        =      1.086564     0.003679     0.000668     1.087231
	   18 R(16,19)        =      1.526808    -0.012849    -0.002761     1.524047
	   19 R(16,20)        =      1.085714     0.004566     0.000827     1.086541
	   20 R(16,21)        =      1.086931    -0.005654    -0.001028     1.085904
	   21 R(19,22)        =      1.085393    -0.003399    -0.000615     1.084778
	   22 R(19,23)        =      1.084086     0.000874     0.000157     1.084243
	   23 R(19,24)        =      1.083330     0.010488     0.001884     1.085214
	   24 B(1,2,3)        =    109.857880    -0.000003    -0.015864   109.842016
	   25 B(2,3,4)        =    113.345861    -0.000002    -0.007963   113.337899
	   26 B(2,3,5)        =    105.865657    -0.000003    -0.032128   105.833528
	   27 B(2,3,6)        =    110.295994     0.000001     0.012620   110.308615
	   28 B(3,4,7)        =    113.881728    -0.000002    -0.007554   113.874174
	   29 B(3,4,8)        =    108.932738     0.000001     0.001211   108.933949
	   30 B(3,4,9)        =    108.077317     0.000000    -0.002498   108.074819
	   31 B(4,3,5)        =    110.091821     0.000003     0.010060   110.101880
	   32 B(4,3,6)        =    109.748538     0.000001     0.013855   109.762393
	   33 B(4,7,10)       =    113.188316    -0.000005    -0.017855   113.170461
	   34 B(4,7,11)       =    109.244779    -0.000002     0.008338   109.253117
	   35 B(4,7,12)       =    108.964112     0.000005     0.002297   108.966409
	   36 B(5,3,6)        =    107.260452    -0.000001     0.002705   107.263157
	   37 B(7,4,8)        =    109.721893     0.000001     0.003380   109.725273
	   38 B(7,4,9)        =    109.758006     0.000002     0.008970   109.766976
	   39 B(7,10,13)      =    112.923739     0.000049     0.202826   113.126565
	   40 B(7,10,14)      =    108.923706     0.000037     0.287623   109.211328
	   41 B(7,10,15)      =    109.385572    -0.000004     0.191529   109.577101
	   42 B(8,4,9)        =    106.171057    -0.000001    -0.003383   106.167674
	   43 B(10,7,11)      =    109.610374     0.000008     0.071726   109.682100
	   44 B(10,7,12)      =    109.341639    -0.000006    -0.070043   109.271595
	   45 B(10,13,16)     =    114.889392    -0.000358    -1.562244   113.327148
	   46 B(10,13,17)     =    109.238824     0.000024    -1.699602   107.539222
	   47 B(10,13,18)     =    108.601958     0.000075     0.554228   109.156186
	   48 B(11,7,12)      =    106.254557    -0.000000     0.006603   106.261160
	   49 B(13,10,14)     =    109.969210    -0.000074    -0.558537   109.410672
	   50 B(13,10,15)     =    109.138157    -0.000013    -0.031984   109.106174
	   51 B(13,16,19)     =    114.714244    -0.000349    -0.925202   113.789042
	   52 B(13,16,20)     =    108.406135     0.000204     1.707897   110.114032
	   53 B(13,16,21)     =    109.254702     0.000126    -0.365626   108.889076
	   54 B(14,10,15)     =    106.282831     0.000003    -0.110446   106.172385
	   55 B(16,13,17)     =    109.188547     0.000144     0.034148   109.222694
	   56 B(16,13,18)     =    108.442923     0.000208     2.030976   110.473899
	   57 B(16,19,22)     =    111.004443     0.000001    -0.035042   110.969400
	   58 B(16,19,23)     =    110.767099     0.000027     0.245426   111.012526
	   59 B(16,19,24)     =    112.007309    -0.000103    -0.564271   111.443039
	   60 B(17,13,18)     =    106.115102    -0.000075     0.764971   106.880073
	   61 B(19,16,20)     =    108.638220     0.000089     1.506682   110.144902
	   62 B(19,16,21)     =    109.343579     0.000043    -0.753140   108.590439
	   63 B(20,16,21)     =    106.132178    -0.000096    -1.218971   104.913207
	   64 B(22,19,23)     =    107.674093     0.000008     0.198332   107.872426
	   65 B(22,19,24)     =    107.762479     0.000024    -0.112579   107.649900
	   66 B(23,19,24)     =    107.435718     0.000049     0.293186   107.728904
	   67 D(1,2,3,4)      =    -65.081972    -0.000000    -0.028227   -65.110199
	   68 D(1,2,3,5)      =    174.144510    -0.000000    -0.014433   174.130077
	   69 D(1,2,3,6)      =     58.423088     0.000000    -0.006250    58.416838
	   70 D(2,3,4,7)      =    -62.416066     0.000000     0.092769   -62.323297
	   71 D(2,3,4,8)      =     60.406016     0.000000     0.092812    60.498828
	   72 D(2,3,4,9)      =    175.347189     0.000000     0.088133   175.435322
	   73 D(3,4,7,10)     =    178.635459     0.000001     0.185419   178.820878
	   74 D(3,4,7,11)     =     56.205063    -0.000000     0.099331    56.304394
	   75 D(3,4,7,12)     =    -59.481819    -0.000000     0.085601   -59.396218
	   76 D(4,7,10,13)    =    179.792631     0.000004    -0.014112   179.778519
	   77 D(4,7,10,14)    =    -57.729496    -0.000005    -0.384459   -58.113955
	   78 D(4,7,10,15)    =     58.046163     0.000000    -0.249120    57.797043
	   79 D(5,3,4,7)      =     55.939057    -0.000000     0.053800    55.992856
	   80 D(5,3,4,8)      =    178.761138    -0.000000     0.053843   178.814981
	   81 D(5,3,4,9)      =    -66.297688    -0.000000     0.049163   -66.248525
	   82 D(6,3,4,7)      =    173.779226     0.000000     0.071497   173.850723
	   83 D(6,3,4,8)      =    -63.398692     0.000000     0.071541   -63.327152
	   84 D(6,3,4,9)      =     51.542481     0.000000     0.066861    51.609342
	   85 D(7,10,13,16)   =   -176.644830    -0.000014    -6.966419  -183.611249
	   86 D(7,10,13,17)   =     60.283844    -0.000003    -4.713651    55.570193
	   87 D(7,10,13,18)   =    -55.034980     0.000005    -5.000007   -60.034986
	   88 D(8,4,7,10)     =     56.246076     0.000001     0.186631    56.432707
	   89 D(8,4,7,11)     =    -66.184320    -0.000000     0.100542   -66.083777
	   90 D(8,4,7,12)     =    178.128799    -0.000000     0.086812   178.215611
	   91 D(9,4,7,10)     =    -60.057873     0.000001     0.183587   -59.874285
	   92 D(9,4,7,11)     =    177.511731    -0.000000     0.097499   177.609230
	   93 D(9,4,7,12)     =     61.824850    -0.000001     0.083769    61.908619
	   94 D(10,13,16,19)  =    148.498990     0.000033     5.850508   154.349498
	   95 D(10,13,16,20)  =     26.901785     0.000026     3.235440    30.137225
	   96 D(10,13,16,21)  =    -88.339233     0.000011     3.958412   -84.380821
	   97 D(11,7,10,13)   =    -57.980719     0.000004     0.036750   -57.943969
	   98 D(11,7,10,14)   =     64.497155    -0.000005    -0.333597    64.163558
	   99 D(11,7,10,15)   =   -179.727187     0.000000    -0.198257  -179.925444
	  100 D(12,7,10,13)   =     58.121576     0.000004     0.045352    58.166928
	  101 D(12,7,10,14)   =   -179.400551    -0.000004    -0.324994  -179.725546
	  102 D(12,7,10,15)   =    -63.624892     0.000000    -0.189655   -63.814548
	  103 D(13,16,19,22)  =    -56.543776    -0.000011    -6.081856   -62.625632
	  104 D(13,16,19,23)  =   -176.108532    -0.000017    -6.470178  -182.578711
	  105 D(13,16,19,24)  =     63.963783    -0.000020    -6.630535    57.333248
	  106 D(14,10,13,16)  =     61.463831    -0.000021    -7.071044    54.392787
	  107 D(14,10,13,17)  =    -61.607495    -0.000010    -4.818276   -66.425771
	  108 D(14,10,13,18)  =   -176.926319    -0.000002    -5.104632  -182.030950
	  109 D(15,10,13,16)  =    -54.759006    -0.000010    -6.607389   -61.366395
	  110 D(15,10,13,17)  =   -177.830331     0.000001    -4.354622  -182.184953
	  111 D(15,10,13,18)  =     66.850844     0.000009    -4.640977    62.209867
	  112 D(17,13,16,19)  =    -88.402790     0.000007     2.615067   -85.787723
	  113 *D(17,13,16,20) =    150.000005     0.000000    -0.000000   150.000005
	  114 D(17,13,16,21)  =     34.758987    -0.000015     0.722971    35.481958
	  115 D(18,13,16,19)  =     26.802711     0.000031     4.695734    31.498446
	  116 D(18,13,16,20)  =    -94.794494     0.000023     2.080667   -92.713827
	  117 D(18,13,16,21)  =    149.964488     0.000008     2.803639   152.768127
	  118 D(20,16,19,22)  =     64.926713     0.000011    -3.356720    61.569994
	  119 D(20,16,19,23)  =    -54.638043     0.000005    -3.745042   -58.383085
	  120 D(20,16,19,24)  =   -174.565727     0.000002    -3.905400  -178.471127
	  121 D(21,16,19,22)  =   -179.657880     0.000001    -4.403720  -184.061600
	  122 D(21,16,19,23)  =     60.777364    -0.000005    -4.792043    55.985322
	  123 D(21,16,19,24)  =    -59.150320    -0.000008    -4.952400   -64.102720
	 ---------------------------------------------------------------------------

  ==> Convergence Check <==

  Measures of convergence in internal coordinates in au.
  Criteria marked as inactive (o), active & met (*), and active & unmet ( ).
  --------------------------------------------------------------------------------------------- ~
   Step     Total Energy     Delta E     MAX Force     RMS Force      MAX Disp      RMS Disp    ~
  --------------------------------------------------------------------------------------------- ~
    Convergence Criteria    1.00e-06 *    3.00e-04 *             o    1.20e-03 *             o  ~
  --------------------------------------------------------------------------------------------- ~
      1    -349.37877174   -3.49e+02      4.70e-03      9.59e-04 o    1.23e-01      3.96e-02 o  ~
  ---------------------------------------------------------------------------------------------

	Writing optimization data to binary file.
	Structure for next step:
	Cartesian Geometry (in Angstrom)
	    H    -3.4391697312   1.6577755129  -1.0494076423
	    O    -3.4934082340   0.7208630679  -0.9953431268
	    C    -3.2514759013   0.3050329790   0.3228655077
	    C    -1.8366630335   0.6001289811   0.7978442486
	    H    -3.4326621146  -0.7622981355   0.3338814145
	    H    -3.9692026549   0.7611027444   1.0001078201
	    C    -0.7542054288  -0.1199641445  -0.0010165307
	    H    -1.6680192976   1.6752576866   0.7592707844
	    H    -1.7675041370   0.3202216312   1.8463056870
	    C     0.6596358440   0.2096229977   0.4704613310
	    H    -0.8572012805   0.1319951184  -1.0506959263
	    H    -0.9158812942  -1.1927757199   0.0718880018
	    C     1.7404633896  -0.5147197806  -0.3251147706
	    H     0.8186720072   1.2836898713   0.4017157338
	    H     0.7614212244  -0.0448822982   1.5227409627
	    C     3.1661033809  -0.1198514187   0.0865986048
	    H     1.5914897156  -0.2741847853  -1.3741789483
	    H     1.5989505731  -1.5879607169  -0.2241186395
	    C     4.2082706755  -1.1947395636  -0.1983952398
	    H     3.1890680525   0.1542820566   1.1377384280
	    H     3.4475508680   0.7846407838  -0.4443139689
	    H     4.0029405293  -2.0951361300   0.3707002586
	    H     5.2022657840  -0.8526567976   0.0671917034
	    H     4.2217682634  -1.4655548225  -1.2491884539
			--------------------------
			 OPTKING Finished Execution 
			--------------------------

    Structure for next step:
    Molecular point group: c1
    Full point group: C1

    Geometry (in Angstrom), charge = 0, multiplicity = 1:

    H           -3.440564627935     1.657792682681    -1.049878737367
    O           -3.494803126643     0.720880309187    -0.995814225970
    C           -3.252870812362     0.305050252067     0.322394307794
    C           -1.838058052608     0.600146231658     0.797373012489
    H           -3.434057011883    -0.762280780899     0.333410213798
    H           -3.970597511151     0.761119982665     0.999636568505
    C           -0.755600530565    -0.119946838917    -0.001487705831
    H           -1.669414329599     1.675274855065     0.758799551156
    H           -1.768899161384     0.320238903172     1.845834370820
    C            0.658240634224     0.209640278040     0.469990119809
    H           -0.858596374403     0.132012404703    -1.051167021246
    H           -0.917276383656    -1.192758332452     0.071416821046
    C            1.739068097348    -0.514702444871    -0.325585920997
    H            0.817276785349     1.283707069699     0.401244527891
    H            0.760026006851    -0.044864998397     1.522269671156
    C            3.164707979787    -0.119834113159     0.086127422920
    H            1.590094434686    -0.274167467979    -1.374650018603
    H            1.597555291645    -1.587943299222    -0.224589797612
    C            4.206875194804    -1.194722175954    -0.198866399919
    H            3.187672649559     0.154299341186     1.137267165858
    H            3.446155445321     0.784658020259    -0.444785110199
    H            4.001545064196    -2.095118673626     0.370229055065
    H            5.200870227374    -0.852639436144     0.066720523083
    H            4.220372781607    -1.465537414245    -1.249659533737

gradient() will perform analytic gradient computation.

*** tstart() called on cx1-27-1-3
*** at Sat Sep 10 00:24:11 2016


         ---------------------------------------------------------
                                   SCF
            by Justin Turney, Rob Parrish, and Andy Simmonett
                              RHF Reference
                        4 Threads,   2000 MiB Core
         ---------------------------------------------------------

  ==> Geometry <==

    Molecular point group: c1
    Full point group: C1

    Geometry (in Angstrom), charge = 0, multiplicity = 1:

       Center              X                  Y                   Z               Mass       
    ------------   -----------------  -----------------  -----------------  -----------------
           H         -3.440564627935     1.657792682681    -1.049878737367     1.007825032070
           O         -3.494803126643     0.720880309187    -0.995814225970    15.994914619560
           C         -3.252870812362     0.305050252067     0.322394307794    12.000000000000
           C         -1.838058052608     0.600146231658     0.797373012489    12.000000000000
           H         -3.434057011883    -0.762280780899     0.333410213798     1.007825032070
           H         -3.970597511151     0.761119982665     0.999636568505     1.007825032070
           C         -0.755600530565    -0.119946838917    -0.001487705831    12.000000000000
           H         -1.669414329599     1.675274855065     0.758799551156     1.007825032070
           H         -1.768899161384     0.320238903172     1.845834370820     1.007825032070
           C          0.658240634224     0.209640278040     0.469990119809    12.000000000000
           H         -0.858596374403     0.132012404703    -1.051167021246     1.007825032070
           H         -0.917276383656    -1.192758332452     0.071416821046     1.007825032070
           C          1.739068097348    -0.514702444871    -0.325585920997    12.000000000000
           H          0.817276785349     1.283707069699     0.401244527891     1.007825032070
           H          0.760026006851    -0.044864998397     1.522269671156     1.007825032070
           C          3.164707979787    -0.119834113159     0.086127422920    12.000000000000
           H          1.590094434686    -0.274167467979    -1.374650018603     1.007825032070
           H          1.597555291645    -1.587943299222    -0.224589797612     1.007825032070
           C          4.206875194804    -1.194722175954    -0.198866399919    12.000000000000
           H          3.187672649559     0.154299341186     1.137267165858     1.007825032070
           H          3.446155445321     0.784658020259    -0.444785110199     1.007825032070
           H          4.001545064196    -2.095118673626     0.370229055065     1.007825032070
           H          5.200870227374    -0.852639436144     0.066720523083     1.007825032070
           H          4.220372781607    -1.465537414245    -1.249659533737     1.007825032070

  Running in c1 symmetry.

  Rotational constants: A =      0.24780  B =      0.01802  C =      0.01759 [cm^-1]
  Rotational constants: A =   7428.98152  B =    540.36380  C =    527.44688 [MHz]
  Nuclear repulsion =  380.964768985271007

  Charge       = 0
  Multiplicity = 1
  Electrons    = 66
  Nalpha       = 33
  Nbeta        = 33

  ==> Algorithm <==

  SCF Algorithm Type is DF.
  DIIS enabled.
  MOM disabled.
  Fractional occupation disabled.
  Guess Type is READ.
  Energy threshold   = 1.00e-08
  Density threshold  = 1.00e-08
  Integral threshold = 0.00e+00

  ==> Primary Basis <==

  Basis Set: CC-PVTZ
    Number of shells: 176
    Number of basis function: 464
    Number of Cartesian functions: 520
    Spherical Harmonics?: true
    Max angular momentum: 3

  ==> Pre-Iterations <==

   -------------------------------------------------------
    Irrep   Nso     Nmo     Nalpha   Nbeta   Ndocc  Nsocc
   -------------------------------------------------------
     A        464     464       0       0       0       0
   -------------------------------------------------------
    Total     464     464      33      33      33       0
   -------------------------------------------------------

 OEINTS: Overlap, kinetic, potential, dipole, and quadrupole integrals
         stored in file 35.

  ==> Integral Setup <==

  ==> DFJK: Density-Fitted J/K Matrices <==

    J tasked:                  Yes
    K tasked:                  Yes
    wK tasked:                  No
    OpenMP threads:              4
    Integrals threads:           4
    Memory (MB):              1430
    Algorithm:                Core
    Integral Cache:           NONE
    Schwarz Cutoff:          1E-12
    Fitting Condition:       1E-12

   => Auxiliary Basis Set <=

  Basis Set: 
    Number of shells: 360
    Number of basis function: 1112
    Number of Cartesian functions: 1328
    Spherical Harmonics?: true
    Max angular momentum: 4

  Minimum eigenvalue in the overlap matrix is 2.5543753212E-04.
  Using Symmetric Orthogonalization.
  SCF Guess: Reading in previously saved MOs, projecting if necessary.

  Using orbitals from previous SCF, no projection.
  Recomputing DOCC and SOCC from number of alpha and beta electrons from previous calculation.
              A 
    DOCC [    33 ]

  ==> Iterations <==

                           Total Energy        Delta E     RMS |[F,P]|

   @DF-RHF iter   0:  -349.34845403328143   -3.49348e+02   3.39599e-04 
   @DF-RHF iter   1:  -349.37839914237611   -2.99451e-02   7.29223e-05 
   @DF-RHF iter   2:  -349.37939367959632   -9.94537e-04   2.59727e-05 DIIS
   @DF-RHF iter   3:  -349.37952680942487   -1.33130e-04   1.06201e-05 DIIS
   @DF-RHF iter   4:  -349.37954590510185   -1.90957e-05   1.53941e-06 DIIS
   @DF-RHF iter   5:  -349.37954650676431   -6.01662e-07   6.48224e-07 DIIS
   @DF-RHF iter   6:  -349.37954657735497   -7.05907e-08   1.73574e-07 DIIS
   @DF-RHF iter   7:  -349.37954658472620   -7.37123e-09   5.82807e-08 DIIS
   @DF-RHF iter   8:  -349.37954658553156   -8.05358e-10   2.04554e-08 DIIS
   @DF-RHF iter   9:  -349.37954658564092   -1.09367e-10   5.49670e-09 DIIS

  ==> Post-Iterations <==

    Orbital Energies (a.u.)
    -----------------------

    Doubly Occupied:                                                      

       1A    -20.546305     2A    -11.265486     3A    -11.215162  
       4A    -11.211719     5A    -11.210440     6A    -11.209254  
       7A    -11.208893     8A    -11.205582     9A     -1.364178  
      10A     -1.089448    11A     -1.049251    12A     -0.989477  
      13A     -0.914657    14A     -0.842803    15A     -0.798350  
      16A     -0.788446    17A     -0.681681    18A     -0.657660  
      19A     -0.630080    20A     -0.615771    21A     -0.592766  
      22A     -0.587683    23A     -0.552736    24A     -0.540312  
      25A     -0.530660    26A     -0.501526    27A     -0.496799  
      28A     -0.473627    29A     -0.466242    30A     -0.460663  
      31A     -0.457304    32A     -0.455597    33A     -0.420272  

    Virtual:                                                              

      34A      0.138699    35A      0.146267    36A      0.160517  
      37A      0.166831    38A      0.168052    39A      0.183610  
      40A      0.195852    41A      0.208691    42A      0.218738  
      43A      0.229673    44A      0.232114    45A      0.242870  
      46A      0.249428    47A      0.261676    48A      0.268268  
      49A      0.288916    50A      0.303295    51A      0.326907  
      52A      0.341665    53A      0.346431    54A      0.358088  
      55A      0.370585    56A      0.390517    57A      0.401924  
      58A      0.421999    59A      0.446107    60A      0.449542  
      61A      0.456144    62A      0.472106    63A      0.498615  
      64A      0.503391    65A      0.513477    66A      0.518964  
      67A      0.528546    68A      0.551063    69A      0.563705  
      70A      0.574871    71A      0.581282    72A      0.589704  
      73A      0.603180    74A      0.611819    75A      0.622394  
      76A      0.630137    77A      0.635154    78A      0.648740  
      79A      0.652121    80A      0.657312    81A      0.659185  
      82A      0.665965    83A      0.669377    84A      0.673093  
      85A      0.678564    86A      0.686212    87A      0.692049  
      88A      0.704890    89A      0.718946    90A      0.725673  
      91A      0.736655    92A      0.738187    93A      0.766242  
      94A      0.774575    95A      0.808003    96A      0.819022  
      97A      0.832796    98A      0.850063    99A      0.860878  
     100A      0.887304   101A      0.905185   102A      0.919493  
     103A      0.936826   104A      0.939401   105A      0.954723  
     106A      0.986014   107A      0.992028   108A      1.006588  
     109A      1.011099   110A      1.019055   111A      1.040972  
     112A      1.052349   113A      1.061698   114A      1.082275  
     115A      1.092923   116A      1.109637   117A      1.132016  
     118A      1.148503   119A      1.150865   120A      1.168533  
     121A      1.189760   122A      1.222537   123A      1.235083  
     124A      1.236415   125A      1.248937   126A      1.269514  
     127A      1.276442   128A      1.281854   129A      1.290019  
     130A      1.292377   131A      1.308038   132A      1.311522  
     133A      1.323535   134A      1.329323   135A      1.342128  
     136A      1.354207   137A      1.357509   138A      1.369696  
     139A      1.383970   140A      1.394560   141A      1.399500  
     142A      1.417569   143A      1.422965   144A      1.433429  
     145A      1.451101   146A      1.459625   147A      1.464797  
     148A      1.479369   149A      1.486384   150A      1.501402  
     151A      1.511446   152A      1.512049   153A      1.519567  
     154A      1.529394   155A      1.546562   156A      1.559735  
     157A      1.567262   158A      1.573015   159A      1.583375  
     160A      1.594108   161A      1.607306   162A      1.625429  
     163A      1.633479   164A      1.639915   165A      1.651690  
     166A      1.661661   167A      1.691648   168A      1.700562  
     169A      1.709206   170A      1.725205   171A      1.743157  
     172A      1.756138   173A      1.774516   174A      1.788891  
     175A      1.797872   176A      1.811174   177A      1.826934  
     178A      1.831449   179A      1.836983   180A      1.851728  
     181A      1.884669   182A      1.899347   183A      1.944737  
     184A      1.956610   185A      1.980361   186A      2.017138  
     187A      2.062038   188A      2.153816   189A      2.249584  
     190A      2.293866   191A      2.370502   192A      2.431620  
     193A      2.520788   194A      2.555150   195A      2.596539  
     196A      2.622964   197A      2.637721   198A      2.663040  
     199A      2.688527   200A      2.697213   201A      2.707135  
     202A      2.720972   203A      2.734082   204A      2.744544  
     205A      2.774474   206A      2.781534   207A      2.798840  
     208A      2.812044   209A      2.813042   210A      2.827881  
     211A      2.854036   212A      2.862978   213A      2.871757  
     214A      2.880912   215A      2.910179   216A      2.922340  
     217A      2.933985   218A      2.944893   219A      2.963286  
     220A      2.976354   221A      2.990970   222A      3.010368  
     223A      3.016881   224A      3.030754   225A      3.038101  
     226A      3.067158   227A      3.077030   228A      3.084574  
     229A      3.102575   230A      3.127752   231A      3.133418  
     232A      3.151375   233A      3.164786   234A      3.200709  
     235A      3.221253   236A      3.232358   237A      3.240067  
     238A      3.249762   239A      3.268045   240A      3.271462  
     241A      3.292462   242A      3.302275   243A      3.321649  
     244A      3.326855   245A      3.336839   246A      3.346956  
     247A      3.355648   248A      3.371194   249A      3.378802  
     250A      3.388082   251A      3.397169   252A      3.409097  
     253A      3.414681   254A      3.420333   255A      3.420923  
     256A      3.429591   257A      3.435925   258A      3.449484  
     259A      3.452008   260A      3.462838   261A      3.474901  
     262A      3.480729   263A      3.492499   264A      3.507672  
     265A      3.513013   266A      3.522778   267A      3.540420  
     268A      3.550973   269A      3.565771   270A      3.577901  
     271A      3.578593   272A      3.582846   273A      3.593377  
     274A      3.601250   275A      3.617572   276A      3.620324  
     277A      3.630663   278A      3.662674   279A      3.666124  
     280A      3.687747   281A      3.712738   282A      3.726324  
     283A      3.753036   284A      3.768498   285A      3.784139  
     286A      3.794564   287A      3.810981   288A      3.827674  
     289A      3.834132   290A      3.843340   291A      3.854835  
     292A      3.861828   293A      3.880698   294A      3.897472  
     295A      3.904493   296A      3.913231   297A      3.930401  
     298A      3.939654   299A      3.954688   300A      3.961084  
     301A      3.976657   302A      3.998910   303A      4.011996  
     304A      4.021753   305A      4.048356   306A      4.053542  
     307A      4.080974   308A      4.097946   309A      4.103259  
     310A      4.114041   311A      4.117204   312A      4.137703  
     313A      4.147616   314A      4.156266   315A      4.162910  
     316A      4.178845   317A      4.180502   318A      4.189322  
     319A      4.194885   320A      4.204871   321A      4.218170  
     322A      4.233851   323A      4.237203   324A      4.249701  
     325A      4.257910   326A      4.273666   327A      4.288753  
     328A      4.293535   329A      4.301516   330A      4.324297  
     331A      4.327212   332A      4.341735   333A      4.356466  
     334A      4.374085   335A      4.374258   336A      4.378369  
     337A      4.391527   338A      4.404310   339A      4.412405  
     340A      4.430514   341A      4.447718   342A      4.453638  
     343A      4.457265   344A      4.465411   345A      4.484725  
     346A      4.492948   347A      4.500250   348A      4.515588  
     349A      4.533185   350A      4.549110   351A      4.556468  
     352A      4.573348   353A      4.574718   354A      4.594010  
     355A      4.613920   356A      4.620823   357A      4.631283  
     358A      4.643981   359A      4.657252   360A      4.663903  
     361A      4.682144   362A      4.687149   363A      4.696299  
     364A      4.724619   365A      4.726933   366A      4.733534  
     367A      4.756031   368A      4.767013   369A      4.791359  
     370A      4.800634   371A      4.826466   372A      4.833607  
     373A      4.857097   374A      4.883834   375A      4.956872  
     376A      4.991714   377A      5.002221   378A      5.024964  
     379A      5.032835   380A      5.037816   381A      5.079100  
     382A      5.091658   383A      5.120947   384A      5.136362  
     385A      5.143544   386A      5.172111   387A      5.194501  
     388A      5.202618   389A      5.207314   390A      5.214198  
     391A      5.227488   392A      5.246104   393A      5.270348  
     394A      5.276327   395A      5.285617   396A      5.312462  
     397A      5.323034   398A      5.338820   399A      5.351257  
     400A      5.358017   401A      5.376660   402A      5.398576  
     403A      5.429249   404A      5.449137   405A      5.456861  
     406A      5.486883   407A      5.502990   408A      5.526979  
     409A      5.549517   410A      5.570645   411A      5.601719  
     412A      5.614284   413A      5.645921   414A      5.653615  
     415A      5.738444   416A      5.742159   417A      5.758529  
     418A      5.769316   419A      5.789614   420A      5.808711  
     421A      5.821392   422A      5.840656   423A      5.854294  
     424A      5.862424   425A      5.888521   426A      5.894751  
     427A      5.905297   428A      5.921963   429A      5.932164  
     430A      5.954502   431A      5.970142   432A      5.992619  
     433A      6.017811   434A      6.048732   435A      6.054888  
     436A      6.106375   437A      6.126240   438A      6.217251  
     439A      6.285487   440A      6.326388   441A      6.332563  
     442A      6.352581   443A      6.380003   444A      6.411550  
     445A      6.459505   446A      6.505101   447A      6.536711  
     448A      6.760609   449A      7.077780   450A      7.178391  
     451A      7.265885   452A      7.301585   453A      7.427737  
     454A      7.534517   455A      7.722601   456A      8.029083  
     457A     12.800226   458A     13.009953   459A     13.341605  
     460A     13.525449   461A     13.672135   462A     13.833019  
     463A     14.063774   464A     14.299692  

    Final Occupation by Irrep:
              A 
    DOCC [    33 ]

  Energy converged.

  @DF-RHF Final Energy:  -349.37954658564092

   => Energetics <=

    Nuclear Repulsion Energy =            380.9647689852710073
    One-Electron Energy =               -1228.6269759809028983
    Two-Electron Energy =                 498.2826604099913084
    DFT Exchange-Correlation Energy =       0.0000000000000000
    Empirical Dispersion Energy =           0.0000000000000000
    PCM Polarization Energy =               0.0000000000000000
    EFP Energy =                            0.0000000000000000
    Total Energy =                       -349.3795465856405826

    Alert: EFP and PCM quantities not currently incorporated into SCF psivars.

Properties will be evaluated at   0.000000,   0.000000,   0.000000 Bohr
  ==> Properties <==


Properties computed using the SCF density matrix

  Nuclear Dipole Moment: (a.u.)
     X:     8.1975      Y:    -1.4086      Z:     1.9752

  Electronic Dipole Moment: (a.u.)
     X:    -8.0319      Y:     1.8188      Z:    -1.5045

  Dipole Moment: (a.u.)
     X:     0.1656      Y:     0.4103      Z:     0.4708     Total:     0.6460

  Dipole Moment: (Debye)
     X:     0.4208      Y:     1.0428      Z:     1.1966     Total:     1.6420


  Saving occupied orbitals to File 180.

*** tstop() called on cx1-27-1-3 at Sat Sep 10 00:24:38 2016
Module time:
	user time   =      84.76 seconds =       1.41 minutes
	system time =       1.02 seconds =       0.02 minutes
	total time  =         27 seconds =       0.45 minutes
Total time:
	user time   =     414.70 seconds =       6.91 minutes
	system time =       3.59 seconds =       0.06 minutes
	total time  =        117 seconds =       1.95 minutes

*** tstart() called on cx1-27-1-3
*** at Sat Sep 10 00:24:38 2016


         ------------------------------------------------------------
                                   SCF GRAD                          
                          Rob Parrish, Justin Turney,                
                       Andy Simmonett, and Alex Sokolov              
         ------------------------------------------------------------

  ==> Geometry <==

    Molecular point group: c1
    Full point group: C1

    Geometry (in Angstrom), charge = 0, multiplicity = 1:

       Center              X                  Y                   Z               Mass       
    ------------   -----------------  -----------------  -----------------  -----------------
           H         -3.440564627935     1.657792682681    -1.049878737367     1.007825032070
           O         -3.494803126643     0.720880309187    -0.995814225970    15.994914619560
           C         -3.252870812362     0.305050252067     0.322394307794    12.000000000000
           C         -1.838058052608     0.600146231658     0.797373012489    12.000000000000
           H         -3.434057011883    -0.762280780899     0.333410213798     1.007825032070
           H         -3.970597511151     0.761119982665     0.999636568505     1.007825032070
           C         -0.755600530565    -0.119946838917    -0.001487705831    12.000000000000
           H         -1.669414329599     1.675274855065     0.758799551156     1.007825032070
           H         -1.768899161384     0.320238903172     1.845834370820     1.007825032070
           C          0.658240634224     0.209640278040     0.469990119809    12.000000000000
           H         -0.858596374403     0.132012404703    -1.051167021246     1.007825032070
           H         -0.917276383656    -1.192758332452     0.071416821046     1.007825032070
           C          1.739068097348    -0.514702444871    -0.325585920997    12.000000000000
           H          0.817276785349     1.283707069699     0.401244527891     1.007825032070
           H          0.760026006851    -0.044864998397     1.522269671156     1.007825032070
           C          3.164707979787    -0.119834113159     0.086127422920    12.000000000000
           H          1.590094434686    -0.274167467979    -1.374650018603     1.007825032070
           H          1.597555291645    -1.587943299222    -0.224589797612     1.007825032070
           C          4.206875194804    -1.194722175954    -0.198866399919    12.000000000000
           H          3.187672649559     0.154299341186     1.137267165858     1.007825032070
           H          3.446155445321     0.784658020259    -0.444785110199     1.007825032070
           H          4.001545064196    -2.095118673626     0.370229055065     1.007825032070
           H          5.200870227374    -0.852639436144     0.066720523083     1.007825032070
           H          4.220372781607    -1.465537414245    -1.249659533737     1.007825032070

  Nuclear repulsion =  380.964768985271007

  ==> Basis Set <==

  Basis Set: CC-PVTZ
    Number of shells: 176
    Number of basis function: 464
    Number of Cartesian functions: 520
    Spherical Harmonics?: true
    Max angular momentum: 3

  ==> DFJKGrad: Density-Fitted SCF Gradients <==

    Gradient:                    1
    J tasked:                  Yes
    K tasked:                  Yes
    wK tasked:                  No
    OpenMP threads:              4
    Integrals threads:           4
    Memory (MB):              1430
    Schwarz Cutoff:          0E+00
    Fitting Condition:       1E-12

   => Auxiliary Basis Set <=

  Basis Set: 
    Number of shells: 360
    Number of basis function: 1112
    Number of Cartesian functions: 1328
    Spherical Harmonics?: true
    Max angular momentum: 4


  -Total Gradient:
     Atom            X                  Y                   Z
    ------   -----------------  -----------------  -----------------
       1        0.000005607394    -0.000008932269     0.000016761020
       2        0.000007365949    -0.000045353288     0.000034545861
       3        0.000001101211     0.000022861815    -0.000037160062
       4        0.000162224969     0.000155269734    -0.000018696308
       5       -0.000006053495     0.000009275702    -0.000034427792
       6        0.000015735260    -0.000008802553     0.000008951704
       7       -0.000084595680    -0.000362411632    -0.000628364456
       8       -0.000042526928     0.000001313495     0.000017519146
       9       -0.000001718771    -0.000005147311     0.000026047251
      10        0.001018554267    -0.000067654725    -0.000721450697
      11       -0.000075123031    -0.000058015294    -0.000077818800
      12        0.000044916041     0.000142984235     0.000048951183
      13        0.000168938026    -0.003802542654    -0.000229784611
      14       -0.000347970715     0.000041197680     0.000156830106
      15        0.000404554355    -0.000188533505    -0.000250728763
      16        0.000831293333    -0.002647249917     0.002518584820
      17       -0.002023449246     0.003788814961     0.001156022248
      18       -0.000824179372    -0.000636007468    -0.000534032703
      19       -0.000181492105     0.000182139346    -0.000991388764
      20        0.000036071022     0.004030857323    -0.000746268561
      21        0.000808223058    -0.000867548855     0.000097533901
      22       -0.000238154119     0.000265572807     0.000105350077
      23       -0.000132495013     0.000413317322     0.000113595183
      24        0.000453173593    -0.000355404947    -0.000030570982


*** tstop() called on cx1-27-1-3 at Sat Sep 10 00:25:32 2016
Module time:
	user time   =     210.29 seconds =       3.50 minutes
	system time =       0.93 seconds =       0.02 minutes
	total time  =         54 seconds =       0.90 minutes
Total time:
	user time   =     625.00 seconds =      10.42 minutes
	system time =       4.52 seconds =       0.08 minutes
	total time  =        171 seconds =       2.85 minutes
CURRENT ENERGY: -349.3795465856

			-----------------------------------------
			 OPTKING 2.0: for geometry optimizations 
			  - R.A. King,  Bethel University        
			-----------------------------------------

	Previous internal coordinate definitions found.
	---Fragment 1 Geometry and Gradient---
	 H          -6.5017248893        3.1327741554       -1.9839832864
	 O          -6.6042207977        1.3622663590       -1.8818161663
	 C          -6.1470349810        0.5764614332        0.6092369485
	 C          -3.4734263358        1.1341120175        1.5068166194
	 H          -6.4894272772       -1.4405019123        0.6300539940
	 H          -7.5033418800        1.4383083215        1.8890393469
	 C          -1.4278780686       -0.2266666761       -0.0028113566
	 H          -3.1547358853        3.1658106734        1.4339233414
	 H          -3.3427349717        0.6051638241        3.4881214475
	 C           1.2438945282        0.3961627119        0.8881526116
	 H          -1.6225120063        0.2494672910       -1.9864177901
	 H          -1.7334011533       -2.2539865911        0.1349582331
	 C           3.2863624304       -0.9726466607       -0.6152682234
	 H           1.5444292991        2.4258547966        0.7582422700
	 H           1.4362410068       -0.0847825599        2.8766727789
	 C           5.9804313724       -0.2264536552        0.1627572418
	 H           3.0048430070       -0.5181014290       -2.5977120637
	 H           3.0189419834       -3.0007779501       -0.4244132097
	 C           7.9498419934       -2.2576977174       -0.3758030329
	 H           6.0238283090        0.2915834973        2.1491234834
	 H           6.5122900030        1.4827887663       -0.8405220463
	 H           7.5618242797       -3.9592005090        0.6996315205
	 H           9.8282203824       -1.6112550244        0.1260835161
	 H           7.9753487359       -2.7694643504       -2.3615142781
	             0.0000056074       -0.0000089323        0.0000167610
	             0.0000073659       -0.0000453533        0.0000345459
	             0.0000011012        0.0000228618       -0.0000371601
	             0.0001622250        0.0001552697       -0.0000186963
	            -0.0000060535        0.0000092757       -0.0000344278
[...]
	 D(10,13,16,21)   =        -1.469042	     -84.169913
	 D(11,7,10,13)    =        -1.024563	     -58.703121
	 D(11,7,10,14)    =         1.104638	      63.291122
	 D(11,7,10,15)    =         3.126616	     179.141892
	 D(12,7,10,13)    =         1.001614	      57.388252
	 D(12,7,10,14)    =         3.130815	     179.382494
	 D(12,7,10,15)    =        -1.130393	     -64.766735
	 D(13,16,19,22)   =        -1.089332	     -62.414134
	 D(13,16,19,23)   =         3.095477	     177.357740
	 D(13,16,19,24)   =         1.000022	      57.297063
	 D(14,10,13,16)   =         0.954087	      54.665137
	 D(14,10,13,17)   =        -1.155947	     -66.230874
	 D(14,10,13,18)   =         3.100116	     177.623576
	 D(15,10,13,16)   =        -1.063742	     -60.947907
	 D(15,10,13,17)   =         3.109410	     178.156083
	 D(15,10,13,18)   =         1.082288	      62.010532
	 D(17,13,16,19)   =        -1.497100	     -85.777508
	*D(17,13,16,20)   =         2.617994	     150.000005
	 D(17,13,16,21)   =         0.626861	      35.916475
	 D(18,13,16,19)   =         0.553137	      31.692435
	 D(18,13,16,20)   =        -1.614954	     -92.530053
	 D(18,13,16,21)   =         2.677098	     153.386417
	 D(20,16,19,22)   =         1.071993	      61.420691
	 D(20,16,19,23)   =        -1.026383	     -58.807435
	 D(20,16,19,24)   =        -3.121837	    -178.868112
	 D(21,16,19,22)   =         3.073100	     176.075656
	 D(21,16,19,23)   =         0.974723	      55.847530
	 D(21,16,19,24)   =        -1.120731	     -64.213146

	Current energy   :      -349.3795988657

	Energy change for the previous step:
		Projected    :         0.0000087330
		Actual       :        -0.0000007899

	Performing BFGS update.
	Previous computed or guess Hessian on step 1.
	Steps to be used in Hessian update: 4 3
	Taking RFO optimization step.
	Going to follow RFO solution 1.
	Using RFO vector 1.
	Norm of target step-size    0.01049
	Projected energy change by RFO approximation:        -0.0000018806

	Back-transformation to cartesian coordinates...
	Successfully converged to displaced geometry.

	Back-transformation to cartesian coordinates to adjust frozen coordinates...
	Successfully converged to displaced geometry.

	--- Internal Coordinate Step in ANG or DEG, aJ/ANG or AJ/DEG ---
	 ---------------------------------------------------------------------------
	   Coordinate                Previous        Force       Change         New 
	   ----------                --------       ------       ------       ------
	    1 R(1,2)          =      0.940041     0.000006     0.000000     0.940041
	    2 R(2,3)          =      1.403306     0.000029     0.000002     1.403308
	    3 R(3,4)          =      1.521291     0.000032     0.000005     1.521295
	    4 R(3,5)          =      1.082669    -0.000005    -0.000001     1.082668
	    5 R(3,6)          =      1.087104     0.000014     0.000002     1.087105
	    6 R(4,7)          =      1.525905     0.000117     0.000019     1.525924
	    7 R(4,8)          =      1.088996    -0.000012    -0.000004     1.088992
	    8 R(4,9)          =      1.087342    -0.000015    -0.000000     1.087342
	    9 R(7,10)         =      1.525759    -0.000074    -0.000023     1.525736
	   10 R(7,11)         =      1.084350     0.000007     0.000004     1.084354
	   11 R(7,12)         =      1.087625    -0.000034    -0.000006     1.087619
	   12 R(10,13)        =      1.527855    -0.000008    -0.000009     1.527846
	   13 R(10,14)        =      1.088062    -0.000055    -0.000019     1.088043
	   14 R(10,15)        =      1.087564    -0.000008    -0.000001     1.087564
	   15 R(13,16)        =      1.533242    -0.000244    -0.000015     1.533227
	   16 R(13,17)        =      1.086328     0.000125     0.000018     1.086346
	   17 R(13,18)        =      1.086202     0.000154     0.000024     1.086226
	   18 R(16,19)        =      1.523754     0.000193     0.000025     1.523779
	   19 R(16,20)        =      1.086219    -0.000082    -0.000008     1.086211
	   20 R(16,21)        =      1.086791    -0.000091    -0.000012     1.086779
	   21 R(19,22)        =      1.084867     0.000128     0.000019     1.084886
	   22 R(19,23)        =      1.084062     0.000079     0.000006     1.084068
	   23 R(19,24)        =      1.085214    -0.000064    -0.000014     1.085201
	   24 B(1,2,3)        =    109.846368     0.000000     0.000847   109.847215
	   25 B(2,3,4)        =    113.341385    -0.000000    -0.001125   113.340260
	   26 B(2,3,5)        =    105.846123     0.000000    -0.000050   105.846074
	   27 B(2,3,6)        =    110.301299    -0.000000     0.000269   110.301568
	   28 B(3,4,7)        =    113.884833     0.000001     0.001167   113.886000
	   29 B(3,4,8)        =    108.940160    -0.000000    -0.001931   108.938229
	   30 B(3,4,9)        =    108.079885     0.000000     0.001643   108.081528
	   31 B(4,3,5)        =    110.098764    -0.000000    -0.000928   110.097837
	   32 B(4,3,6)        =    109.758626     0.000000     0.001993   109.760619
	   33 B(4,7,10)       =    113.203746     0.000000    -0.000519   113.203227
	   34 B(4,7,11)       =    109.245498    -0.000000    -0.002006   109.243493
	   35 B(4,7,12)       =    108.956384     0.000000     0.000582   108.956967
	   36 B(5,3,6)        =    107.261492    -0.000000    -0.000221   107.261271
	   37 B(7,4,8)        =    109.704346    -0.000000    -0.001092   109.703254
	   38 B(7,4,9)        =    109.765774    -0.000000     0.000309   109.766083
	   39 B(7,10,13)      =    113.387772    -0.000002    -0.008427   113.379345
	   40 B(7,10,14)      =    109.275510     0.000001    -0.003627   109.271882
	   41 B(7,10,15)      =    109.464694    -0.000000    -0.000957   109.463737
	   42 B(8,4,9)        =    106.167591     0.000000    -0.000162   106.167429
	   43 B(10,7,11)      =    109.658286    -0.000000    -0.000188   109.658099
	   44 B(10,7,12)      =    109.291214     0.000000     0.003201   109.294414
	   45 B(10,13,16)     =    113.063775     0.000000     0.010182   113.073956
	   46 B(10,13,17)     =    107.833306     0.000001     0.009845   107.843151
	   47 B(10,13,18)     =    109.191980    -0.000001    -0.002517   109.189464
	   48 B(11,7,12)      =    106.246819    -0.000000    -0.001104   106.245716
	   49 B(13,10,14)     =    109.147626     0.000000     0.003172   109.150798
	   50 B(13,10,15)     =    109.165106     0.000002     0.008720   109.173825
	   51 B(13,16,19)     =    113.771463    -0.000001    -0.000266   113.771197
	   52 B(13,16,20)     =    109.693722     0.000001    -0.003615   109.690107
	   53 B(13,16,21)     =    108.704452    -0.000000     0.002934   108.707386
	   54 B(14,10,15)     =    106.144512    -0.000000     0.001800   106.146312
	   55 B(16,13,17)     =    109.254454    -0.000002    -0.005440   109.249013
	   56 B(16,13,18)     =    110.117297     0.000001    -0.003685   110.113611
	   57 B(16,19,22)     =    111.089540     0.000003     0.008433   111.097972
	   58 B(16,19,23)     =    111.370729    -0.000002    -0.013059   111.357670
	   59 B(16,19,24)     =    111.026916     0.000001     0.011981   111.038898
	   60 B(17,13,18)     =    107.187045     0.000000    -0.009161   107.177884
	   61 B(19,16,20)     =    110.410869    -0.000000    -0.013256   110.397613
	   62 B(19,16,21)     =    109.035261     0.000002     0.005331   109.040591
	   63 B(20,16,21)     =    104.823301    -0.000000     0.010084   104.833385
	   64 B(22,19,23)     =    107.836678    -0.000000    -0.002492   107.834186
	   65 B(22,19,24)     =    107.609649    -0.000001    -0.000220   107.609430
	   66 B(23,19,24)     =    107.737935     0.000000    -0.005004   107.732931
	   67 D(1,2,3,4)      =    -65.128834    -0.000000     0.000096   -65.128738
	   68 D(1,2,3,5)      =    174.104798     0.000000     0.001938   174.106736
	   69 D(1,2,3,6)      =     58.390230     0.000000     0.002092    58.392322
	   70 D(2,3,4,7)      =    -62.358067     0.000000     0.031142   -62.326925
	   71 D(2,3,4,8)      =     60.448996     0.000000     0.029094    60.478089
	   72 D(2,3,4,9)      =    175.391305     0.000000     0.028771   175.420076
	   73 D(3,4,7,10)     =    178.604363    -0.000000    -0.012763   178.591600
	   74 D(3,4,7,11)     =     56.101215    -0.000000    -0.010699    56.090516
	   75 D(3,4,7,12)     =    -59.572561     0.000000    -0.008603   -59.581164
	   76 D(4,7,10,13)    =    179.023558     0.000000     0.039958   179.063516
	   77 D(4,7,10,14)    =    -58.982199     0.000000     0.035643   -58.946556
	   78 D(4,7,10,15)    =     56.868571    -0.000000     0.035227    56.903798
	   79 D(5,3,4,7)      =     55.974168     0.000000     0.029712    56.003880
	   80 D(5,3,4,8)      =    178.781231     0.000000     0.027663   178.808894
	   81 D(5,3,4,9)      =    -66.276460     0.000000     0.027341   -66.249120
	   82 D(6,3,4,7)      =    173.825858     0.000000     0.030088   173.855946
	   83 D(6,3,4,8)      =    -63.367079     0.000000     0.028039   -63.339040
	   84 D(6,3,4,9)      =     51.575230     0.000000     0.027717    51.602946
	   85 D(7,10,13,16)   =    176.730612    -0.000000    -0.193214   176.537398
	   86 D(7,10,13,17)   =     55.834601    -0.000000    -0.199576    55.635026
	   87 D(7,10,13,18)   =    -60.310949    -0.000000    -0.192771   -60.503720
	   88 D(8,4,7,10)     =     56.216321    -0.000000    -0.010253    56.206068
	   89 D(8,4,7,11)     =    -66.286827    -0.000000    -0.008189   -66.295016
	   90 D(8,4,7,12)     =    178.039397     0.000000    -0.006093   178.033304
	   91 D(9,4,7,10)     =    -60.077782    -0.000000    -0.009605   -60.087386
	   92 D(9,4,7,11)     =    177.419070     0.000000    -0.007541   177.411530
	   93 D(9,4,7,12)     =     61.745295     0.000000    -0.005445    61.739850
	   94 D(10,13,16,19)  =    154.136104    -0.000000    -0.035750   154.100354
	   95 D(10,13,16,20)  =     29.913616    -0.000000    -0.015314    29.898302
	   96 D(10,13,16,21)  =    -84.169913    -0.000000    -0.026963   -84.196877
	   97 D(11,7,10,13)   =    -58.703121     0.000000     0.036873   -58.666248
	   98 D(11,7,10,14)   =     63.291122    -0.000000     0.032558    63.323680
	   99 D(11,7,10,15)   =    179.141892    -0.000000     0.032142   179.174034
	  100 D(12,7,10,13)   =     57.388252     0.000000     0.037261    57.425513
	  101 D(12,7,10,14)   =    179.382494    -0.000000     0.032947   179.415441
	  102 D(12,7,10,15)   =    -64.766735    -0.000000     0.032530   -64.734205
	  103 D(13,16,19,22)  =    -62.414134    -0.000000     0.001146   -62.412987
	  104 D(13,16,19,23)  =    177.357740    -0.000000     0.007400   177.365140
	  105 D(13,16,19,24)  =     57.297063     0.000000     0.014411    57.311475
	  106 D(14,10,13,16)  =     54.665137    -0.000000    -0.185128    54.480009
	  107 D(14,10,13,17)  =    -66.230874     0.000000    -0.191489   -66.422363
	  108 D(14,10,13,18)  =    177.623576    -0.000000    -0.184684   177.438892
	  109 D(15,10,13,16)  =    -60.947907    -0.000000    -0.193839   -61.141746
	  110 D(15,10,13,17)  =    178.156083    -0.000000    -0.200200   177.955882
	  111 D(15,10,13,18)  =     62.010532    -0.000000    -0.193395    61.817137
	  112 D(17,13,16,19)  =    -85.777508    -0.000000    -0.020436   -85.797944
	  113 *D(17,13,16,20) =    150.000005     0.000000    -0.000000   150.000005
	  114 D(17,13,16,21)  =     35.916475     0.000000    -0.011649    35.904825
	  115 D(18,13,16,19)  =     31.692435    -0.000000    -0.036948    31.655486
	  116 D(18,13,16,20)  =    -92.530053    -0.000000    -0.016512   -92.546565
	  117 D(18,13,16,21)  =    153.386417    -0.000000    -0.028161   153.358256
	  118 D(20,16,19,22)  =     61.420691    -0.000000    -0.014161    61.406531
	  119 D(20,16,19,23)  =    -58.807435    -0.000000    -0.007907   -58.815342
	  120 D(20,16,19,24)  =   -178.868112     0.000000    -0.000896  -178.869008
	  121 D(21,16,19,22)  =    176.075656     0.000000    -0.006324   176.069332
	  122 D(21,16,19,23)  =     55.847530     0.000000    -0.000071    55.847459
	  123 D(21,16,19,24)  =    -64.213146     0.000000     0.006941   -64.206206
	 ---------------------------------------------------------------------------

  ==> Convergence Check <==

  Measures of convergence in internal coordinates in au.
  Criteria marked as inactive (o), active & met (*), and active & unmet ( ).
  ---------------------------------------------------------------------------------------------
   Step     Total Energy     Delta E     MAX Force     RMS Force      MAX Disp      RMS Disp   
  ---------------------------------------------------------------------------------------------
    Convergence Criteria    1.00e-06 *    3.00e-04 *             o    1.20e-03 *             o
  ---------------------------------------------------------------------------------------------
      5    -349.37959887   -7.90e-07 *    3.44e-05 *    9.64e-06 o    3.49e-03      9.45e-04 o  ~
  ---------------------------------------------------------------------------------------------


  **** Optimization is complete! (in 5 steps) ****

  ==> Optimization Summary <==

  Measures of convergence in internal coordinates in au.
  --------------------------------------------------------------------------------------------------------------- ~
   Step         Total Energy             Delta E       MAX Force       RMS Force        MAX Disp        RMS Disp  ~
  --------------------------------------------------------------------------------------------------------------- ~
      1    -349.378771736998   -349.378771736998      0.00470226      0.00095927      0.12341299      0.03957501  ~
      2    -349.379546585641     -0.000774848643      0.00201256      0.00036977      0.02609708      0.00765052  ~
      3    -349.379595193264     -0.000048607623      0.00047848      0.00007756      0.01459265      0.00527101  ~
      4    -349.379598075796     -0.000002882532      0.00009956      0.00002161      0.00578780      0.00232348  ~
      5    -349.379598865653     -0.000000789858      0.00003436      0.00000964      0.00349416      0.00094546  ~
  --------------------------------------------------------------------------------------------------------------- ~

	Writing optimization data to binary file.
	Final energy is   -349.3795988656534
	Final (previous) structure:
	Cartesian Geometry (in Angstrom)
	    H    -3.4469958141   1.6666901639  -1.0325767268
	    O    -3.4999690137   0.7292895500  -0.9861968201
	    C    -3.2525161706   0.3025428307   0.3275465868
	    C    -1.8361244916   0.5947699445   0.7995243277
	    H    -3.4328580935  -0.7649960574   0.3305255913
	    H    -3.9679199252   0.7524572551   1.0113364452
	    C    -0.7560520166  -0.1181918323  -0.0088775146
	    H    -1.6680671036   1.6702751871   0.7685881106
	    H    -1.7628187033   0.3068357759   1.8454846544
	    C     0.6591572324   0.2121382838   0.4558854518
	    H    -0.8653482571   0.1391934864  -1.0565517838
	    H    -0.9150368007  -1.1920003882   0.0588455402
	    C     1.7432738681  -0.5178526451  -0.3354079984
	    H     0.8216232641   1.2851556606   0.3776742780
	    H     0.7607253914  -0.0330137406   1.5105799921
	    C     3.1634897651  -0.1205449132   0.0840739137
	    H     1.6018120485  -0.2844576192  -1.3868939883
	    H     1.6066614436  -1.5895834236  -0.2233182861
	    C     4.2075477776  -1.1969819349  -0.1862100474
	    H     3.1704666522   0.1589066592   1.1337075829
	    H     3.4430348194   0.7856363089  -0.4467781507
	    H     3.9976473679  -2.0961543876   0.3833227217
	    H     5.2020714493  -0.8588300001   0.0816831924
	    H     4.2227880286  -1.4696738692  -1.2364941707
	Saving final (previous) structure.
			--------------------------
			 OPTKING Finished Execution 
			--------------------------

    Final optimized geometry and variables:
    Molecular point group: c1
    Full point group: C1

    Geometry (in Angstrom), charge = 0, multiplicity = 1:

    H           -3.446995550906     1.666690036634    -1.032576647968
    O           -3.499968746424     0.729289494266    -0.986196744830
    C           -3.252515922198     0.302542807636     0.327546561739
    C           -1.836124351374     0.594769899060     0.799524266691
    H           -3.432857831319    -0.764995999015     0.330525566103
    H           -3.967919622150     0.752457197608     1.011336368016
    C           -0.756051958894    -0.118191823287    -0.008877513960
    H           -1.668066976245     1.670275059503     0.768588051949
    H           -1.762818568685     0.306835752453     1.845484513431
    C            0.659157182045     0.212138267589     0.455885416941
    H           -0.865348191006     0.139193475794    -1.056551703070
    H           -0.915036730839    -1.192000297193     0.058845535672
    C            1.743273734928    -0.517852605524    -0.335407972754
    H            0.821623201394     1.285155562480     0.377674249147
    H            0.760725333356    -0.033013738077     1.510579876744
    C            3.163489523538    -0.120544904013     0.084073907260
    H            1.601811926149    -0.284457597469    -1.386893882356
    H            1.606661320934    -1.589583302247    -0.223318269063
    C            4.207547456337    -1.196981843471    -0.186210033172
    H            3.170466410083     0.158906647076     1.133707496283
    H            3.443034556470     0.785636248935    -0.446778116541
    H            3.997647062641    -2.096154227573     0.383322692411
    H            5.202071052020    -0.858829934543     0.081683186143
    H            4.222787706127    -1.469673756928    -1.236494076290

	Cleaning optimization helper files.


Properties will be evaluated at   0.000000,   0.000000,   0.000000 Bohr

Properties computed using the  density matrix

  Nuclear Dipole Moment: (a.u.)
     X:     8.2027      Y:    -1.4248      Z:     1.9819

  Electronic Dipole Moment: (a.u.)
     X:    -8.0360      Y:     1.8302      Z:    -1.5085

  Dipole Moment: (a.u.)
     X:     0.1667      Y:     0.4054      Z:     0.4734     Total:     0.6451

  Dipole Moment: (Debye)
     X:     0.4238      Y:     1.0303      Z:     1.2031     Total:     1.6398

  Quadrupole Moment: (Debye Ang)
    XX:   -57.9220     YY:   -49.8819     ZZ:   -54.9277
    XY:    -2.9123     XZ:    -4.6819     YZ:    -1.5882

  Traceless Quadrupole Moment: (Debye Ang)
    XX:    -3.6781     YY:     4.3619     ZZ:    -0.6838
    XY:    -2.9123     XZ:    -4.6819     YZ:    -1.5882

  Mulliken Charges: (a.u.)
   Center  Symbol    Alpha    Beta     Spin     Total
       1     H     0.39531  0.39531  0.00000  0.20937
       2     O     4.20371  4.20371  0.00000 -0.40741
       3     C     2.97773  2.97773  0.00000  0.04455
       4     C     3.10232  3.10232  0.00000 -0.20464
       5     H     0.45889  0.45889  0.00000  0.08222
       6     H     0.46026  0.46026  0.00000  0.07947
       7     C     3.08845  3.08845  0.00000 -0.17691
       8     H     0.45903  0.45903  0.00000  0.08194
       9     H     0.45333  0.45333  0.00000  0.09334
      10     C     3.08915  3.08915  0.00000 -0.17830
      11     H     0.44644  0.44644  0.00000  0.10711
      12     H     0.45526  0.45526  0.00000  0.08948
      13     C     3.08736  3.08736  0.00000 -0.17472
      14     H     0.45503  0.45503  0.00000  0.08995
      15     H     0.45612  0.45612  0.00000  0.08776
      16     C     3.08550  3.08550  0.00000 -0.17099
      17     H     0.45349  0.45349  0.00000  0.09302
      18     H     0.45491  0.45491  0.00000  0.09018
      19     C     3.14861  3.14861  0.00000 -0.29723
      20     H     0.45551  0.45551  0.00000  0.08898
      21     H     0.45420  0.45420  0.00000  0.09161
      22     H     0.45570  0.45570  0.00000  0.08860
      23     H     0.44937  0.44937  0.00000  0.10125
      24     H     0.45432  0.45432  0.00000  0.09137

   Total alpha = 33.00000, Total beta = 33.00000, Total charge =  0.00000


*** PSI4 exiting successfully. Buy a developer a beer!
