    -----------------------------------------------------------------------
          Psi4: An Open-Source Ab Initio Electronic Structure Package
                              Psi4 (no tag) Driver

                          Git: Rev {detached?}  

    J. M. Turney, A. C. Simmonett, R. M. Parrish, E. G. Hohenstein,
    F. A. Evangelista, J. T. Fermann, B. J. Mintz, L. A. Burns, J. J. Wilke,
    M. L. Abrams, N. J. Russ, M. L. Leininger, C. L. Janssen, E. T. Seidl,
    W. D. Allen, H. F. Schaefer, R. A. King, E. F. Valeev, C. D. Sherrill,
    and T. D. Crawford, WIREs Comput. Mol. Sci. 2, 556-565 (2012)
    (doi: 10.1002/wcms.93)

                         Additional Contributions by
    A. E. DePrince, M. Saitow, U. Bozkaya, A. Yu. Sokolov
    -----------------------------------------------------------------------


    Psi4 started on: Fri Sep  9 21:17:00 2016

    Process ID:  22240
    PSI4DATADIR: /export131/home/mjharvey/miniconda3/share
    Memory level set to 256.000 MB

  ==> Input File <==

--------------------------------------------------------------------------
set {
	reference rhf
	basis cc-pvtz
}


set_num_threads( 4 )
memory 2 gb

molecule MOL {
0 1

O	 0.754265	 0.220970	 0.924647
C	 0.029490	 0.077183	 0.000078
C	 -1.232113	 -0.748027	 0.000015
O	 0.239483	 0.635943	 -1.180143
C	 -2.501422	 0.088592	 -0.000052
H	 -1.188777	 -1.400384	 -0.865133
H	 -1.188857	 -1.400312	 0.865225
H	 -2.548170	 0.725504	 -0.873205
H	 -3.371613	 -0.556398	 -0.000040
H	 -2.548215	 0.725571	 0.873047
C	 1.392735	 1.440800	 -1.321065
H	 1.363131	 2.273023	 -0.633487
H	 1.384318	 1.797773	 -2.338083
H	 2.285907	 0.862594	 -1.136224

	symmetry c1
}
set optking {
	frozen_dihedral = ("
		4 2 3 6
	")
}

ee = optimize('scf')
oeprop('DIPOLE', 'QUADRUPOLE', 'MULLIKEN_CHARGES')
f=open( 'psi4out.xyz', 'w' )
f.write( "14  " )
f.write( str(ee) + "\n" )
f.write( MOL.save_string_xyz() )
f.close()
--------------------------------------------------------------------------

  Memory set to   2.000 GiB by Python script.
gradient() will perform analytic gradient computation.

*** tstart() called on cx1-27-3-2
*** at Fri Sep  9 21:17:00 2016


         ---------------------------------------------------------
                                   SCF
            by Justin Turney, Rob Parrish, and Andy Simmonett
                              RHF Reference
                        4 Threads,   2000 MiB Core
         ---------------------------------------------------------

  ==> Geometry <==

    Molecular point group: c1
    Full point group: C1

    Geometry (in Angstrom), charge = 0, multiplicity = 1:

       Center              X                  Y                   Z               Mass       
    ------------   -----------------  -----------------  -----------------  -----------------
           O          0.955265278290    -0.086345615271     1.198108723802    15.994914619560
           C          0.230490278290    -0.230132615271     0.273539723802    12.000000000000
           C         -1.031112721710    -1.055342615271     0.273476723802    12.000000000000
           O          0.440483278290     0.328627384729    -0.906681276198    15.994914619560
           C         -2.300421721710    -0.218723615271     0.273409723802    12.000000000000
           H         -0.987776721710    -1.707699615271    -0.591671276198     1.007825032070
           H         -0.987856721710    -1.707627615271     1.138686723802     1.007825032070
           H         -2.347169721710     0.418188384729    -0.599743276198     1.007825032070
           H         -3.170612721710    -0.863713615271     0.273421723802     1.007825032070
           H         -2.347214721710     0.418255384729     1.146508723802     1.007825032070
           C          1.593735278290     1.133484384729    -1.047603276198    12.000000000000
           H          1.564131278290     1.965707384729    -0.360025276198     1.007825032070
           H          1.585318278290     1.490457384729    -2.064621276198     1.007825032070
           H          2.486907278290     0.555278384729    -0.862762276198     1.007825032070

  Running in c1 symmetry.

  Rotational constants: A =      0.22415  B =      0.08204  C =      0.06743 [cm^-1]
  Rotational constants: A =   6719.84863  B =   2459.63884  C =   2021.35136 [MHz]
  Nuclear repulsion =  248.497543743092848

  Charge       = 0
  Multiplicity = 1
  Electrons    = 48
  Nalpha       = 24
  Nbeta        = 24

  ==> Algorithm <==

  SCF Algorithm Type is DF.
  DIIS enabled.
  MOM disabled.
  Fractional occupation disabled.
  Guess Type is CORE.
  Energy threshold   = 1.00e-08
  Density threshold  = 1.00e-08
  Integral threshold = 0.00e+00

  ==> Primary Basis <==

  Basis Set: CC-PVTZ
    Number of shells: 108
    Number of basis function: 292
    Number of Cartesian functions: 330
    Spherical Harmonics?: true
    Max angular momentum: 3

  ==> Pre-Iterations <==

   -------------------------------------------------------
    Irrep   Nso     Nmo     Nalpha   Nbeta   Ndocc  Nsocc
   -------------------------------------------------------
     A        292     292       0       0       0       0
   -------------------------------------------------------
    Total     292     292      24      24      24       0
   -------------------------------------------------------

 OEINTS: Overlap, kinetic, potential, dipole, and quadrupole integrals
         stored in file 35.

  ==> Integral Setup <==

  ==> DFJK: Density-Fitted J/K Matrices <==

    J tasked:                  Yes
    K tasked:                  Yes
    wK tasked:                  No
    OpenMP threads:              4
    Integrals threads:           4
    Memory (MB):              1430
    Algorithm:                Core
    Integral Cache:           NONE
    Schwarz Cutoff:          1E-12
    Fitting Condition:       1E-12

   => Auxiliary Basis Set <=

  Basis Set: 
    Number of shells: 230
    Number of basis function: 714
    Number of Cartesian functions: 856
    Spherical Harmonics?: true
    Max angular momentum: 4

  Minimum eigenvalue in the overlap matrix is 4.9354729696E-04.
  Using Symmetric Orthogonalization.
  SCF Guess: Core (One-Electron) Hamiltonian.

  ==> Iterations <==

                           Total Energy        Delta E     RMS |[F,P]|

   @DF-RHF iter   1:  -198.15275676524581   -1.98153e+02   5.27804e-02 
   @DF-RHF iter   2:  -183.55784314024501    1.45949e+01   3.64193e-02 DIIS
   @DF-RHF iter   3:  -267.24027727438227   -8.36824e+01   2.26557e-02 DIIS
   @DF-RHF iter   4:  -247.70522840085309    1.95350e+01   3.19069e-02 DIIS
   @DF-RHF iter   5:  -302.22530532375015   -5.45201e+01   7.28803e-03 DIIS
   @DF-RHF iter   6:  -305.58382017509996   -3.35851e+00   3.19946e-03 DIIS
   @DF-RHF iter   7:  -305.94249297250894   -3.58673e-01   1.02965e-03 DIIS
   @DF-RHF iter   8:  -305.97791926741900   -3.54263e-02   3.73300e-04 DIIS
   @DF-RHF iter   9:  -305.98428232690230   -6.36306e-03   1.48691e-04 DIIS
   @DF-RHF iter  10:  -305.98554588770446   -1.26356e-03   4.68135e-05 DIIS
   @DF-RHF iter  11:  -305.98573821958053   -1.92332e-04   1.68471e-05 DIIS
   @DF-RHF iter  12:  -305.98576186827609   -2.36487e-05   6.40912e-06 DIIS
   @DF-RHF iter  13:  -305.98576805825041   -6.18997e-06   2.39253e-06 DIIS
   @DF-RHF iter  14:  -305.98576881958274   -7.61332e-07   7.31967e-07 DIIS
   @DF-RHF iter  15:  -305.98576891398670   -9.44040e-08   2.59309e-07 DIIS
   @DF-RHF iter  16:  -305.98576892609071   -1.21040e-08   8.93658e-08 DIIS
   @DF-RHF iter  17:  -305.98576892746769   -1.37697e-09   3.52982e-08 DIIS
   @DF-RHF iter  18:  -305.98576892767539   -2.07706e-10   1.21140e-08 DIIS
   @DF-RHF iter  19:  -305.98576892769620   -2.08047e-11   3.42742e-09 DIIS

  ==> Post-Iterations <==

    Orbital Energies (a.u.)
    -----------------------

    Doubly Occupied:                                                      

       1A    -20.597765     2A    -20.534131     3A    -11.364405  
       4A    -11.279146     5A    -11.235800     6A    -11.224947  
       7A     -1.473041     8A     -1.365938     9A     -1.069527  
      10A     -0.978044    11A     -0.885989    12A     -0.776324  
      13A     -0.699072    14A     -0.682838    15A     -0.676717  
      16A     -0.617564    17A     -0.593640    18A     -0.572209  
      19A     -0.546244    20A     -0.520342    21A     -0.514266  
      22A     -0.503732    23A     -0.460107    24A     -0.437647  

    Virtual:                                                              

      25A      0.136830    26A      0.156125    27A      0.181484  
      28A      0.196696    29A      0.200148    30A      0.210873  
      31A      0.220857    32A      0.231676    33A      0.240480  
      34A      0.257127    35A      0.309548    36A      0.339624  
      37A      0.363043    38A      0.375641    39A      0.384092  
      40A      0.403352    41A      0.449845    42A      0.459811  
      43A      0.466879    44A      0.523616    45A      0.533999  
      46A      0.553069    47A      0.567107    48A      0.584050  
      49A      0.591760    50A      0.618556    51A      0.624310  
      52A      0.629751    53A      0.631826    54A      0.641830  
      55A      0.653122    56A      0.664241    57A      0.685203  
      58A      0.704731    59A      0.716804    60A      0.735938  
      61A      0.754896    62A      0.792376    63A      0.814446  
      64A      0.823785    65A      0.850476    66A      0.875841  
      67A      0.892091    68A      0.923506    69A      0.975575  
      70A      0.980285    71A      0.999170    72A      1.026706  
      73A      1.055454    74A      1.071085    75A      1.088628  
      76A      1.099596    77A      1.139556    78A      1.155596  
      79A      1.172523    80A      1.183341    81A      1.216485  
      82A      1.231138    83A      1.250105    84A      1.269782  
      85A      1.272275    86A      1.293430    87A      1.310301  
      88A      1.324772    89A      1.342481    90A      1.359606  
      91A      1.366189    92A      1.387555    93A      1.416990  
      94A      1.432846    95A      1.467493    96A      1.493560  
      97A      1.506350    98A      1.516037    99A      1.535220  
     100A      1.541124   101A      1.556742   102A      1.574523  
     103A      1.586916   104A      1.611027   105A      1.619972  
     106A      1.686704   107A      1.714316   108A      1.758332  
     109A      1.789854   110A      1.827210   111A      1.846786  
     112A      1.855504   113A      1.871629   114A      1.918777  
     115A      1.994870   116A      2.042263   117A      2.138754  
     118A      2.242567   119A      2.281508   120A      2.328382  
     121A      2.344223   122A      2.419575   123A      2.451784  
     124A      2.490138   125A      2.507635   126A      2.562611  
     127A      2.587293   128A      2.615307   129A      2.644205  
     130A      2.678505   131A      2.694838   132A      2.752932  
     133A      2.761476   134A      2.812780   135A      2.826315  
     136A      2.871599   137A      2.915778   138A      2.940007  
     139A      2.943066   140A      2.973735   141A      2.986307  
     142A      3.033857   143A      3.058086   144A      3.075985  
     145A      3.102989   146A      3.115681   147A      3.129190  
     148A      3.142048   149A      3.153940   150A      3.193825  
     151A      3.226148   152A      3.239153   153A      3.258565  
     154A      3.276586   155A      3.302277   156A      3.304713  
     157A      3.328587   158A      3.338555   159A      3.367072  
     160A      3.385192   161A      3.386246   162A      3.409936  
     163A      3.436024   164A      3.459945   165A      3.470399  
     166A      3.480299   167A      3.495528   168A      3.532328  
     169A      3.536175   170A      3.580875   171A      3.604807  
     172A      3.619451   173A      3.633837   174A      3.653236  
     175A      3.681277   176A      3.722739   177A      3.736715  
     178A      3.746643   179A      3.765983   180A      3.770931  
     181A      3.790875   182A      3.803221   183A      3.814524  
     184A      3.842095   185A      3.859454   186A      3.871737  
     187A      3.889673   188A      3.933299   189A      3.953281  
     190A      3.994238   191A      4.049235   192A      4.067462  
     193A      4.082955   194A      4.107986   195A      4.119122  
     196A      4.146649   197A      4.162845   198A      4.177544  
     199A      4.195280   200A      4.203773   201A      4.221572  
     202A      4.240863   203A      4.260762   204A      4.271349  
     205A      4.338372   206A      4.349113   207A      4.377185  
     208A      4.392027   209A      4.399507   210A      4.410045  
     211A      4.414936   212A      4.443062   213A      4.453603  
     214A      4.480148   215A      4.539515   216A      4.569594  
     217A      4.592960   218A      4.610352   219A      4.636304  
     220A      4.658612   221A      4.667015   222A      4.718899  
     223A      4.738878   224A      4.776442   225A      4.825129  
     226A      4.879057   227A      4.910256   228A      4.953130  
     229A      5.020582   230A      5.050208   231A      5.081263  
     232A      5.141200   233A      5.211262   234A      5.218672  
     235A      5.252239   236A      5.258511   237A      5.269601  
     238A      5.301260   239A      5.339545   240A      5.348996  
     241A      5.368667   242A      5.429477   243A      5.463382  
     244A      5.495120   245A      5.562473   246A      5.577530  
     247A      5.608615   248A      5.636618   249A      5.648016  
     250A      5.675037   251A      5.683924   252A      5.716453  
     253A      5.731656   254A      5.734020   255A      5.756949  
     256A      5.773838   257A      5.836091   258A      5.849949  
     259A      5.886078   260A      5.939685   261A      6.035269  
     262A      6.046029   263A      6.176257   264A      6.193420  
     265A      6.237669   266A      6.294568   267A      6.303265  
     268A      6.336940   269A      6.365442   270A      6.595870  
     271A      6.610884   272A      6.693820   273A      6.835429  
     274A      6.862956   275A      6.882403   276A      6.909774  
     277A      7.028621   278A      7.243052   279A      7.255201  
     280A      7.368169   281A      7.475669   282A      7.482881  
     283A      7.561413   284A      7.685178   285A      7.888080  
     286A      7.995480   287A      9.920810   288A     12.190224  
     289A     13.370775   290A     14.063979   291A     14.249220  
     292A     14.569734  

    Final Occupation by Irrep:
              A 
    DOCC [    24 ]

  Energy converged.

  @DF-RHF Final Energy:  -305.98576892769620

   => Energetics <=

    Nuclear Repulsion Energy =            248.4975437430928480
    One-Electron Energy =                -909.7477541386426765
    Two-Electron Energy =                 355.2644414678536577
    DFT Exchange-Correlation Energy =       0.0000000000000000
    Empirical Dispersion Energy =           0.0000000000000000
    PCM Polarization Energy =               0.0000000000000000
    EFP Energy =                            0.0000000000000000
    Total Energy =                       -305.9857689276961992

    Alert: EFP and PCM quantities not currently incorporated into SCF psivars.

Properties will be evaluated at   0.000000,   0.000000,   0.000000 Bohr
  ==> Properties <==


Properties computed using the SCF density matrix

  Nuclear Dipole Moment: (a.u.)
     X:    -3.9347      Y:     0.5344      Z:    -1.7987

  Electronic Dipole Moment: (a.u.)
     X:     3.5474      Y:    -0.4711      Z:     1.0710

  Dipole Moment: (a.u.)
     X:    -0.3873      Y:     0.0633      Z:    -0.7278     Total:     0.8268

  Dipole Moment: (Debye)
     X:    -0.9843      Y:     0.1610      Z:    -1.8498     Total:     2.1016


  Saving occupied orbitals to File 180.

*** tstop() called on cx1-27-3-2 at Fri Sep  9 21:17:11 2016
Module time:
	user time   =      33.39 seconds =       0.56 minutes
	system time =       0.60 seconds =       0.01 minutes
	total time  =         11 seconds =       0.18 minutes
Total time:
	user time   =      33.39 seconds =       0.56 minutes
	system time =       0.60 seconds =       0.01 minutes
	total time  =         11 seconds =       0.18 minutes

*** tstart() called on cx1-27-3-2
*** at Fri Sep  9 21:17:11 2016


         ------------------------------------------------------------
                                   SCF GRAD                          
                          Rob Parrish, Justin Turney,                
                       Andy Simmonett, and Alex Sokolov              
         ------------------------------------------------------------

  ==> Geometry <==

    Molecular point group: c1
    Full point group: C1

    Geometry (in Angstrom), charge = 0, multiplicity = 1:

       Center              X                  Y                   Z               Mass       
    ------------   -----------------  -----------------  -----------------  -----------------
           O          0.955265278290    -0.086345615271     1.198108723802    15.994914619560
           C          0.230490278290    -0.230132615271     0.273539723802    12.000000000000
           C         -1.031112721710    -1.055342615271     0.273476723802    12.000000000000
           O          0.440483278290     0.328627384729    -0.906681276198    15.994914619560
           C         -2.300421721710    -0.218723615271     0.273409723802    12.000000000000
           H         -0.987776721710    -1.707699615271    -0.591671276198     1.007825032070
           H         -0.987856721710    -1.707627615271     1.138686723802     1.007825032070
           H         -2.347169721710     0.418188384729    -0.599743276198     1.007825032070
           H         -3.170612721710    -0.863713615271     0.273421723802     1.007825032070
           H         -2.347214721710     0.418255384729     1.146508723802     1.007825032070
           C          1.593735278290     1.133484384729    -1.047603276198    12.000000000000
           H          1.564131278290     1.965707384729    -0.360025276198     1.007825032070
           H          1.585318278290     1.490457384729    -2.064621276198     1.007825032070
           H          2.486907278290     0.555278384729    -0.862762276198     1.007825032070

  Nuclear repulsion =  248.497543743092848

  ==> Basis Set <==

  Basis Set: CC-PVTZ
    Number of shells: 108
    Number of basis function: 292
    Number of Cartesian functions: 330
    Spherical Harmonics?: true
    Max angular momentum: 3

  ==> DFJKGrad: Density-Fitted SCF Gradients <==

    Gradient:                    1
    J tasked:                  Yes
    K tasked:                  Yes
    wK tasked:                  No
    OpenMP threads:              4
    Integrals threads:           4
    Memory (MB):              1430
    Schwarz Cutoff:          0E+00
    Fitting Condition:       1E-12

   => Auxiliary Basis Set <=

  Basis Set: 
    Number of shells: 230
    Number of basis function: 714
    Number of Cartesian functions: 856
    Spherical Harmonics?: true
    Max angular momentum: 4


  -Total Gradient:
     Atom            X                  Y                   Z
    ------   -----------------  -----------------  -----------------
       1        0.000393191690     0.000251802496    -0.000446180728
       2        0.001788548019    -0.000594310941     0.000875699678
       3       -0.007557918793     0.011867561655    -0.003508850810
       4       -0.001185838446    -0.001033110119     0.000405364345
       5        0.001942565987    -0.002586873022     0.002124818001
       6        0.002827012086    -0.003073160018     0.002236483144
       7        0.001026258094    -0.004562354301    -0.000726190223
       8        0.000546533849     0.000533914626     0.001021739328
       9       -0.000268509839    -0.000854265206    -0.000248559236
      10        0.000279883827     0.000418537488    -0.001759279123
      11        0.000163582914    -0.000408234665     0.000036379170
      12       -0.000037599499     0.000007074568    -0.000004923448
      13       -0.000025169466    -0.000028257590     0.000032275985
      14        0.000107459580     0.000061675030    -0.000038776084


*** tstop() called on cx1-27-3-2 at Fri Sep  9 21:17:28 2016
Module time:
	user time   =      61.07 seconds =       1.02 minutes
	system time =       0.60 seconds =       0.01 minutes
	total time  =         17 seconds =       0.28 minutes
Total time:
	user time   =      94.48 seconds =       1.57 minutes
	system time =       1.20 seconds =       0.02 minutes
	total time  =         28 seconds =       0.47 minutes
CURRENT ENERGY: -305.9857689277

			-----------------------------------------
			 OPTKING 2.0: for geometry optimizations 
			  - R.A. King,  Bethel University        
			-----------------------------------------

	Internal coordinates to be generated automatically.
	Detected frag with atoms:  1 2 3 4 5 6 7 8 9 10 11 12 13 14
	---Fragment 1 Bond Connectivity---
	 1 : 2
	 2 : 1 3 4
	 3 : 2 5 6 7
	 4 : 2 11
	 5 : 3 8 9 10
	 6 : 3
	 7 : 3
	 8 : 5
	 9 : 5
	 10 : 5
	 11 : 4 12 13 14
	 12 : 11
	 13 : 11
	 14 : 11

	Assuming in current code that numbering for constraints corresponds to unified fragment.
	Frozen dihedral atom list: 
	     4     2     3     6
	---Fragment 1 Geometry and Gradient---
	 O           1.8051897602       -0.1631695656        2.2640973654
	 C           0.4355635023       -0.4348876171        0.5169151645
	 C          -1.9485206562       -1.9943085192        0.5167961117
	 O           0.8323927621        0.6210157569       -1.7133793018
	 C          -4.3471670442       -0.4133277317        0.5166695001
	 H          -1.8666274845       -3.2270845901       -1.1180966727
	 H          -1.8667786626       -3.2269485298        2.1518060591
	 H          -4.4355079614        0.7902615191       -1.1333505421
	 H          -5.9915897175       -1.6321821901        0.5166921768
	 H          -4.4355929991        0.7903881307        2.1665874970
	 C           3.0117232043        2.1419750630       -1.9796832879
	 H           2.9557797518        3.7146486145       -0.6803491729
	 H           2.9958173794        2.8165562699       -3.9015687801
	 H           4.6995736738        1.0493240746       -1.6303844198
	             0.0003931917        0.0002518025       -0.0004461807
	             0.0017885480       -0.0005943109        0.0008756997
	            -0.0075579188        0.0118675617       -0.0035088508
	            -0.0011858384       -0.0010331101        0.0004053643
	             0.0019425660       -0.0025868730        0.0021248180
	             0.0028270121       -0.0030731600        0.0022364831
	             0.0010262581       -0.0045623543       -0.0007261902
	             0.0005465338        0.0005339146        0.0010217393
	            -0.0002685098       -0.0008542652       -0.0002485592
	             0.0002798838        0.0004185375       -0.0017592791
	             0.0001635829       -0.0004082347        0.0000363792
	            -0.0000375995        0.0000070746       -0.0000049234
	            -0.0000251695       -0.0000282576        0.0000322760
	             0.0001074596        0.0000616750       -0.0000387761

	Previous optimization step data not found.  Starting new optimization.

	---Fragment 1 Intrafragment Coordinates---
	 - Coordinate -           - BOHR/RAD -       - ANG/DEG -
	 R(1,2)           =         2.236594	       1.183555
	 R(2,3)           =         2.848798	       1.507519
	 R(2,4)           =         2.499324	       1.322585
	 R(3,5)           =         2.872804	       1.520223
	 R(3,6)           =         2.049224	       1.084403
	 R(3,7)           =         2.049229	       1.084406
	 R(4,11)          =         2.670902	       1.413380
	 R(5,8)           =         2.044260	       1.081776
	 R(5,9)           =         2.046884	       1.083164
	 R(5,10)          =         2.044255	       1.081773
	 R(11,12)         =         2.040760	       1.079924
	 R(11,13)         =         2.036899	       1.077880
	 R(11,14)         =         2.040768	       1.079928
	 B(1,2,3)         =         2.188313	     125.381077
	 B(1,2,4)         =         2.151412	     123.266806
	 B(2,3,5)         =         1.979588	     113.422019
	 B(2,3,6)         =         1.871187	     107.211091
	 B(2,3,7)         =         1.871142	     107.208566
	 B(2,4,11)        =         2.047786	     117.329495
	 B(3,2,4)         =         1.943461	     111.352116
	 B(3,5,8)         =         1.939204	     111.108208
	 B(3,5,9)         =         1.920989	     110.064544
	 B(3,5,10)        =         1.939202	     111.108110
	 B(4,11,12)       =         1.931562	     110.670347
	 B(4,11,13)       =         1.850735	     106.039301
	 B(4,11,14)       =         1.931453	     110.664093
	 B(5,3,6)         =         1.943783	     111.370573
	 B(5,3,7)         =         1.943752	     111.368800
	 B(6,3,7)         =         1.847402	     105.848335
	 B(8,5,9)         =         1.892183	     108.414115
	 B(8,5,10)        =         1.878528	     107.631737
	 B(9,5,10)        =         1.892169	     108.413283
	 B(12,11,13)      =         1.923364	     110.200626
	 B(12,11,14)      =         1.903184	     109.044413
	 B(13,11,14)      =         1.923325	     110.198415
	 D(1,2,3,5)       =         1.861335	     106.646665
	 D(1,2,3,6)       =        -2.268779	    -129.991475
	 D(1,2,3,7)       =        -0.291664	     -16.711116
	 D(1,2,4,11)      =        -0.000261	      -0.014975
	 D(2,3,5,8)       =         1.045544	      59.905272
	 D(2,3,5,9)       =        -3.141538	    -179.996886
	 D(2,3,5,10)      =        -1.045455	     -59.900150
	 D(2,4,11,12)     =        -1.056341	     -60.523894
	 D(2,4,11,13)     =         3.141113	     179.972533
	 D(2,4,11,14)     =         1.055488	      60.475013
	 D(3,2,4,11)      =         3.141476	     179.993344
	 D(4,2,3,5)       =        -1.280406	     -73.361866
	*D(4,2,3,6)       =         0.872665	      49.999994
	 D(4,2,3,7)       =         2.849780	     163.280353
	 D(6,3,5,8)       =        -1.067173	     -61.144504
	 D(6,3,5,9)       =         1.028930	      58.953338
	 D(6,3,5,10)      =         3.125013	     179.050074
	 D(7,3,5,8)       =        -3.125004	    -179.049560
	 D(7,3,5,9)       =        -1.028902	     -58.951719
	 D(7,3,5,10)      =         1.067182	      61.145018

	Current energy   :      -305.9857689277

	Generating empirical Hessian (Schlegel '84) for each fragment.
	Taking RFO optimization step.
	Going to follow RFO solution 1.
	Using RFO vector 1.
	Norm of target step-size    0.12535
	Projected energy change by RFO approximation:         0.0006025872

	Back-transformation to cartesian coordinates...
	Successfully converged to displaced geometry.

	Back-transformation to cartesian coordinates to adjust frozen coordinates...
	Successfully converged to displaced geometry.

	--- Internal Coordinate Step in ANG or DEG, aJ/ANG or AJ/DEG ---
	 ---------------------------------------------------------------------------
	   Coordinate                Previous        Force       Change         New 
	   ----------                --------       ------       ------       ------
	    1 R(1,2)          =      1.183555     0.000636     0.000036     1.183591
	    2 R(2,3)          =      1.507519    -0.000441    -0.000089     1.507430
	    3 R(2,4)          =      1.322585     0.009318     0.000975     1.323560
	    4 R(3,5)          =      1.520223     0.028485     0.006014     1.526236
	    5 R(3,6)          =      1.084403    -0.001462    -0.000264     1.084138
	    6 R(3,7)          =      1.084406    -0.018173    -0.003284     1.081122
	    7 R(4,11)         =      1.413380     0.000346     0.000051     1.413431
	    8 R(5,8)          =      1.081776     0.004399     0.000788     1.082564
	    9 R(5,9)          =      1.083164    -0.005968    -0.001074     1.082090
	   10 R(5,10)         =      1.081773     0.009768     0.001750     1.083523
	   11 R(11,12)        =      1.079924    -0.000028    -0.000005     1.079919
	   12 R(11,13)        =      1.077880     0.000326     0.000058     1.077938
	   13 R(11,14)        =      1.079928    -0.000405    -0.000072     1.079856
	   14 B(1,2,3)        =    125.381077    -0.000146    -0.457810   124.923267
	   15 B(1,2,4)        =    123.266806    -0.000039    -0.137684   123.129122
	   16 B(2,3,5)        =    113.422019    -0.000152    -1.117510   112.304510
	   17 B(2,3,6)        =    107.211091     0.000165     0.825259   108.036349
	   18 B(2,3,7)        =    107.208566     0.000026     0.005802   107.214368
	   19 B(2,4,11)       =    117.329495     0.000015     0.044341   117.373836
	   20 B(3,2,4)        =    111.352116     0.000185     0.537395   111.889512
	   21 B(3,5,8)        =    111.108208     0.000012     0.198940   111.307149
	   22 B(3,5,9)        =    110.064544     0.000043     0.015387   110.079931
	   23 B(3,5,10)       =    111.108110    -0.000052    -0.200017   110.908094
	   24 B(4,11,12)      =    110.670347     0.000005     0.023946   110.694293
	   25 B(4,11,13)      =    106.039301     0.000006     0.036285   106.075586
	   26 B(4,11,14)      =    110.664093    -0.000016    -0.081557   110.582536
	   27 B(5,3,6)        =    111.370573    -0.000121    -1.459450   109.911123
	   28 B(5,3,7)        =    111.368800    -0.000025    -0.555922   110.812879
	   29 B(6,3,7)        =    105.848335     0.000136     2.577089   108.425424
	   30 B(8,5,9)        =    108.414115    -0.000039    -0.262033   108.152083
	   31 B(8,5,10)       =    107.631737     0.000071     0.677240   108.308977
	   32 B(9,5,10)       =    108.413283    -0.000035    -0.439071   107.974212
	   33 B(12,11,13)     =    110.200626     0.000000     0.013775   110.214401
	   34 B(12,11,14)     =    109.044413     0.000001    -0.006709   109.037704
	   35 B(13,11,14)     =    110.198415     0.000003     0.015311   110.213726
	   36 D(1,2,3,5)      =    106.646665     0.000003    -0.733032   105.913633
	   37 D(1,2,3,6)      =   -129.991475    -0.000028    -2.715412  -132.706887
	   38 D(1,2,3,7)      =    -16.711116     0.000028     0.676016   -16.035100
	   39 D(1,2,4,11)     =     -0.014975     0.000007     0.047045     0.032070
	   40 D(2,3,5,8)      =     59.905272     0.000014     0.848492    60.753765
	   41 D(2,3,5,9)      =   -179.996886     0.000011     0.659044  -179.337843
	   42 D(2,3,5,10)     =    -59.900150     0.000000    -0.007063   -59.907213
	   43 D(2,4,11,12)    =    -60.523894     0.000001     0.006445   -60.517449
	   44 D(2,4,11,13)    =    179.972533    -0.000001    -0.044781   179.927752
	   45 D(2,4,11,14)    =     60.475013    -0.000000    -0.040400    60.434613
	   46 D(3,2,4,11)     =    179.993344    -0.000020    -2.611478   177.381866
	   47 D(4,2,3,5)      =    -73.361866     0.000031     1.982380   -71.379487
	   48 *D(4,2,3,6)     =     49.999994     0.000000    -0.000000    49.999994
	   49 D(4,2,3,7)      =    163.280353     0.000057     3.391428   166.671781
	   50 D(6,3,5,8)      =    -61.144504     0.000011     1.598438   -59.546066
	   51 D(6,3,5,9)      =     58.953338     0.000008     1.408989    60.362327
	   52 D(6,3,5,10)     =    179.050074    -0.000004     0.742882   179.792956
	   53 D(7,3,5,8)      =   -179.049560    -0.000007    -0.319254  -179.368814
	   54 D(7,3,5,9)      =    -58.951719    -0.000010    -0.508703   -59.460421
	   55 D(7,3,5,10)     =     61.145018    -0.000021    -1.174809    59.970208
	 ---------------------------------------------------------------------------

  ==> Convergence Check <==

  Measures of convergence in internal coordinates in au.
  Criteria marked as inactive (o), active & met (*), and active & unmet ( ).
  --------------------------------------------------------------------------------------------- ~
   Step     Total Energy     Delta E     MAX Force     RMS Force      MAX Disp      RMS Disp    ~
  --------------------------------------------------------------------------------------------- ~
    Convergence Criteria    1.00e-06 *    3.00e-04 *             o    1.20e-03 *             o  ~
  --------------------------------------------------------------------------------------------- ~
      1    -305.98576893   -3.06e+02      3.46e-03      1.14e-03 o    5.92e-02      1.69e-02 o  ~
  ---------------------------------------------------------------------------------------------

	Writing optimization data to binary file.
	Structure for next step:
	Cartesian Geometry (in Angstrom)
	    O     0.9573412051  -0.1105673566   1.1913557550
	    C     0.2425357056  -0.2695859046   0.2614886475
	    C    -1.0265104139  -1.0829765845   0.2776846411
	    O     0.4453494133   0.3050800051  -0.9134317813
	    C    -2.2762302758  -0.2069834760   0.2624073360
	    H    -1.0201327917  -1.7323016989  -0.5904698968
	    H    -1.0002223160  -1.6992747226   1.1655526665
	    H    -2.3161990113   0.4058103794  -0.6291251712
	    H    -3.1637956846  -0.8255066961   0.2864062439
	    H    -2.3007949474   0.4467396860   1.1261577030
	    C     1.5760140914   1.1437231006  -1.0401738374
	    H     1.5183852444   1.9694252159  -0.3465460292
	    H     1.5652240295   1.5080213485  -2.0546299056
	    H     2.4832013179   0.5888101237  -0.8526323800
			--------------------------
			 OPTKING Finished Execution 
			--------------------------

    Structure for next step:
    Molecular point group: c1
    Full point group: C1

    Geometry (in Angstrom), charge = 0, multiplicity = 1:

    O            0.953273578394    -0.096805553714     1.195079192714
    C            0.238468133486    -0.255824089627     0.265212156197
    C           -1.030577889177    -1.069214707368     0.281408148568
    O            0.441281825687     0.318841776246    -0.909708182812
    C           -2.280297655639    -0.193221665840     0.266130844604
    H           -1.024200267407    -1.718539772208    -0.586746323020
    H           -1.004289793285    -1.685512798413     1.169276106216
    H           -2.320266388021     0.419572142818    -0.625401594502
    H           -3.167862996674    -0.811744838698     0.290129750768
    H           -2.304862325319     0.460501446271     1.129881145701
    C            1.571946417365     1.157484807626    -1.036450229236
    H            1.514317574768     1.983186859889    -0.342822474062
    H            1.561156356360     1.521783027746    -2.050906220029
    H            2.479133574604     0.602571873114    -0.848908786178

gradient() will perform analytic gradient computation.

*** tstart() called on cx1-27-3-2
*** at Fri Sep  9 21:17:28 2016


         ---------------------------------------------------------
                                   SCF
            by Justin Turney, Rob Parrish, and Andy Simmonett
                              RHF Reference
                        4 Threads,   2000 MiB Core
         ---------------------------------------------------------

  ==> Geometry <==

    Molecular point group: c1
    Full point group: C1

    Geometry (in Angstrom), charge = 0, multiplicity = 1:

       Center              X                  Y                   Z               Mass       
    ------------   -----------------  -----------------  -----------------  -----------------
           O          0.953273578394    -0.096805553714     1.195079192714    15.994914619560
           C          0.238468133486    -0.255824089627     0.265212156197    12.000000000000
           C         -1.030577889177    -1.069214707368     0.281408148568    12.000000000000
           O          0.441281825687     0.318841776246    -0.909708182812    15.994914619560
           C         -2.280297655639    -0.193221665840     0.266130844604    12.000000000000
           H         -1.024200267407    -1.718539772208    -0.586746323020     1.007825032070
           H         -1.004289793285    -1.685512798413     1.169276106216     1.007825032070
           H         -2.320266388021     0.419572142818    -0.625401594502     1.007825032070
           H         -3.167862996674    -0.811744838698     0.290129750768     1.007825032070
           H         -2.304862325319     0.460501446271     1.129881145701     1.007825032070
           C          1.571946417365     1.157484807626    -1.036450229236    12.000000000000
           H          1.514317574768     1.983186859889    -0.342822474062     1.007825032070
           H          1.561156356360     1.521783027746    -2.050906220029     1.007825032070
           H          2.479133574604     0.602571873114    -0.848908786178     1.007825032070

  Running in c1 symmetry.

  Rotational constants: A =      0.22149  B =      0.08291  C =      0.06803 [cm^-1]
  Rotational constants: A =   6639.97041  B =   2485.70173  C =   2039.51970 [MHz]
  Nuclear repulsion =  248.694196836377159

  Charge       = 0
  Multiplicity = 1
  Electrons    = 48
  Nalpha       = 24
  Nbeta        = 24

  ==> Algorithm <==

  SCF Algorithm Type is DF.
  DIIS enabled.
  MOM disabled.
  Fractional occupation disabled.
  Guess Type is READ.
  Energy threshold   = 1.00e-08
  Density threshold  = 1.00e-08
  Integral threshold = 0.00e+00

  ==> Primary Basis <==

  Basis Set: CC-PVTZ
    Number of shells: 108
    Number of basis function: 292
    Number of Cartesian functions: 330
    Spherical Harmonics?: true
    Max angular momentum: 3

  ==> Pre-Iterations <==

   -------------------------------------------------------
    Irrep   Nso     Nmo     Nalpha   Nbeta   Ndocc  Nsocc
   -------------------------------------------------------
     A        292     292       0       0       0       0
   -------------------------------------------------------
    Total     292     292      24      24      24       0
   -------------------------------------------------------

 OEINTS: Overlap, kinetic, potential, dipole, and quadrupole integrals
         stored in file 35.

  ==> Integral Setup <==

  ==> DFJK: Density-Fitted J/K Matrices <==

    J tasked:                  Yes
    K tasked:                  Yes
    wK tasked:                  No
    OpenMP threads:              4
    Integrals threads:           4
    Memory (MB):              1430
    Algorithm:                Core
    Integral Cache:           NONE
    Schwarz Cutoff:          1E-12
    Fitting Condition:       1E-12

   => Auxiliary Basis Set <=

  Basis Set: 
    Number of shells: 230
    Number of basis function: 714
    Number of Cartesian functions: 856
    Spherical Harmonics?: true
    Max angular momentum: 4

  Minimum eigenvalue in the overlap matrix is 4.9603413812E-04.
  Using Symmetric Orthogonalization.
  SCF Guess: Reading in previously saved MOs, projecting if necessary.

  Using orbitals from previous SCF, no projection.
  Recomputing DOCC and SOCC from number of alpha and beta electrons from previous calculation.
              A 
    DOCC [    24 ]

  ==> Iterations <==

                           Total Energy        Delta E     RMS |[F,P]|

   @DF-RHF iter   0:  -305.98220911826888   -3.05982e+02   2.45914e-04 
   @DF-RHF iter   1:  -305.98595798850079   -3.74887e-03   4.14110e-05 
   @DF-RHF iter   2:  -305.98609206398157   -1.34075e-04   1.47506e-05 DIIS
   @DF-RHF iter   3:  -305.98611231179916   -2.02478e-05   5.35104e-06 DIIS
   @DF-RHF iter   4:  -305.98611427891183   -1.96711e-06   1.50743e-06 DIIS
   @DF-RHF iter   5:  -305.98611453065371   -2.51742e-07   8.36876e-07 DIIS
   @DF-RHF iter   6:  -305.98611460064080   -6.99871e-08   3.26493e-07 DIIS
   @DF-RHF iter   7:  -305.98611461939618   -1.87554e-08   1.01742e-07 DIIS
   @DF-RHF iter   8:  -305.98611462125348   -1.85730e-09   4.01671e-08 DIIS
   @DF-RHF iter   9:  -305.98611462146482   -2.11344e-10   1.57122e-08 DIIS
   @DF-RHF iter  10:  -305.98611462149972   -3.49019e-11   5.76239e-09 DIIS

  ==> Post-Iterations <==

    Orbital Energies (a.u.)
    -----------------------

    Doubly Occupied:                                                      

       1A    -20.597651     2A    -20.533840     3A    -11.364359  
       4A    -11.279168     5A    -11.236249     6A    -11.225035  
       7A     -1.472621     8A     -1.365662     9A     -1.069023  
      10A     -0.977392    11A     -0.885245    12A     -0.776130  
      13A     -0.698844    14A     -0.682901    15A     -0.676496  
      16A     -0.619653    17A     -0.593410    18A     -0.571192  
      19A     -0.544981    20A     -0.520108    21A     -0.512530  
      22A     -0.505876    23A     -0.460079    24A     -0.437686  

    Virtual:                                                              

      25A      0.137555    26A      0.156478    27A      0.181983  
      28A      0.194982    29A      0.199046    30A      0.210724  
      31A      0.221396    32A      0.232376    33A      0.240343  
      34A      0.256789    35A      0.311174    36A      0.338652  
      37A      0.363135    38A      0.376538    39A      0.383084  
      40A      0.404139    41A      0.450352    42A      0.453732  
      43A      0.468323    44A      0.522791    45A      0.540389  
      46A      0.553483    47A      0.567128    48A      0.584369  
      49A      0.592742    50A      0.617269    51A      0.625140  
      52A      0.630678    53A      0.632019    54A      0.638202  
      55A      0.652916    56A      0.664202    57A      0.683744  
      58A      0.699527    59A      0.716281    60A      0.736426  
      61A      0.760077    62A      0.790999    63A      0.813368  
      64A      0.823454    65A      0.846150    66A      0.875471  
      67A      0.895926    68A      0.927285    69A      0.978328  
      70A      0.981338    71A      0.994479    72A      1.030174  
      73A      1.057624    74A      1.069460    75A      1.087636  
      76A      1.103827    77A      1.138563    78A      1.153182  
      79A      1.171200    80A      1.182142    81A      1.213742  
      82A      1.230156    83A      1.250546    84A      1.271554  
      85A      1.273030    86A      1.291844    87A      1.312699  
      88A      1.325044    89A      1.341164    90A      1.360253  
      91A      1.368745    92A      1.388225    93A      1.414229  
      94A      1.432088    95A      1.468229    96A      1.491637  
      97A      1.504138    98A      1.516754    99A      1.535102  
     100A      1.542255   101A      1.559917   102A      1.573657  
     103A      1.584811   104A      1.612212   105A      1.622880  
     106A      1.687497   107A      1.716877   108A      1.758423  
     109A      1.787068   110A      1.828202   111A      1.843159  
     112A      1.857755   113A      1.865214   114A      1.920425  
     115A      1.992341   116A      2.043046   117A      2.138427  
     118A      2.242225   119A      2.281819   120A      2.328404  
     121A      2.345018   122A      2.419737   123A      2.449849  
     124A      2.489611   125A      2.506422   126A      2.564906  
     127A      2.585793   128A      2.613189   129A      2.645559  
     130A      2.679902   131A      2.698024   132A      2.749462  
     133A      2.761535   134A      2.813037   135A      2.830890  
     136A      2.869740   137A      2.917994   138A      2.934246  
     139A      2.940297   140A      2.968886   141A      2.991408  
     142A      3.035343   143A      3.057049   144A      3.075139  
     145A      3.109263   146A      3.115450   147A      3.130520  
     148A      3.141165   149A      3.154268   150A      3.193540  
     151A      3.224984   152A      3.238645   153A      3.260053  
     154A      3.274646   155A      3.302509   156A      3.306371  
     157A      3.328953   158A      3.344516   159A      3.358988  
     160A      3.383943   161A      3.387825   162A      3.412264  
     163A      3.440044   164A      3.462680   165A      3.467198  
     166A      3.480267   167A      3.492296   168A      3.529638  
     169A      3.532565   170A      3.576714   171A      3.606129  
     172A      3.620682   173A      3.633064   174A      3.654251  
     175A      3.682962   176A      3.719933   177A      3.742437  
     178A      3.744315   179A      3.769029   180A      3.770312  
     181A      3.788962   182A      3.809802   183A      3.810483  
     184A      3.842203   185A      3.859743   186A      3.872005  
     187A      3.891069   188A      3.934321   189A      3.955925  
     190A      3.992154   191A      4.054908   192A      4.070091  
     193A      4.087127   194A      4.113146   195A      4.122294  
     196A      4.148762   197A      4.163439   198A      4.176634  
     199A      4.194202   200A      4.206067   201A      4.221365  
     202A      4.236695   203A      4.254473   204A      4.268548  
     205A      4.328930   206A      4.348335   207A      4.373521  
     208A      4.391085   209A      4.397316   210A      4.406888  
     211A      4.411216   212A      4.437520   213A      4.456721  
     214A      4.481289   215A      4.536630   216A      4.570019  
     217A      4.593784   218A      4.613389   219A      4.625078  
     220A      4.657739   221A      4.660450   222A      4.724535  
     223A      4.741177   224A      4.777930   225A      4.828525  
     226A      4.878003   227A      4.914110   228A      4.946023  
     229A      5.016522   230A      5.051163   231A      5.081856  
     232A      5.165770   233A      5.206157   234A      5.222308  
     235A      5.245678   236A      5.250986   237A      5.263698  
     238A      5.297729   239A      5.338278   240A      5.348642  
     241A      5.368411   242A      5.420901   243A      5.465532  
     244A      5.495585   245A      5.562747   246A      5.578523  
     247A      5.606998   248A      5.642165   249A      5.648356  
     250A      5.673482   251A      5.689222   252A      5.709843  
     253A      5.723598   254A      5.737551   255A      5.749245  
     256A      5.776849   257A      5.834359   258A      5.854836  
     259A      5.883495   260A      5.940325   261A      6.040523  
     262A      6.043333   263A      6.177032   264A      6.192656  
     265A      6.237851   266A      6.294872   267A      6.301963  
     268A      6.327300   269A      6.354960   270A      6.594690  
     271A      6.608058   272A      6.692939   273A      6.833171  
     274A      6.862806   275A      6.877406   276A      6.909604  
     277A      7.028792   278A      7.240717   279A      7.257382  
     280A      7.368794   281A      7.475956   282A      7.484222  
     283A      7.562018   284A      7.683689   285A      7.887120  
     286A      7.995061   287A      9.924944   288A     12.167821  
     289A     13.418604   290A     14.056647   291A     14.225910  
     292A     14.563756  

    Final Occupation by Irrep:
              A 
    DOCC [    24 ]

  Energy converged.

  @DF-RHF Final Energy:  -305.98611462149972

   => Energetics <=

    Nuclear Repulsion Energy =            248.6941968363771593
    One-Electron Energy =                -910.1483562620480825
    Two-Electron Energy =                 355.4680448041711998
    DFT Exchange-Correlation Energy =       0.0000000000000000
    Empirical Dispersion Energy =           0.0000000000000000
    PCM Polarization Energy =               0.0000000000000000
    EFP Energy =                            0.0000000000000000
    Total Energy =                       -305.9861146214997234

    Alert: EFP and PCM quantities not currently incorporated into SCF psivars.

Properties will be evaluated at   0.000000,   0.000000,   0.000000 Bohr
  ==> Properties <==


Properties computed using the SCF density matrix

  Nuclear Dipole Moment: (a.u.)
     X:    -3.9934      Y:     0.7246      Z:    -1.7475

  Electronic Dipole Moment: (a.u.)
     X:     3.5979      Y:    -0.6525      Z:     1.0262

  Dipole Moment: (a.u.)
     X:    -0.3954      Y:     0.0721      Z:    -0.7212     Total:     0.8257

  Dipole Moment: (Debye)
     X:    -1.0050      Y:     0.1833      Z:    -1.8332     Total:     2.0987


  Saving occupied orbitals to File 180.

*** tstop() called on cx1-27-3-2 at Fri Sep  9 21:17:38 2016
Module time:
	user time   =      31.06 seconds =       0.52 minutes
	system time =       0.59 seconds =       0.01 minutes
	total time  =         10 seconds =       0.17 minutes
Total time:
	user time   =     126.62 seconds =       2.11 minutes
	system time =       1.82 seconds =       0.03 minutes
	total time  =         38 seconds =       0.63 minutes

*** tstart() called on cx1-27-3-2
*** at Fri Sep  9 21:17:38 2016


         ------------------------------------------------------------
                                   SCF GRAD                          
                          Rob Parrish, Justin Turney,                
                       Andy Simmonett, and Alex Sokolov              
         ------------------------------------------------------------

  ==> Geometry <==

    Molecular point group: c1
    Full point group: C1

    Geometry (in Angstrom), charge = 0, multiplicity = 1:

       Center              X                  Y                   Z               Mass       
    ------------   -----------------  -----------------  -----------------  -----------------
           O          0.953273578394    -0.096805553714     1.195079192714    15.994914619560
           C          0.238468133486    -0.255824089627     0.265212156197    12.000000000000
           C         -1.030577889177    -1.069214707368     0.281408148568    12.000000000000
           O          0.441281825687     0.318841776246    -0.909708182812    15.994914619560
           C         -2.280297655639    -0.193221665840     0.266130844604    12.000000000000
           H         -1.024200267407    -1.718539772208    -0.586746323020     1.007825032070
           H         -1.004289793285    -1.685512798413     1.169276106216     1.007825032070
           H         -2.320266388021     0.419572142818    -0.625401594502     1.007825032070
           H         -3.167862996674    -0.811744838698     0.290129750768     1.007825032070
           H         -2.304862325319     0.460501446271     1.129881145701     1.007825032070
           C          1.571946417365     1.157484807626    -1.036450229236    12.000000000000
           H          1.514317574768     1.983186859889    -0.342822474062     1.007825032070
           H          1.561156356360     1.521783027746    -2.050906220029     1.007825032070
           H          2.479133574604     0.602571873114    -0.848908786178     1.007825032070

  Nuclear repulsion =  248.694196836377159

  ==> Basis Set <==

  Basis Set: CC-PVTZ
    Number of shells: 108
    Number of basis function: 292
    Number of Cartesian functions: 330
    Spherical Harmonics?: true
    Max angular momentum: 3

  ==> DFJKGrad: Density-Fitted SCF Gradients <==

    Gradient:                    1
    J tasked:                  Yes
    K tasked:                  Yes
    wK tasked:                  No
    OpenMP threads:              4
    Integrals threads:           4
    Memory (MB):              1430
    Schwarz Cutoff:          0E+00
    Fitting Condition:       1E-12

   => Auxiliary Basis Set <=

  Basis Set: 
    Number of shells: 230
    Number of basis function: 714
    Number of Cartesian functions: 856
    Spherical Harmonics?: true
    Max angular momentum: 4


  -Total Gradient:
     Atom            X                  Y                   Z
    ------   -----------------  -----------------  -----------------
       1       -0.001369873910     0.001993076553    -0.000108352835
       2        0.003938903624    -0.005796951212    -0.001000763303
       3       -0.003672173136     0.004586276787     0.001113406170
       4       -0.000605970293     0.001403294438     0.000411117813
       5        0.000913718019    -0.002250247349     0.000018424083
       6        0.000648373322    -0.000212476743    -0.000401628773
       7        0.000237594805    -0.000745651888     0.000419980152
       8       -0.000198987579     0.000380254924    -0.000239463599
       9        0.000106969788     0.000287032539    -0.000108501564
      10        0.000116504123     0.000018879159    -0.000013280814
      11       -0.000206266356     0.000374660731    -0.000074790065
      12        0.000111914386     0.000046804309    -0.000053930066
      13        0.000061884924     0.000048332172    -0.000008261596
      14       -0.000082591714    -0.000133284421     0.000046044398


*** tstop() called on cx1-27-3-2 at Fri Sep  9 21:17:56 2016
Module time:
	user time   =      65.13 seconds =       1.09 minutes
	system time =       0.68 seconds =       0.01 minutes
	total time  =         18 seconds =       0.30 minutes
Total time:
	user time   =     191.77 seconds =       3.20 minutes
	system time =       2.50 seconds =       0.04 minutes
	total time  =         56 seconds =       0.93 minutes
CURRENT ENERGY: -305.9861146215

			-----------------------------------------
			 OPTKING 2.0: for geometry optimizations 
			  - R.A. King,  Bethel University        
			-----------------------------------------

	Previous internal coordinate definitions found.
	---Fragment 1 Geometry and Gradient---
	 O           1.8014259929       -0.1829359847        2.2583723813
	 C           0.4506394637       -0.4834374676        0.5011783423
	 C          -1.9475099692       -2.0205229742        0.5317843324
	 O           0.8339017980        0.6025236368       -1.7190993264
	 C          -4.3091380706       -0.3651360314        0.5029144118
	 H          -1.9354580106       -3.2475695179       -1.1087898600
	 H          -1.8978326674       -3.1851575825        2.2096116145
	 H          -4.3846680287        0.7928764429       -1.1818377367
	 H          -5.9863934902       -1.5339754349        0.5482657720
	 H          -4.3555585689        0.8702216172        2.1351659281
	 C           2.9705482244        2.1873292894       -1.9586070836
	 H           2.8616454945        3.7476800355       -0.6478405882
	 H           2.9501579641        2.8757531561       -3.8756510801
	 H           4.6848835028        1.1386958156       -1.6042051177
	            -0.0013698739        0.0019930766       -0.0001083528
	             0.0039389036       -0.0057969512       -0.0010007633
	            -0.0036721731        0.0045862768        0.0011134062
	            -0.0006059703        0.0014032944        0.0004111178
	             0.0009137180       -0.0022502473        0.0000184241
	             0.0006483733       -0.0002124767       -0.0004016288
	             0.0002375948       -0.0007456519        0.0004199802
	            -0.0001989876        0.0003802549       -0.0002394636
	             0.0001069698        0.0002870325       -0.0001085016
	             0.0001165041        0.0000188792       -0.0000132808
	            -0.0002062664        0.0003746607       -0.0000747901
	             0.0001119144        0.0000468043       -0.0000539301
	             0.0000618849        0.0000483322       -0.0000082616
	            -0.0000825917       -0.0001332844        0.0000460444

	---Fragment 1 Intrafragment Coordinates---
	 - Coordinate -           - BOHR/RAD -       - ANG/DEG -
	 R(1,2)           =         2.236662	       1.183591
	 R(2,3)           =         2.848629	       1.507430
	 R(2,4)           =         2.501167	       1.323560
	 R(3,5)           =         2.884168	       1.526236
	 R(3,6)           =         2.048725	       1.084138
	 R(3,7)           =         2.043024	       1.081122
	 R(4,11)          =         2.670998	       1.413431
	 R(5,8)           =         2.045749	       1.082564
	 R(5,9)           =         2.044854	       1.082090
	 R(5,10)          =         2.047562	       1.083523
	 R(11,12)         =         2.040751	       1.079919
	 R(11,13)         =         2.037008	       1.077938
	 R(11,14)         =         2.040632	       1.079856
	 B(1,2,3)         =         2.180322	     124.923267
	 B(1,2,4)         =         2.149009	     123.129122
	 B(2,3,5)         =         1.960083	     112.304510
	 B(2,3,6)         =         1.885590	     108.036349
	 B(2,3,7)         =         1.871244	     107.214368
	 B(2,4,11)        =         2.048560	     117.373836
	 B(3,2,4)         =         1.952840	     111.889512
	 B(3,5,8)         =         1.942676	     111.307149
	 B(3,5,9)         =         1.921257	     110.079931
	 B(3,5,10)        =         1.935711	     110.908094
	 B(4,11,12)       =         1.931980	     110.694293
	 B(4,11,13)       =         1.851368	     106.075586
	 B(4,11,14)       =         1.930029	     110.582536
	 B(5,3,6)         =         1.918311	     109.911123
	 B(5,3,7)         =         1.934050	     110.812879
	 B(6,3,7)         =         1.892381	     108.425424
	 B(8,5,9)         =         1.887610	     108.152083
	 B(8,5,10)        =         1.890348	     108.308977
	 B(9,5,10)        =         1.884506	     107.974212
	 B(12,11,13)      =         1.923604	     110.214401
	 B(12,11,14)      =         1.903067	     109.037704
	 B(13,11,14)      =         1.923592	     110.213726
	 D(1,2,3,5)       =         1.848542	     105.913633
	 D(1,2,3,6)       =        -2.316172	    -132.706887
	 D(1,2,3,7)       =        -0.279865	     -16.035100
	 D(1,2,4,11)      =         0.000560	       0.032070
	 D(2,3,5,8)       =         1.060353	      60.753765
	 D(2,3,5,9)       =        -3.130036	    -179.337843
	 D(2,3,5,10)      =        -1.045578	     -59.907213
	 D(2,4,11,12)     =        -1.056229	     -60.517449
	 D(2,4,11,13)     =         3.140332	     179.927752
	 D(2,4,11,14)     =         1.054783	      60.434613
	 D(3,2,4,11)      =         3.095898	     177.381866
	 D(4,2,3,5)       =        -1.245807	     -71.379487
	*D(4,2,3,6)       =         0.872665	      49.999994
	 D(4,2,3,7)       =         2.908971	     166.671781
	 D(6,3,5,8)       =        -1.039275	     -59.546066
	 D(6,3,5,9)       =         1.053521	      60.362327
	 D(6,3,5,10)      =         3.137979	     179.792956
	 D(7,3,5,8)       =        -3.130576	    -179.368814
	 D(7,3,5,9)       =        -1.037780	     -59.460421
	 D(7,3,5,10)      =         1.046678	      59.970208

	Current energy   :      -305.9861146215

	Energy change for the previous step:
		Projected    :         0.0006025872
		Actual       :        -0.0003456938

	Performing BFGS update.
	Previous computed or guess Hessian on step 1.
	Steps to be used in Hessian update: 1
	Taking RFO optimization step.
	Going to follow RFO solution 1.
	Using RFO vector 1.
	Norm of target step-size    0.31818
	Projected energy change by RFO approximation:        -0.0016553286

	Back-transformation to cartesian coordinates...
	Successfully converged to displaced geometry.

	Back-transformation to cartesian coordinates to adjust frozen coordinates...
	Successfully converged to displaced geometry.

	--- Internal Coordinate Step in ANG or DEG, aJ/ANG or AJ/DEG ---
	 ---------------------------------------------------------------------------
	   Coordinate                Previous        Force       Change         New 
	   ----------                --------       ------       ------       ------
	    1 R(1,2)          =      1.183591     0.005311     0.000301     1.183891
	    2 R(2,3)          =      1.507430    -0.003711    -0.000753     1.506677
	    3 R(2,4)          =      1.323560    -0.002972     0.000643     1.324203
	    4 R(3,5)          =      1.526236     0.013697     0.008229     1.534465
	    5 R(3,6)          =      1.084138    -0.003730    -0.000847     1.083291
	    6 R(3,7)          =      1.081122    -0.006391    -0.004118     1.077004
	    7 R(4,11)         =      1.413431    -0.000954    -0.000077     1.413354
	    8 R(5,8)          =      1.082564    -0.003459     0.000191     1.082755
	    9 R(5,9)          =      1.082090     0.002094    -0.000676     1.081414
	   10 R(5,10)         =      1.083523     0.000015     0.001649     1.085172
	   11 R(11,12)        =      1.079919     0.000040     0.000002     1.079920
	   12 R(11,13)        =      1.077938    -0.000194     0.000024     1.077962
	   13 R(11,14)        =      1.079856    -0.000059    -0.000077     1.079779
	   14 B(1,2,3)        =    124.923267    -0.000034    -0.558739   124.364528
	   15 B(1,2,4)        =    123.129122     0.000029    -0.090917   123.038206
	   16 B(2,3,5)        =    112.304510    -0.000110    -1.384210   110.920300
	   17 B(2,3,6)        =    108.036349     0.000064     1.253532   109.289882
	   18 B(2,3,7)        =    107.214368     0.000019    -0.230595   106.983773
	   19 B(2,4,11)       =    117.373836    -0.000021    -0.014879   117.358957
	   20 B(3,2,4)        =    111.889512     0.000010     0.493354   112.382866
	   21 B(3,5,8)        =    111.307149    -0.000025     0.084995   111.392144
	   22 B(3,5,9)        =    110.079931    -0.000018    -0.078380   110.001550
	   23 B(3,5,10)       =    110.908094     0.000018    -0.099686   110.808408
	   24 B(4,11,12)      =    110.694293    -0.000018    -0.055712   110.638581
	   25 B(4,11,13)      =    106.075586    -0.000010    -0.011058   106.064528
	   26 B(4,11,14)      =    110.582536     0.000024     0.031664   110.614200
	   27 B(5,3,6)        =    109.911123     0.000051    -0.977580   108.933543
	   28 B(5,3,7)        =    110.812879     0.000018    -0.722151   110.090728
	   29 B(6,3,7)        =    108.425424    -0.000041     2.187418   110.612842
	   30 B(8,5,9)        =    108.152083     0.000018    -0.198039   107.954044
	   31 B(8,5,10)       =    108.308977     0.000009     0.700207   109.009184
	   32 B(9,5,10)       =    107.974212    -0.000001    -0.420307   107.553905
	   33 B(12,11,13)     =    110.214401     0.000005     0.020592   110.234994
	   34 B(12,11,14)     =    109.037704     0.000000     0.000960   109.038664
	   35 B(13,11,14)     =    110.213726    -0.000002     0.013651   110.227377
	   36 D(1,2,3,5)      =    105.913633     0.000016     9.158741   115.072374
	   37 D(1,2,3,6)      =   -132.706887     0.000025     7.900078  -124.806808
	   38 D(1,2,3,7)      =    -16.035100     0.000024    11.023190    -5.011909
	   39 D(1,2,4,11)     =      0.032070    -0.000009    -4.590871    -4.558801
	   40 D(2,3,5,8)      =     60.753765     0.000007     1.505583    62.259348
	   41 D(2,3,5,9)      =   -179.337843     0.000006     1.260706  -178.077137
	   42 D(2,3,5,10)     =    -59.907213     0.000006     0.625943   -59.281271
	   43 D(2,4,11,12)    =    -60.517449    -0.000001     0.198908   -60.318541
	   44 D(2,4,11,13)    =    179.927752     0.000001     0.211165   180.138917
	   45 D(2,4,11,14)    =     60.434613     0.000000     0.184164    60.618776
	   46 D(3,2,4,11)     =    177.381866     0.000014     3.172750   180.554615
	   47 D(4,2,3,5)      =    -71.379487    -0.000009     1.258663   -70.120824
	   48 *D(4,2,3,6)     =     49.999994     0.000000    -0.000000    49.999994
	   49 D(4,2,3,7)      =    166.671781    -0.000001     3.123112   169.794893
	   50 D(6,3,5,8)      =    -59.546066    -0.000003     1.472672   -58.073394
	   51 D(6,3,5,9)      =     60.362327    -0.000004     1.227795    61.590122
	   52 D(6,3,5,10)     =    179.792956    -0.000004     0.593032   180.385988
	   53 D(7,3,5,8)      =   -179.368814    -0.000001    -0.155776  -179.524590
	   54 D(7,3,5,9)      =    -59.460421    -0.000002    -0.400653   -59.861074
	   55 D(7,3,5,10)     =     59.970208    -0.000003    -1.035416    58.934792
	 ---------------------------------------------------------------------------

  ==> Convergence Check <==

  Measures of convergence in internal coordinates in au.
  Criteria marked as inactive (o), active & met (*), and active & unmet ( ).
  ---------------------------------------------------------------------------------------------
   Step     Total Energy     Delta E     MAX Force     RMS Force      MAX Disp      RMS Disp   
  ---------------------------------------------------------------------------------------------
    Convergence Criteria    1.00e-06 *    3.00e-04 *             o    1.20e-03 *             o
  ---------------------------------------------------------------------------------------------
      2    -305.98611462   -3.46e-04      1.66e-03      5.33e-04 o    1.92e-01      4.29e-02 o  ~
  ---------------------------------------------------------------------------------------------

	Writing optimization data to binary file.
	Structure for next step:
	Cartesian Geometry (in Angstrom)
	    O     0.9993100358  -0.1680366856   1.1676544300
	    C     0.2228454900  -0.2307933049   0.2761597432
	    C    -1.0246692018  -1.0754867698   0.2927802787
	    O     0.4186672490   0.3563930953  -0.8944723862
	    C    -2.2819175848  -0.1968342373   0.2494302458
	    H    -1.0242898320  -1.7313306674  -0.5694192126
	    H    -1.0047563839  -1.6480917100   1.2047369070
	    H    -2.3274142432   0.3827041324  -0.6640377560
	    H    -3.1675011658  -0.8157265199   0.2960174893
	    H    -2.3096366324   0.4786173916   1.0983095600
	    C     1.5687038337   1.1666445383  -1.0304108905
	    H     1.5469541706   1.9805161580  -0.3209264638
	    H     1.5464456002   1.5495441934  -2.0378307455
	    H     2.4644784758   0.5849589419  -0.8718178022
			--------------------------
			 OPTKING Finished Execution 
			--------------------------

    Structure for next step:
    Molecular point group: c1
    Full point group: C1

    Geometry (in Angstrom), charge = 0, multiplicity = 1:

    O            0.997143087085    -0.165338418984     1.168273579376
    C            0.220678600597    -0.228095033443     0.276778960717
    C           -1.026835995902    -1.072788433874     0.293399494956
    O            0.416500344657     0.359091321869    -0.893853079351
    C           -2.284084282862    -0.194135968423     0.250049465364
    H           -1.026456626128    -1.728632281382    -0.568799930488
    H           -1.006923179554    -1.645393330383     1.205356053545
    H           -2.329580937839     0.385402356993    -0.663418466751
    H           -3.169667796238    -0.813028203769     0.296636705324
    H           -2.311803328443     0.481315608872     1.098928714683
    C            1.566536841526     1.169342703031    -1.029791573210
    H            1.544787180133     1.983214260592    -0.320307200685
    H            1.544278609721     1.552242328856    -2.037211351313
    H            2.462311415240     0.587657151050    -0.871198497009

gradient() will perform analytic gradient computation.

*** tstart() called on cx1-27-3-2
*** at Fri Sep  9 21:17:56 2016


         ---------------------------------------------------------
                                   SCF
            by Justin Turney, Rob Parrish, and Andy Simmonett
                              RHF Reference
                        4 Threads,   2000 MiB Core
         ---------------------------------------------------------

  ==> Geometry <==

    Molecular point group: c1
    Full point group: C1

    Geometry (in Angstrom), charge = 0, multiplicity = 1:

       Center              X                  Y                   Z               Mass       
    ------------   -----------------  -----------------  -----------------  -----------------
           O          0.997143087085    -0.165338418984     1.168273579376    15.994914619560
           C          0.220678600597    -0.228095033443     0.276778960717    12.000000000000
           C         -1.026835995902    -1.072788433874     0.293399494956    12.000000000000
           O          0.416500344657     0.359091321869    -0.893853079351    15.994914619560
           C         -2.284084282862    -0.194135968423     0.250049465364    12.000000000000
           H         -1.026456626128    -1.728632281382    -0.568799930488     1.007825032070
           H         -1.006923179554    -1.645393330383     1.205356053545     1.007825032070
           H         -2.329580937839     0.385402356993    -0.663418466751     1.007825032070
           H         -3.169667796238    -0.813028203769     0.296636705324     1.007825032070
           H         -2.311803328443     0.481315608872     1.098928714683     1.007825032070
           C          1.566536841526     1.169342703031    -1.029791573210    12.000000000000
           H          1.544787180133     1.983214260592    -0.320307200685     1.007825032070
           H          1.544278609721     1.552242328856    -2.037211351313     1.007825032070
           H          2.462311415240     0.587657151050    -0.871198497009     1.007825032070

  Running in c1 symmetry.

  Rotational constants: A =      0.22052  B =      0.08345  C =      0.06760 [cm^-1]
  Rotational constants: A =   6611.03109  B =   2501.84824  C =   2026.66078 [MHz]
  Nuclear repulsion =  248.636189842812087

  Charge       = 0
  Multiplicity = 1
  Electrons    = 48
  Nalpha       = 24
  Nbeta        = 24

  ==> Algorithm <==

  SCF Algorithm Type is DF.
  DIIS enabled.
  MOM disabled.
  Fractional occupation disabled.
  Guess Type is READ.
  Energy threshold   = 1.00e-08
  Density threshold  = 1.00e-08
  Integral threshold = 0.00e+00

  ==> Primary Basis <==

  Basis Set: CC-PVTZ
    Number of shells: 108
    Number of basis function: 292
    Number of Cartesian functions: 330
    Spherical Harmonics?: true
    Max angular momentum: 3

  ==> Pre-Iterations <==

   -------------------------------------------------------
    Irrep   Nso     Nmo     Nalpha   Nbeta   Ndocc  Nsocc
   -------------------------------------------------------
     A        292     292       0       0       0       0
   -------------------------------------------------------
    Total     292     292      24      24      24       0
   -------------------------------------------------------

 OEINTS: Overlap, kinetic, potential, dipole, and quadrupole integrals
         stored in file 35.

  ==> Integral Setup <==

  ==> DFJK: Density-Fitted J/K Matrices <==

    J tasked:                  Yes
    K tasked:                  Yes
    wK tasked:                  No
    OpenMP threads:              4
    Integrals threads:           4
    Memory (MB):              1430
    Algorithm:                Core
    Integral Cache:           NONE
    Schwarz Cutoff:          1E-12
    Fitting Condition:       1E-12

   => Auxiliary Basis Set <=

  Basis Set: 
    Number of shells: 230
    Number of basis function: 714
    Number of Cartesian functions: 856
    Spherical Harmonics?: true
    Max angular momentum: 4

  Minimum eigenvalue in the overlap matrix is 4.7184934067E-04.
  Using Symmetric Orthogonalization.
  SCF Guess: Reading in previously saved MOs, projecting if necessary.

  Using orbitals from previous SCF, no projection.
  Recomputing DOCC and SOCC from number of alpha and beta electrons from previous calculation.
              A 
    DOCC [    24 ]

  ==> Iterations <==

                           Total Energy        Delta E     RMS |[F,P]|

   @DF-RHF iter   0:  -305.96409800031529   -3.05964e+02   7.68954e-04 
   @DF-RHF iter   1:  -305.98436017004303   -2.02622e-02   1.09602e-04 
   @DF-RHF iter   2:  -305.98513430127787   -7.74131e-04   4.72222e-05 DIIS
   @DF-RHF iter   3:  -305.98525054106290   -1.16240e-04   2.29695e-05 DIIS
   @DF-RHF iter   4:  -305.98528489109106   -3.43500e-05   7.31077e-06 DIIS
   @DF-RHF iter   5:  -305.98528874853071   -3.85744e-06   2.99363e-06 DIIS
   @DF-RHF iter   6:  -305.98528991704677   -1.16852e-06   7.28809e-07 DIIS
   @DF-RHF iter   7:  -305.98528997936876   -6.23220e-08   1.67353e-07 DIIS
   @DF-RHF iter   8:  -305.98528998149061   -2.12185e-09   4.90860e-08 DIIS
   @DF-RHF iter   9:  -305.98528998172526   -2.34650e-10   1.79354e-08 DIIS
   @DF-RHF iter  10:  -305.98528998176255   -3.72893e-11   8.84119e-09 DIIS

  ==> Post-Iterations <==

    Orbital Energies (a.u.)
    -----------------------

    Doubly Occupied:                                                      

       1A    -20.597611     2A    -20.533632     3A    -11.364225  
       4A    -11.279178     5A    -11.236465     6A    -11.224738  
       7A     -1.472315     8A     -1.365427     9A     -1.068524  
      10A     -0.976542    11A     -0.884579    12A     -0.776293  
      13A     -0.698977    14A     -0.682955    15A     -0.676433  
      16A     -0.622088    17A     -0.592449    18A     -0.570117  
      19A     -0.544272    20A     -0.519791    21A     -0.513337  
      22A     -0.505413    23A     -0.459929    24A     -0.437420  

    Virtual:                                                              

      25A      0.135540    26A      0.156855    27A      0.183170  
      28A      0.196567    29A      0.198224    30A      0.211441  
      31A      0.219505    32A      0.232108    33A      0.241959  
      34A      0.256425    35A      0.309218    36A      0.336310  
      37A      0.363882    38A      0.377063    39A      0.383545  
      40A      0.404012    41A      0.449361    42A      0.454323  
      43A      0.468604    44A      0.520639    45A      0.537774  
      46A      0.553061    47A      0.568327    48A      0.585657  
      49A      0.594084    50A      0.617108    51A      0.625110  
      52A      0.628623    53A      0.633176    54A      0.635543  
      55A      0.652648    56A      0.663615    57A      0.683378  
      58A      0.711641    59A      0.716351    60A      0.738679  
      61A      0.755078    62A      0.785284    63A      0.812450  
      64A      0.829148    65A      0.847933    66A      0.872942  
      67A      0.891531    68A      0.928581    69A      0.968589  
      70A      0.983250    71A      1.002824    72A      1.032851  
      73A      1.053340    74A      1.077016    75A      1.087703  
      76A      1.106561    77A      1.146734    78A      1.153323  
      79A      1.168065    80A      1.179117    81A      1.217347  
      82A      1.226608    83A      1.251298    84A      1.269458  
      85A      1.275414    86A      1.293049    87A      1.315424  
      88A      1.316204    89A      1.339422    90A      1.357471  
      91A      1.368862    92A      1.391297    93A      1.409982  
      94A      1.426539    95A      1.466859    96A      1.492846  
      97A      1.504300    98A      1.517572    99A      1.525433  
     100A      1.543132   101A      1.556156   102A      1.575997  
     103A      1.586874   104A      1.611967   105A      1.622230  
     106A      1.686373   107A      1.716276   108A      1.761390  
     109A      1.779350   110A      1.827178   111A      1.842290  
     112A      1.854999   113A      1.881239   114A      1.905969  
     115A      1.985525   116A      2.044893   117A      2.140196  
     118A      2.243779   119A      2.276589   120A      2.336771  
     121A      2.345430   122A      2.421133   123A      2.452871  
     124A      2.487646   125A      2.509618   126A      2.557105  
     127A      2.586560   128A      2.627976   129A      2.646460  
     130A      2.682154   131A      2.704441   132A      2.750583  
     133A      2.761744   134A      2.818545   135A      2.829544  
     136A      2.859110   137A      2.905324   138A      2.939086  
     139A      2.950285   140A      2.965705   141A      2.987390  
     142A      3.034111   143A      3.056758   144A      3.073042  
     145A      3.113630   146A      3.120372   147A      3.130889  
     148A      3.144323   149A      3.151515   150A      3.195715  
     151A      3.229171   152A      3.238721   153A      3.253178  
     154A      3.279189   155A      3.303034   156A      3.310793  
     157A      3.326849   158A      3.343554   159A      3.352935  
     160A      3.378661   161A      3.387659   162A      3.412051  
     163A      3.446691   164A      3.462511   165A      3.468206  
     166A      3.478478   167A      3.489109   168A      3.527683  
     169A      3.542576   170A      3.576017   171A      3.598556  
     172A      3.622856   173A      3.630639   174A      3.656381  
     175A      3.682864   176A      3.722791   177A      3.730500  
     178A      3.745369   179A      3.765785   180A      3.769826  
     181A      3.780825   182A      3.805742   183A      3.830519  
     184A      3.845869   185A      3.852988   186A      3.867919  
     187A      3.887337   188A      3.935320   189A      3.956236  
     190A      3.996476   191A      4.050462   192A      4.073442  
     193A      4.087568   194A      4.114434   195A      4.119453  
     196A      4.151598   197A      4.162793   198A      4.172018  
     199A      4.195682   200A      4.211611   201A      4.221552  
     202A      4.235284   203A      4.256103   204A      4.268447  
     205A      4.320945   206A      4.346484   207A      4.374155  
     208A      4.386777   209A      4.396115   210A      4.402279  
     211A      4.411907   212A      4.436514   213A      4.464449  
     214A      4.485983   215A      4.532858   216A      4.573049  
     217A      4.589860   218A      4.609221   219A      4.618307  
     220A      4.647966   221A      4.660470   222A      4.726588  
     223A      4.746814   224A      4.774024   225A      4.830416  
     226A      4.868707   227A      4.917990   228A      4.940591  
     229A      5.009231   230A      5.051349   231A      5.084137  
     232A      5.182588   233A      5.200980   234A      5.222266  
     235A      5.236745   236A      5.251821   237A      5.263761  
     238A      5.304274   239A      5.338258   240A      5.348953  
     241A      5.368958   242A      5.415427   243A      5.459394  
     244A      5.496333   245A      5.566928   246A      5.576208  
     247A      5.607984   248A      5.636864   249A      5.657856  
     250A      5.670631   251A      5.699021   252A      5.703654  
     253A      5.718180   254A      5.740111   255A      5.748381  
     256A      5.784550   257A      5.833000   258A      5.863972  
     259A      5.875828   260A      5.940419   261A      6.034094  
     262A      6.058486   263A      6.175240   264A      6.192922  
     265A      6.235895   266A      6.284316   267A      6.306923  
     268A      6.315017   269A      6.351566   270A      6.582498  
     271A      6.619005   272A      6.697030   273A      6.827582  
     274A      6.847301   275A      6.888569   276A      6.909405  
     277A      7.029364   278A      7.245220   279A      7.253066  
     280A      7.368948   281A      7.472993   282A      7.495076  
     283A      7.562922   284A      7.681003   285A      7.884677  
     286A      7.995424   287A      9.927210   288A     12.186966  
     289A     13.469376   290A     14.046868   291A     14.188820  
     292A     14.551439  

    Final Occupation by Irrep:
              A 
    DOCC [    24 ]

  Energy converged.

  @DF-RHF Final Energy:  -305.98528998176255

   => Energetics <=

    Nuclear Repulsion Energy =            248.6361898428120867
    One-Electron Energy =                -910.0375384235586580
    Two-Electron Energy =                 355.4160585989837955
    DFT Exchange-Correlation Energy =       0.0000000000000000
    Empirical Dispersion Energy =           0.0000000000000000
    PCM Polarization Energy =               0.0000000000000000
    EFP Energy =                            0.0000000000000000
    Total Energy =                       -305.9852899817627758

    Alert: EFP and PCM quantities not currently incorporated into SCF psivars.

Properties will be evaluated at   0.000000,   0.000000,   0.000000 Bohr
  ==> Properties <==


Properties computed using the SCF density matrix

  Nuclear Dipole Moment: (a.u.)
     X:    -4.0178      Y:     0.7535      Z:    -1.7424

  Electronic Dipole Moment: (a.u.)
     X:     3.5884      Y:    -0.6299      Z:     1.0445

  Dipole Moment: (a.u.)
     X:    -0.4294      Y:     0.1236      Z:    -0.6979     Total:     0.8287

  Dipole Moment: (Debye)
     X:    -1.0913      Y:     0.3142      Z:    -1.7739     Total:     2.1063


  Saving occupied orbitals to File 180.

*** tstop() called on cx1-27-3-2 at Fri Sep  9 21:18:04 2016
Module time:
[...]
           C         -2.283587339060    -0.196825664146     0.262591212986    12.000000000000
           H         -1.019688156349    -1.721776081994    -0.583638676575     1.007825032070
           H         -1.001128954795    -1.679638135851     1.173216076260     1.007825032070
           H         -2.325974263021     0.406366150255    -0.634529283409     1.007825032070
           H         -3.168641965899    -0.819319225822     0.294262893396     1.007825032070
           H         -2.309226909815     0.463987360545     1.120857924935     1.007825032070
           C          1.574117128740     1.156491730878    -1.035786406406    12.000000000000
           H          1.531822491812     1.977708320510    -0.335782853036     1.007825032070
           H          1.558788930083     1.528190502188    -2.047479820000     1.007825032070
           H          2.476409185704     0.589895934639    -0.860068784166     1.007825032070

  Nuclear repulsion =  248.657269502152531

  ==> Basis Set <==

  Basis Set: CC-PVTZ
    Number of shells: 108
    Number of basis function: 292
    Number of Cartesian functions: 330
    Spherical Harmonics?: true
    Max angular momentum: 3

  ==> DFJKGrad: Density-Fitted SCF Gradients <==

    Gradient:                    1
    J tasked:                  Yes
    K tasked:                  Yes
    wK tasked:                  No
    OpenMP threads:              4
    Integrals threads:           4
    Memory (MB):              1430
    Schwarz Cutoff:          0E+00
    Fitting Condition:       1E-12

   => Auxiliary Basis Set <=

  Basis Set: 
    Number of shells: 230
    Number of basis function: 714
    Number of Cartesian functions: 856
    Spherical Harmonics?: true
    Max angular momentum: 4


  -Total Gradient:
     Atom            X                  Y                   Z
    ------   -----------------  -----------------  -----------------
       1       -0.000032342375    -0.000016515624    -0.000065960520
       2        0.000084030933    -0.000078835087     0.000188489432
       3       -0.000095988892     0.000032108081    -0.000036829258
       4        0.000010583910     0.000029210672    -0.000088372484
       5        0.000090147446    -0.000056564482     0.000012537407
       6        0.000029605934    -0.000021292278    -0.000002425401
       7        0.000012805233     0.000050242853    -0.000018662972
       8       -0.000015436748     0.000009345738    -0.000002858513
       9       -0.000012186462    -0.000000399290     0.000001773209
      10       -0.000041572026     0.000029756082     0.000010715555
      11       -0.000062088241     0.000030917931     0.000012047076
      12        0.000022036326     0.000003988236    -0.000007562090
      13        0.000017710770     0.000004414946    -0.000006878550
      14       -0.000007305807    -0.000016377780     0.000003987113


*** tstop() called on cx1-27-3-2 at Fri Sep  9 21:19:09 2016
Module time:
	user time   =      59.76 seconds =       1.00 minutes
	system time =       0.50 seconds =       0.01 minutes
	total time  =         16 seconds =       0.27 minutes
Total time:
	user time   =     451.26 seconds =       7.52 minutes
	system time =       5.25 seconds =       0.09 minutes
	total time  =        129 seconds =       2.15 minutes
CURRENT ENERGY: -305.9862155357

			-----------------------------------------
			 OPTKING 2.0: for geometry optimizations 
			  - R.A. King,  Bethel University        
			-----------------------------------------

	Previous internal coordinate definitions found.
	---Fragment 1 Geometry and Gradient---
	 O           1.8178158846       -0.2069985105        2.2508673779
	 C           0.4410455792       -0.4655487635        0.5063395761
	 C          -1.9418779613       -2.0233817071        0.5327635675
	 O           0.8209711099        0.6249713986       -1.7112114076
	 C          -4.3153546713       -0.3719466012        0.4962254774
	 H          -1.9269313564       -3.2536852571       -1.1029172593
	 H          -1.8918595483       -3.1740560791        2.2170570788
	 H          -4.3954543493        0.7679207337       -1.1990865689
	 H          -5.9878655287       -1.5482889522        0.5560762796
	 H          -4.3638064382        0.8768090406        2.1181145120
	 C           2.9746502744        2.1854526463       -1.9573526403
	 H           2.8947249937        3.7373270965       -0.6345376324
	 H           2.9456841768        2.8878615280       -3.8691761224
	 H           4.6797351539        1.1147417634       -1.6252944575
	            -0.0000323424       -0.0000165156       -0.0000659605
	             0.0000840309       -0.0000788351        0.0001884894
	            -0.0000959889        0.0000321081       -0.0000368293
	             0.0000105839        0.0000292107       -0.0000883725
	             0.0000901474       -0.0000565645        0.0000125374
	             0.0000296059       -0.0000212923       -0.0000024254
	             0.0000128052        0.0000502429       -0.0000186630
	            -0.0000154367        0.0000093457       -0.0000028585
	            -0.0000121865       -0.0000003993        0.0000017732
	            -0.0000415720        0.0000297561        0.0000107156
	            -0.0000620882        0.0000309179        0.0000120471
	             0.0000220363        0.0000039882       -0.0000075621
	             0.0000177108        0.0000044149       -0.0000068786
	            -0.0000073058       -0.0000163778        0.0000039871

	---Fragment 1 Intrafragment Coordinates---
	 - Coordinate -           - BOHR/RAD -       - ANG/DEG -
	 R(1,2)           =         2.237347	       1.183953
	 R(2,3)           =         2.847080	       1.506610
	 R(2,4)           =         2.500222	       1.323061
	 R(3,5)           =         2.891706	       1.530225
	 R(3,6)           =         2.046783	       1.083111
	 R(3,7)           =         2.040441	       1.079755
	 R(4,11)          =         2.670959	       1.413411
	 R(5,8)           =         2.044455	       1.081879
	 R(5,9)           =         2.045643	       1.082508
	 R(5,10)          =         2.047501	       1.083491
	 R(11,12)         =         2.040721	       1.079903
	 R(11,13)         =         2.036980	       1.077923
	 R(11,14)         =         2.040588	       1.079833
	 B(1,2,3)         =         2.178558	     124.822205
	 B(1,2,4)         =         2.150365	     123.206861
	 B(2,3,5)         =         1.954518	     111.985605
	 B(2,3,6)         =         1.891642	     108.383112
	 B(2,3,7)         =         1.870996	     107.200184
	 B(2,4,11)        =         2.047768	     117.328463
	 B(3,2,4)         =         1.954194	     111.967049
	 B(3,5,8)         =         1.940183	     111.164286
	 B(3,5,9)         =         1.920157	     110.016906
	 B(3,5,10)        =         1.936621	     110.960224
	 B(4,11,12)       =         1.931542	     110.669207
	 B(4,11,13)       =         1.850935	     106.050770
	 B(4,11,14)       =         1.930726	     110.622424
	 B(5,3,6)         =         1.916837	     109.826655
	 B(5,3,7)         =         1.931155	     110.647021
	 B(6,3,7)         =         1.897060	     108.693503
	 B(8,5,9)         =         1.888979	     108.230538
	 B(8,5,10)        =         1.892188	     108.414377
	 B(9,5,10)        =         1.884090	     107.950415
	 B(12,11,13)      =         1.923673	     110.218370
	 B(12,11,14)      =         1.903141	     109.041956
	 B(13,11,14)      =         1.923615	     110.215043
	 D(1,2,3,5)       =         1.884849	     107.993897
	 D(1,2,3,6)       =        -2.281137	    -130.699508
	 D(1,2,3,7)       =        -0.236365	     -13.542745
	 D(1,2,4,11)      =        -0.010902	      -0.624651
	 D(2,3,5,8)       =         1.070053	      61.309538
	 D(2,3,5,9)       =        -3.120952	    -178.817401
	 D(2,3,5,10)      =        -1.037144	     -59.423951
	 D(2,4,11,12)     =        -1.053256	     -60.347100
	 D(2,4,11,13)     =        -3.139466	    -179.878173
	 D(2,4,11,14)     =         1.058022	      60.620190
	 D(3,2,4,11)      =         3.118712	     178.689033
	 D(4,2,3,5)       =        -1.244535	     -71.306601
	*D(4,2,3,6)       =         0.872665	      49.999994
	 D(4,2,3,7)       =         2.917436	     167.156756
	 D(6,3,5,8)       =        -1.032558	     -59.161198
	 D(6,3,5,9)       =         1.059622	      60.711864
	 D(6,3,5,10)      =        -3.139755	    -179.894687
	 D(7,3,5,8)       =        -3.126889	    -179.157571
	 D(7,3,5,9)       =        -1.034710	     -59.284510
	 D(7,3,5,10)      =         1.049099	      60.108939

	Current energy   :      -305.9862155357

	Energy change for the previous step:
		Projected    :        -0.0000224736
		Actual       :        -0.0000035820
	Energy ratio indicates iffy step: Trust radius decreased to 1.250e-01.


	Performing BFGS update.
	Previous computed or guess Hessian on step 1.
	Steps to be used in Hessian update: 4 3
	Taking RFO optimization step.
	Going to follow RFO solution 1.
	Using RFO vector 1.
	Norm of target step-size    0.00223
	Projected energy change by RFO approximation:        -0.0000003278

	Back-transformation to cartesian coordinates...
	Successfully converged to displaced geometry.

	Back-transformation to cartesian coordinates to adjust frozen coordinates...
	Successfully converged to displaced geometry.

	--- Internal Coordinate Step in ANG or DEG, aJ/ANG or AJ/DEG ---
	 ---------------------------------------------------------------------------
	   Coordinate                Previous        Force       Change         New 
	   ----------                --------       ------       ------       ------
	    1 R(1,2)          =      1.183953     0.000603     0.000035     1.183988
	    2 R(2,3)          =      1.506610    -0.000027    -0.000013     1.506597
	    3 R(2,4)          =      1.323061    -0.000798    -0.000089     1.322972
	    4 R(3,5)          =      1.530225     0.000228     0.000059     1.530285
	    5 R(3,6)          =      1.083111    -0.000123    -0.000023     1.083088
	    6 R(3,7)          =      1.079755     0.000358     0.000058     1.079813
	    7 R(4,11)         =      1.413411     0.000088     0.000016     1.413427
	    8 R(5,8)          =      1.081879    -0.000067    -0.000012     1.081868
	    9 R(5,9)          =      1.082508    -0.000084    -0.000019     1.082489
	   10 R(5,10)         =      1.083491    -0.000228    -0.000040     1.083451
	   11 R(11,12)        =      1.079903     0.000022     0.000002     1.079906
	   12 R(11,13)        =      1.077923    -0.000064    -0.000011     1.077913
	   13 R(11,14)        =      1.079833    -0.000026    -0.000004     1.079829
	   14 B(1,2,3)        =    124.822205    -0.000002    -0.008351   124.813853
	   15 B(1,2,4)        =    123.206861    -0.000001    -0.003183   123.203678
	   16 B(2,3,5)        =    111.985605    -0.000005    -0.017038   111.968566
	   17 B(2,3,6)        =    108.383112     0.000002     0.011735   108.394847
	   18 B(2,3,7)        =    107.200184     0.000002     0.015172   107.215356
	   19 B(2,4,11)       =    117.328463     0.000000     0.001085   117.329547
	   20 B(3,2,4)        =    111.967049     0.000003     0.011359   111.978408
	   21 B(3,5,8)        =    111.164286    -0.000001    -0.004280   111.160007
	   22 B(3,5,9)        =    110.016906     0.000000     0.003046   110.019952
	   23 B(3,5,10)       =    110.960224    -0.000005    -0.024795   110.935429
	   24 B(4,11,12)      =    110.669207    -0.000003    -0.014902   110.654304
	   25 B(4,11,13)      =    106.050770    -0.000002    -0.009095   106.041675
	   26 B(4,11,14)      =    110.622424     0.000003     0.016135   110.638559
	   27 B(5,3,6)        =    109.826655     0.000001    -0.001162   109.825493
	   28 B(5,3,7)        =    110.647021     0.000001     0.004069   110.651090
	   29 B(6,3,7)        =    108.693503    -0.000002    -0.012359   108.681144
	   30 B(8,5,9)        =    108.230538     0.000001     0.008961   108.239499
	   31 B(8,5,10)       =    108.414377     0.000002     0.007966   108.422343
	   32 B(9,5,10)       =    107.950415     0.000002     0.010372   107.960787
	   33 B(12,11,13)     =    110.218370     0.000001    -0.000215   110.218155
	   34 B(12,11,14)     =    109.041956     0.000000     0.003550   109.045506
	   35 B(13,11,14)     =    110.215043     0.000000     0.004286   110.219329
	   36 D(1,2,3,5)      =    107.993897    -0.000000    -0.011275   107.982622
	   37 D(1,2,3,6)      =   -130.699508    -0.000000    -0.015625  -130.715132
	   38 D(1,2,3,7)      =    -13.542745    -0.000000    -0.015975   -13.558720
	   39 D(1,2,4,11)     =     -0.624651     0.000000     0.035095    -0.589556
	   40 D(2,3,5,8)      =     61.309538    -0.000000    -0.002878    61.306661
	   41 D(2,3,5,9)      =   -178.817401    -0.000000     0.007573  -178.809828
	   42 D(2,3,5,10)     =    -59.423951     0.000000     0.006726   -59.417225
	   43 D(2,4,11,12)    =    -60.347100    -0.000000     0.052311   -60.294789
	   44 D(2,4,11,13)    =   -179.878173     0.000000     0.066100  -179.812073
	   45 D(2,4,11,14)    =     60.620190     0.000000     0.057606    60.677797
	   46 D(3,2,4,11)     =    178.689033     0.000000     0.019720   178.708752
	   47 D(4,2,3,5)      =    -71.306601     0.000000     0.004349   -71.302252
	   48 *D(4,2,3,6)     =     49.999994     0.000000    -0.000000    49.999994
	   49 D(4,2,3,7)      =    167.156756     0.000000    -0.000351   167.156406
	   50 D(6,3,5,8)      =    -59.161198    -0.000000    -0.005725   -59.166922
	   51 D(6,3,5,9)      =     60.711864    -0.000000     0.004725    60.716589
	   52 D(6,3,5,10)     =   -179.894687     0.000000     0.003879  -179.890808
	   53 D(7,3,5,8)      =   -179.157571     0.000000     0.007799  -179.149773
	   54 D(7,3,5,9)      =    -59.284510     0.000000     0.018249   -59.266261
	   55 D(7,3,5,10)     =     60.108939     0.000000     0.017402    60.126342
	 ---------------------------------------------------------------------------

  ==> Convergence Check <==

  Measures of convergence in internal coordinates in au.
  Criteria marked as inactive (o), active & met (*), and active & unmet ( ).
  ---------------------------------------------------------------------------------------------
   Step     Total Energy     Delta E     MAX Force     RMS Force      MAX Disp      RMS Disp   
  ---------------------------------------------------------------------------------------------
    Convergence Criteria    1.00e-06 *    3.00e-04 *             o    1.20e-03 *             o
  ---------------------------------------------------------------------------------------------
      5    -305.98621554   -3.58e-06      9.68e-05 *    2.66e-05 o    1.15e-03 *    3.01e-04 o  ~
  ---------------------------------------------------------------------------------------------


  **** Optimization is complete! (in 5 steps) ****

  ==> Optimization Summary <==

  Measures of convergence in internal coordinates in au.
  --------------------------------------------------------------------------------------------------------------- ~
   Step         Total Energy             Delta E       MAX Force       RMS Force        MAX Disp        RMS Disp  ~
  --------------------------------------------------------------------------------------------------------------- ~
      1    -305.985768927696   -305.985768927696      0.00345741      0.00113767      0.05919158      0.01690035  ~
      2    -305.986114621500     -0.000345693804      0.00166250      0.00053286      0.19239097      0.04288671  ~
      3    -305.985289981763      0.000824639737      0.00451066      0.00132659      0.13974383      0.03111784  ~
      4    -305.986211953701     -0.000921971939      0.00028550      0.00008102      0.00914734      0.00243475  ~
      5    -305.986215535671     -0.000003581970      0.00009681      0.00002663      0.00115367      0.00030067  ~
  --------------------------------------------------------------------------------------------------------------- ~

	Writing optimization data to binary file.
	Final energy is   -305.9862155356707
	Final (previous) structure:
	Cartesian Geometry (in Angstrom)
	    O     0.9619468090  -0.1095389023   1.1911078069
	    C     0.2333912863  -0.2463578140   0.2679433839
	    C    -1.0275976375  -1.0707275655   0.2819263590
	    O     0.4344392334   0.3307206454  -0.9055341451
	    C    -2.2835875134  -0.1968256792   0.2625912330
	    H    -1.0196882342  -1.7217762135  -0.5836387211
	    H    -1.0011290312  -1.6796382641   1.1732161659
	    H    -2.3259744406   0.4063661813  -0.6345293319
	    H    -3.1686422079  -0.8193192884   0.2942629159
	    H    -2.3092270862   0.4639873960   1.1208580105
	    C     1.5741172489   1.1564918192  -1.0357864855
	    H     1.5318226088   1.9777084715  -0.3357828787
	    H     1.5587890491   1.5281906189  -2.0474799764
	    H     2.4764093748   0.5898959797  -0.8600688498
	Saving final (previous) structure.
			--------------------------
			 OPTKING Finished Execution 
			--------------------------

    Final optimized geometry and variables:
    Molecular point group: c1
    Full point group: C1

    Geometry (in Angstrom), charge = 0, multiplicity = 1:

    O            0.961946735567    -0.109538893963     1.191107715927
    C            0.233391268456    -0.246357795139     0.267943363483
    C           -1.027597558999    -1.070727483691     0.281926337485
    O            0.434439200252     0.330720620152    -0.905534075963
    C           -2.283587339060    -0.196825664146     0.262591212986
    H           -1.019688156349    -1.721776081994    -0.583638676575
    H           -1.001128954795    -1.679638135851     1.173216076260
    H           -2.325974263021     0.406366150255    -0.634529283409
    H           -3.168641965899    -0.819319225822     0.294262893396
    H           -2.309226909815     0.463987360545     1.120857924935
    C            1.574117128740     1.156491730878    -1.035786406406
    H            1.531822491812     1.977708320510    -0.335782853036
    H            1.558788930083     1.528190502188    -2.047479820000
    H            2.476409185704     0.589895934639    -0.860068784166

	Cleaning optimization helper files.


Properties will be evaluated at   0.000000,   0.000000,   0.000000 Bohr

Properties computed using the  density matrix

  Nuclear Dipole Moment: (a.u.)
     X:    -3.9847      Y:     0.6999      Z:    -1.7547

  Electronic Dipole Moment: (a.u.)
     X:     3.5850      Y:    -0.6191      Z:     1.0342

  Dipole Moment: (a.u.)
     X:    -0.3997      Y:     0.0808      Z:    -0.7205     Total:     0.8279

  Dipole Moment: (Debye)
     X:    -1.0160      Y:     0.2054      Z:    -1.8312     Total:     2.1043

  Quadrupole Moment: (Debye Ang)
    XX:   -34.7163     YY:   -33.8969     ZZ:   -39.8249
    XY:     2.6456     XZ:    -4.5575     YZ:    -0.8252

  Traceless Quadrupole Moment: (Debye Ang)
    XX:     1.4298     YY:     2.2492     ZZ:    -3.6789
    XY:     2.6456     XZ:    -4.5575     YZ:    -0.8252

  Mulliken Charges: (a.u.)
   Center  Symbol    Alpha    Beta     Spin     Total
       1     O     4.19991  4.19991  0.00000 -0.39983
       2     C     2.79866  2.79866  0.00000  0.40267
       3     C     3.08433  3.08433  0.00000 -0.16866
       4     O     4.15079  4.15079  0.00000 -0.30158
       5     C     3.15116  3.15116  0.00000 -0.30231
       6     H     0.44648  0.44648  0.00000  0.10704
       7     H     0.43712  0.43712  0.00000  0.12576
       8     H     0.44683  0.44683  0.00000  0.10635
       9     H     0.44739  0.44739  0.00000  0.10523
      10     H     0.44838  0.44838  0.00000  0.10324
      11     C     3.03597  3.03597  0.00000 -0.07195
      12     H     0.45453  0.45453  0.00000  0.09094
      13     H     0.44563  0.44563  0.00000  0.10873
      14     H     0.45282  0.45282  0.00000  0.09437

   Total alpha = 24.00000, Total beta = 24.00000, Total charge =  0.00000


*** PSI4 exiting successfully. Buy a developer a beer!
