    -----------------------------------------------------------------------
          Psi4: An Open-Source Ab Initio Electronic Structure Package
                              Psi4 1.0.54 Driver

                          Git: Rev {master} 8d4cec3 dirty

    J. M. Turney, A. C. Simmonett, R. M. Parrish, E. G. Hohenstein,
    F. A. Evangelista, J. T. Fermann, B. J. Mintz, L. A. Burns, J. J. Wilke,
    M. L. Abrams, N. J. Russ, M. L. Leininger, C. L. Janssen, E. T. Seidl,
    W. D. Allen, H. F. Schaefer, R. A. King, E. F. Valeev, C. D. Sherrill,
    and T. D. Crawford, WIREs Comput. Mol. Sci. 2, 556-565 (2012)
    (doi: 10.1002/wcms.93)

                         Additional Contributions by
    A. E. DePrince, U. Bozkaya, A. Yu. Sokolov, D. G. A. Smith, R. Di Remigio,
    R. M. Richard, J. F. Gonthier, H. R. McAlexander, M. Saitow, and
    B. P. Pritchard
    -----------------------------------------------------------------------


    Psi4 started on: Sat Sep 10 16:20:28 2016

    Process ID:  35143
    PSI4DATADIR: /export131/home/mjharvey/miniconda3/share/psi4
    Memory level set to 256.000 MB

  ==> Input File <==

--------------------------------------------------------------------------
set {
	reference rhf
	basis cc-pvtz
}


set_num_threads( 4 )
memory 2 gb

molecule MOL {
0 1

O	 -0.294688	 1.318815	 -0.000872
C	 -0.448732	 0.145721	 -0.000187
C	 -1.780748	 -0.548101	 0.000195
O	 0.550743	 -0.719877	 0.000412
H	 -1.859389	 -1.183260	 -0.872613
H	 -2.570236	 0.185547	 -0.001342
H	 -1.860233	 -1.180337	 0.875064
C	 1.451747	 -0.668374	 1.088807
H	 1.933084	 0.296934	 1.139044
H	 2.182016	 -1.439955	 0.907000
H	 0.935897	 -0.854200	 2.019070

	symmetry c1
}
set optking {
	frozen_dihedral = ("
		8 4 2 1
	")
}

ee,wfn = optimize('scf', return_wfn=True)
oeprop( wfn, 'DIPOLE', 'QUADRUPOLE', 'MULLIKEN_CHARGES')
f=open( 'psi4out.xyz', 'w' )
f.write( "11  " )
f.write( str(ee) + "\n" )
f.write( MOL.save_string_xyz() )
f.close()
--------------------------------------------------------------------------

  Memory set to   2.000 GiB by Python script.
gradient() will perform analytic gradient computation.

*** tstart() called on cx1-27-2-3
*** at Sat Sep 10 16:20:28 2016


         ---------------------------------------------------------
                                   SCF
            by Justin Turney, Rob Parrish, and Andy Simmonett
                              RHF Reference
                        4 Threads,   2000 MiB Core
         ---------------------------------------------------------

  ==> Geometry <==

    Molecular point group: c1
    Full point group: C1

    Geometry (in Angstrom), charge = 0, multiplicity = 1:

       Center              X                  Y                   Z               Mass       
    ------------   -----------------  -----------------  -----------------  -----------------
           O         -0.207085955260     1.419805730749    -0.232600929815    15.994914619560
           C         -0.361129955260     0.246711730749    -0.231915929815    12.000000000000
           C         -1.693145955260    -0.447110269251    -0.231533929815    12.000000000000
           O          0.638345044740    -0.618886269251    -0.231316929815    15.994914619560
           H         -1.771786955260    -1.082269269251    -1.104341929815     1.007825032070
           H         -2.482633955260     0.286537730749    -0.233070929815     1.007825032070
           H         -1.772630955260    -1.079346269251     0.643335070185     1.007825032070
           C          1.539349044740    -0.567383269251     0.857078070185    12.000000000000
           H          2.020686044740     0.397924730749     0.907315070185     1.007825032070
           H          2.269618044740    -1.338964269251     0.675271070185     1.007825032070
           H          1.023499044740    -0.753209269251     1.787341070185     1.007825032070

  Running in c1 symmetry.

  Rotational constants: A =      0.30270  B =      0.14512  C =      0.10953 [cm^-1]
  Rotational constants: A =   9074.61650  B =   4350.54677  C =   3283.65921 [MHz]
  Nuclear repulsion =  183.452881101928881

  Charge       = 0
  Multiplicity = 1
  Electrons    = 40
  Nalpha       = 20
  Nbeta        = 20

  ==> Algorithm <==

  SCF Algorithm Type is DF.
  DIIS enabled.
  MOM disabled.
  Fractional occupation disabled.
  Guess Type is SAD.
  Energy threshold   = 1.00e-08
  Density threshold  = 1.00e-08
  Integral threshold = 0.00e+00

  ==> Primary Basis <==

  Basis Set: CC-PVTZ
    Number of shells: 86
    Number of basis function: 234
    Number of Cartesian functions: 265
    Spherical Harmonics?: true
    Max angular momentum: 3

  ==> Pre-Iterations <==

   -------------------------------------------------------
    Irrep   Nso     Nmo     Nalpha   Nbeta   Ndocc  Nsocc
   -------------------------------------------------------
     A        234     234       0       0       0       0
   -------------------------------------------------------
    Total     234     234      20      20      20       0
   -------------------------------------------------------

  ==> Integral Setup <==

  ==> DFJK: Density-Fitted J/K Matrices <==

    J tasked:                  Yes
    K tasked:                  Yes
    wK tasked:                  No
    OpenMP threads:              4
    Integrals threads:           4
    Memory (MB):              1430
    Algorithm:                Core
    Integral Cache:           NONE
    Schwarz Cutoff:          1E-12
    Fitting Condition:       1E-12

   => Auxiliary Basis Set <=

  Basis Set: 
    Number of shells: 185
    Number of basis function: 575
    Number of Cartesian functions: 690
    Spherical Harmonics?: true
    Max angular momentum: 4

  Minimum eigenvalue in the overlap matrix is 7.9458880992E-04.
  Using Symmetric Orthogonalization.
  SCF Guess: Superposition of Atomic Densities via on-the-fly atomic UHF.

  ==> Iterations <==

                           Total Energy        Delta E     RMS |[F,P]|

   @DF-RHF iter   0:  -268.98788722739124   -2.68988e+02   1.85078e-02 
   @DF-RHF iter   1:  -266.74373961219447    2.24415e+00   2.24441e-03 
   @DF-RHF iter   2:  -266.87361366401188   -1.29874e-01   1.49856e-03 DIIS
   @DF-RHF iter   3:  -266.91548352239425   -4.18699e-02   3.29885e-04 DIIS
   @DF-RHF iter   4:  -266.92288931464992   -7.40579e-03   1.61108e-04 DIIS
   @DF-RHF iter   5:  -266.92406326213415   -1.17395e-03   6.36888e-05 DIIS
   @DF-RHF iter   6:  -266.92433917195473   -2.75910e-04   2.23886e-05 DIIS
   @DF-RHF iter   7:  -266.92436869578279   -2.95238e-05   6.51655e-06 DIIS
   @DF-RHF iter   8:  -266.92437162553398   -2.92975e-06   1.70932e-06 DIIS
   @DF-RHF iter   9:  -266.92437182286682   -1.97333e-07   4.04794e-07 DIIS
   @DF-RHF iter  10:  -266.92437183582359   -1.29568e-08   1.05230e-07 DIIS
   @DF-RHF iter  11:  -266.92437183657302   -7.49424e-10   3.03711e-08 DIIS
   @DF-RHF iter  12:  -266.92437183663679   -6.37783e-11   9.22754e-09 DIIS

  ==> Post-Iterations <==

    Orbital Energies (a.u.)
    -----------------------

    Doubly Occupied:                                                      

       1A    -20.585233     2A    -20.541851     3A    -11.370205  
       4A    -11.288523     5A    -11.233868     6A     -1.470287  
       7A     -1.369708     8A     -1.032413     9A     -0.961838  
      10A     -0.781798    11A     -0.697691    12A     -0.686458  
      13A     -0.676236    14A     -0.606305    15A     -0.592946  
      16A     -0.571712    17A     -0.541186    18A     -0.504751  
      19A     -0.460974    20A     -0.444078  

    Virtual:                                                              

      21A      0.132389    22A      0.157953    23A      0.174723  
      24A      0.200279    25A      0.217538    26A      0.220144  
      27A      0.255622    28A      0.256695    29A      0.298431  
      30A      0.336608    31A      0.370543    32A      0.389809  
      33A      0.412046    34A      0.416990    35A      0.429476  
      36A      0.529278    37A      0.543269    38A      0.572293  
      39A      0.585937    40A      0.610395    41A      0.616112  
      42A      0.618356    43A      0.625644    44A      0.639012  
      45A      0.643669    46A      0.658223    47A      0.700571  
      48A      0.738015    49A      0.763190    50A      0.785899  
      51A      0.807800    52A      0.829943    53A      0.872728  
      54A      0.887890    55A      0.926557    56A      0.954690  
      57A      0.968013    58A      1.014207    59A      1.044430  
      60A      1.070264    61A      1.077001    62A      1.113944  
      63A      1.163244    64A      1.175050    65A      1.192552  
      66A      1.202730    67A      1.221658    68A      1.241045  
      69A      1.271368    70A      1.287084    71A      1.296739  
      72A      1.335358    73A      1.346264    74A      1.379139  
      75A      1.397491    76A      1.449880    77A      1.475466  
      78A      1.496974    79A      1.514451    80A      1.522634  
      81A      1.536994    82A      1.556820    83A      1.567544  
      84A      1.616730    85A      1.625322    86A      1.707420  
      87A      1.770258    88A      1.788576    89A      1.871302  
      90A      1.929055    91A      1.933822    92A      2.024442  
      93A      2.129061    94A      2.212864    95A      2.251459  
      96A      2.299282    97A      2.329580    98A      2.368192  
      99A      2.413706   100A      2.478253   101A      2.520949  
     102A      2.529823   103A      2.608160   104A      2.637057  
     105A      2.662367   106A      2.714738   107A      2.722993  
     108A      2.834997   109A      2.855885   110A      2.888022  
     111A      2.928369   112A      2.950173   113A      3.026552  
     114A      3.031396   115A      3.069660   116A      3.092428  
     117A      3.098366   118A      3.116949   119A      3.135084  
     120A      3.163310   121A      3.187498   122A      3.219972  
     123A      3.282218   124A      3.289446   125A      3.301848  
     126A      3.325543   127A      3.339484   128A      3.349812  
     129A      3.377657   130A      3.415306   131A      3.422855  
     132A      3.429024   133A      3.505884   134A      3.565342  
     135A      3.579469   136A      3.600943   137A      3.613086  
     138A      3.637769   139A      3.664832   140A      3.684903  
     141A      3.699133   142A      3.727666   143A      3.743069  
     144A      3.761386   145A      3.776930   146A      3.815517  
     147A      3.821254   148A      3.844503   149A      3.862300  
     150A      3.883861   151A      3.943152   152A      4.025099  
     153A      4.072762   154A      4.088369   155A      4.095625  
     156A      4.119885   157A      4.126911   158A      4.163230  
     159A      4.187466   160A      4.221351   161A      4.258363  
     162A      4.275562   163A      4.316638   164A      4.358990  
     165A      4.374715   166A      4.388763   167A      4.393038  
     168A      4.400642   169A      4.442574   170A      4.499309  
     171A      4.565569   172A      4.571588   173A      4.600741  
     174A      4.626993   175A      4.682861   176A      4.731976  
     177A      4.774758   178A      4.813743   179A      4.902393  
     180A      4.933698   181A      5.044351   182A      5.105966  
     183A      5.149443   184A      5.199450   185A      5.226361  
     186A      5.245500   187A      5.300417   188A      5.336070  
     189A      5.363643   190A      5.430859   191A      5.502604  
     192A      5.516333   193A      5.533819   194A      5.554755  
     195A      5.589236   196A      5.610005   197A      5.611147  
     198A      5.637402   199A      5.649995   200A      5.663999  
     201A      5.712247   202A      5.724252   203A      5.828378  
     204A      5.916593   205A      5.990005   206A      6.065409  
     207A      6.132813   208A      6.186351   209A      6.214301  
     210A      6.219694   211A      6.259962   212A      6.370743  
     213A      6.476580   214A      6.681149   215A      6.746922  
     216A      6.814579   217A      6.841415   218A      6.900129  
     219A      6.938802   220A      6.966812   221A      7.222595  
     222A      7.257395   223A      7.374586   224A      7.429279  
     225A      7.571800   226A      7.612851   227A      7.699954  
     228A      7.856702   229A      7.865552   230A      9.704824  
     231A     12.060207   232A     14.098284   233A     14.241950  
     234A     14.362553  

    Final Occupation by Irrep:
              A 
    DOCC [    20 ]

  Energy converged.

  @DF-RHF Final Energy:  -266.92437183663679

   => Energetics <=

    Nuclear Repulsion Energy =            183.4528811019288810
    One-Electron Energy =                -727.9183762262882738
    Two-Electron Energy =                 277.5411232877227121
    DFT Exchange-Correlation Energy =       0.0000000000000000
    Empirical Dispersion Energy =           0.0000000000000000
    PCM Polarization Energy =               0.0000000000000000
    EFP Energy =                            0.0000000000000000
    Total Energy =                       -266.9243718366367375


  Saving occupied orbitals to File 180.

*** tstop() called on cx1-27-2-3 at Sat Sep 10 16:20:32 2016
Module time:
	user time   =      11.06 seconds =       0.18 minutes
	system time =       0.34 seconds =       0.01 minutes
	total time  =          4 seconds =       0.07 minutes
Total time:
	user time   =      11.06 seconds =       0.18 minutes
	system time =       0.34 seconds =       0.01 minutes
	total time  =          4 seconds =       0.07 minutes


Properties will be evaluated at   0.000000,   0.000000,   0.000000 Bohr

Properties computed using the SCF density matrix

  Nuclear Dipole Moment: (a.u.)
     X:    -0.6666      Y:    -3.3423      Z:     2.5063

  Electronic Dipole Moment: (a.u.)
     X:     0.6004      Y:     2.3502      Z:    -1.9706

  Dipole Moment: (a.u.)
     X:    -0.0661      Y:    -0.9921      Z:     0.5357     Total:     1.1294

  Dipole Moment: (Debye)
     X:    -0.1681      Y:    -2.5216      Z:     1.3616     Total:     2.8707


*** tstart() called on cx1-27-2-3
*** at Sat Sep 10 16:20:32 2016


         ------------------------------------------------------------
                                   SCF GRAD                          
                          Rob Parrish, Justin Turney,                
                       Andy Simmonett, and Alex Sokolov              
         ------------------------------------------------------------

  ==> Geometry <==

    Molecular point group: c1
    Full point group: C1

    Geometry (in Angstrom), charge = 0, multiplicity = 1:

       Center              X                  Y                   Z               Mass       
    ------------   -----------------  -----------------  -----------------  -----------------
           O         -0.207085955260     1.419805730749    -0.232600929815    15.994914619560
           C         -0.361129955260     0.246711730749    -0.231915929815    12.000000000000
           C         -1.693145955260    -0.447110269251    -0.231533929815    12.000000000000
           O          0.638345044740    -0.618886269251    -0.231316929815    15.994914619560
           H         -1.771786955260    -1.082269269251    -1.104341929815     1.007825032070
           H         -2.482633955260     0.286537730749    -0.233070929815     1.007825032070
           H         -1.772630955260    -1.079346269251     0.643335070185     1.007825032070
           C          1.539349044740    -0.567383269251     0.857078070185    12.000000000000
           H          2.020686044740     0.397924730749     0.907315070185     1.007825032070
           H          2.269618044740    -1.338964269251     0.675271070185     1.007825032070
           H          1.023499044740    -0.753209269251     1.787341070185     1.007825032070

  Nuclear repulsion =  183.452881101928909

  ==> Basis Set <==

  Basis Set: CC-PVTZ
    Number of shells: 86
    Number of basis function: 234
    Number of Cartesian functions: 265
    Spherical Harmonics?: true
    Max angular momentum: 3

  ==> DFJKGrad: Density-Fitted SCF Gradients <==

    Gradient:                    1
    J tasked:                  Yes
    K tasked:                  Yes
    wK tasked:                  No
    OpenMP threads:              4
    Integrals threads:           4
    Memory (MB):              1430
    Schwarz Cutoff:          0E+00
    Fitting Condition:       1E-12

   => Auxiliary Basis Set <=

  Basis Set: 
    Number of shells: 185
    Number of basis function: 575
    Number of Cartesian functions: 690
    Spherical Harmonics?: true
    Max angular momentum: 4


  -Total Gradient:
     Atom            X                  Y                   Z
    ------   -----------------  -----------------  -----------------
       1        0.000530109802     0.007832717537    -0.003503142307
       2        0.010576900824    -0.014475862672     0.000448540970
       3        0.002803803119    -0.005293373771     0.004749120804
       4       -0.008755489311     0.015187821480    -0.005555572518
       5       -0.000127229617     0.000560442179    -0.000041905958
       6        0.001442499183     0.000617854329     0.000361823470
       7       -0.000902073788     0.000143668420    -0.000422268718
       8       -0.005993252877    -0.006412652555     0.007088892404
       9       -0.000998224448    -0.000008749784     0.000279255253
      10       -0.000140181951    -0.000336075087    -0.001775194310
      11        0.001563139062     0.002184209924    -0.001629549091


*** tstop() called on cx1-27-2-3 at Sat Sep 10 16:20:35 2016
Module time:
	user time   =      11.78 seconds =       0.20 minutes
	system time =       0.32 seconds =       0.01 minutes
	total time  =          3 seconds =       0.05 minutes
Total time:
	user time   =      22.88 seconds =       0.38 minutes
	system time =       0.66 seconds =       0.01 minutes
	total time  =          7 seconds =       0.12 minutes

			-----------------------------------------
			 OPTKING 2.0: for geometry optimizations 
			  - R.A. King,  Bethel University        
			-----------------------------------------

	Internal coordinates to be generated automatically.
	Detected frag 1 with atoms:  1 2 3 4 5 6 7 8 9 10 11
	---Fragment 1 Bond Connectivity---
	 1 : 2
	 2 : 1 3 4
	 3 : 2 5 6 7
	 4 : 2 8
	 5 : 3
	 6 : 3
	 7 : 3
	 8 : 4 9 10 11
	 9 : 8
	 10 : 8
	 11 : 8

	Assuming in current code that numbering for constraints corresponds to unified fragment.
	Frozen dihedral atom list: 
	     8     4     2     1
	---Fragment 1 Geometry and Gradient---
	 O          -0.3913357414        2.6830439930       -0.4395520556
	 C          -0.6824367138        0.4662176049       -0.4382575932
	 C          -3.1995821584       -0.8449159601       -0.4375357178
	 O           1.2062973128       -1.1695255563       -0.4371256473
	 H          -3.3481921113       -2.0451925209       -2.0869038044
	 H          -4.6914982636        0.5414778379       -0.4404402269
	 H          -3.3497870401       -2.0396688514        1.2157270943
	 C           2.9089481175       -1.0721989913        1.6196428272
	 H           3.8185432251        0.7519687626        1.7145769989
	 H           4.2889565308       -2.5302757706        1.2760773881
	 H           1.9341328918       -1.4233592396        3.3775851287
	             0.0005301098        0.0078327175       -0.0035031423
	             0.0105769008       -0.0144758627        0.0004485410
	             0.0028038031       -0.0052933738        0.0047491208
	            -0.0087554893        0.0151878215       -0.0055555725
	            -0.0001272296        0.0005604422       -0.0000419060
	             0.0014424992        0.0006178543        0.0003618235
	            -0.0009020738        0.0001436684       -0.0004222687
	            -0.0059932529       -0.0064126526        0.0070888924
	            -0.0009982244       -0.0000087498        0.0002792553
	            -0.0001401820       -0.0003360751       -0.0017751943
	             0.0015631391        0.0021842099       -0.0016295491

	Previous optimization step data not found.  Starting new optimization.

	---Fragment 1 Intrafragment Coordinates---
	 - Coordinate -           - BOHR/RAD -       - ANG/DEG -
	 R(1,2)           =         2.235858	       1.183165
	 R(2,3)           =         2.838150	       1.501884
	 R(2,4)           =         2.498594	       1.322199
	 R(3,5)           =         2.045278	       1.082315
	 R(3,6)           =         2.036642	       1.077744
	 R(3,7)           =         2.045305	       1.082329
	 R(4,8)           =         2.671851	       1.413883
	 R(8,9)           =         2.040579	       1.079828
	 R(8,10)          =         2.036774	       1.077814
	 R(8,11)          =         2.040573	       1.079825
	 B(1,2,3)         =         2.181576	     124.995110
	 B(1,2,4)         =         2.153969	     123.413344
	 B(2,3,5)         =         1.912766	     109.593439
	 B(2,3,6)         =         1.912626	     109.585392
	 B(2,3,7)         =         1.912607	     109.584334
	 B(2,4,8)         =         2.046782	     117.271953
	 B(3,2,4)         =         1.947640	     111.591545
	 B(4,8,9)         =         1.930968	     110.636335
	 B(4,8,10)        =         1.850263	     106.012285
	 B(4,8,11)        =         1.931011	     110.638787
	 B(5,3,6)         =         1.923151	     110.188456
	 B(5,3,7)         =         1.879380	     107.680538
	 B(6,3,7)         =         1.923033	     110.181658
	 B(9,8,10)        =         1.923870	     110.229614
	 B(9,8,11)        =         1.903609	     109.068755
	 B(10,8,11)       =         1.923886	     110.230543
	 D(1,2,3,5)       =         2.113421	     121.090095
	 D(1,2,3,6)       =         0.001076	       0.061624
	 D(1,2,3,7)       =        -2.111023	    -120.952731
	*D(1,2,4,8)       =         1.047198	      60.000011
	 D(2,4,8,9)       =        -1.055718	     -60.488197
	 D(2,4,8,10)      =        -3.141452	    -179.991952
	 D(2,4,8,11)      =         1.055956	      60.501850
	 D(3,2,4,8)       =        -2.094337	    -119.996660
	 D(4,2,3,5)       =        -1.028231	     -58.913298
	 D(4,2,3,6)       =        -3.140576	    -179.941769
	 D(4,2,3,7)       =         1.030510	      59.043877

	Current energy   :      -266.9243718366

	Generating empirical Hessian (Schlegel '84) for each fragment.
	Taking RFO optimization step.
	Going to follow RFO solution 1.
	Using RFO vector 1.

	Determining step-restricting scale parameter for RS-RFO.
	Maximum step size allowed    0.50000

	 Iter      |step|        alpha        rfo_root  
	------------------------------------------------
	    0     0.51885       1.00000           1
	    1     0.50102       1.13487           1
	    2     0.50000       1.14307           1
	------------------------------------------------
	Norm of target step-size    0.50000
	Projected energy change by RFO approximation:         0.0034549632

	Back-transformation to cartesian coordinates...
	Could not converge backtransformation.
	Using first guess instead.

	Back-transformation to cartesian coordinates to adjust frozen coordinates...
	Successfully converged to displaced geometry.

	--- Internal Coordinate Step in ANG or DEG, aJ/ANG or AJ/DEG ---
	 ---------------------------------------------------------------------------
	   Coordinate                Previous        Force       Change         New 
	   ----------                --------       ------       ------       ------
	    1 R(1,2)          =      1.183165    -0.064568     0.056777     1.239942
	    2 R(2,3)          =      1.501884     0.008381     0.251665     1.753549
	    3 R(2,4)          =      1.322199     0.146464     0.317941     1.640141
	    4 R(3,5)          =      1.082315     0.002355     0.186594     1.268908
	    5 R(3,6)          =      1.077744     0.005245     0.252569     1.330314
	    6 R(3,7)          =      1.082329     0.002958     0.257982     1.340311
	    7 R(4,8)          =      1.413883     0.005472     0.339387     1.753270
	    8 R(8,9)          =      1.079828     0.003623     0.038038     1.117866
	    9 R(8,10)         =      1.077814    -0.003667     0.213647     1.291461
	   10 R(8,11)         =      1.079825     0.020815     0.306973     1.386798
	   11 B(1,2,3)        =    124.995110    -0.000225    -1.017575   123.977536
	   12 B(1,2,4)        =    123.413344    -0.000309   -12.624798   110.788546
	   13 B(2,3,5)        =    109.593439    -0.000014    -3.905851   105.687588
	   14 B(2,3,6)        =    109.585392     0.000195    10.361065   119.946456
	   15 B(2,3,7)        =    109.584334    -0.000140    -3.030362   106.553972
	   16 B(2,4,8)        =    117.271953     0.000039     4.395435   121.667387
	   17 B(3,2,4)        =    111.591545     0.000534    11.633845   123.225391
	   18 B(4,8,9)        =    110.636335     0.000061    -1.182664   109.453671
	   19 B(4,8,10)       =    106.012285     0.000161     5.659577   111.671862
	   20 B(4,8,11)       =    110.638787    -0.000125    -0.174540   110.464246
	   21 B(5,3,6)        =    110.188456    -0.000050    -7.039517   103.148939
	   22 B(5,3,7)        =    107.680538     0.000007     8.656271   116.336809
	   23 B(6,3,7)        =    110.181658    -0.000004    -4.410758   105.770900
	   24 B(9,8,10)       =    110.229614    -0.000070   -10.694296    99.535318
	   25 B(9,8,11)       =    109.068755     0.000091     3.768914   112.837669
	   26 B(10,8,11)      =    110.230543    -0.000122     2.219009   112.449551
	   27 D(1,2,3,5)      =    121.090095    -0.000025   -12.429653   108.660442
	   28 D(1,2,3,6)      =      0.061624    -0.000037    -7.154166    -7.092542
	   29 D(1,2,3,7)      =   -120.952731    -0.000043    -6.038798  -126.991529
	   30 *D(1,2,4,8)     =     60.000011    -0.000000     0.000000    60.000011
	   31 D(2,4,8,9)      =    -60.488197     0.000000    -9.917959   -70.406156
	   32 D(2,4,8,10)     =   -179.991952    -0.000010     0.353054  -179.638898
	   33 D(2,4,8,11)     =     60.501850     0.000017    -6.077148    54.424702
	   34 D(3,2,4,8)      =   -119.996660    -0.000075   -15.579202  -135.575861
	   35 D(4,2,3,5)      =    -58.913298     0.000052     5.194816   -53.718482
	   36 D(4,2,3,6)      =   -179.941769     0.000040    10.470304  -169.471465
	   37 D(4,2,3,7)      =     59.043877     0.000033    11.585671    70.629548
	 ---------------------------------------------------------------------------
	Successfully symmetrized geometry.

  ==> Convergence Check <==

  Measures of convergence in internal coordinates in au.
  Criteria marked as inactive (o), active & met (*), and active & unmet ( ).
  --------------------------------------------------------------------------------------------- ~
   Step     Total Energy     Delta E     MAX Force     RMS Force      MAX Disp      RMS Disp    ~
  --------------------------------------------------------------------------------------------- ~
    Convergence Criteria    1.00e-06 *    3.00e-04 *             o    1.20e-03 *             o  ~
  --------------------------------------------------------------------------------------------- ~
      1    -266.92437184   -2.67e+02      1.78e-02      3.80e-03 o    6.41e-01      2.65e-01 o  ~
  ---------------------------------------------------------------------------------------------

	Writing optimization data to binary file.
	Structure for next step:
	Cartesian Geometry (in Angstrom)
	    O     0.1285197679   1.4181166951  -0.2135038264
	    C    -0.2298079294   0.2377559795  -0.3392231386
	    C    -1.4626365180  -0.2974957189  -1.4655330164
	    O     0.8566283658  -0.7773043392   0.3531422120
	    H    -0.8446582834  -0.9301037202  -2.3754991863
	    H    -2.1725000656   0.5972416452  -2.1476421515
	    H    -2.3525692566  -1.0009617350  -0.7516781298
	    C     1.2423737174  -0.6867414624   2.0610514950
	    H     1.8259809857   0.2452691923   2.2620056077
	    H     2.1240380070  -1.5681265035   2.3982473289
	    H     0.0877147013  -0.7738389946   2.8241925774
			--------------------------
			 OPTKING Finished Execution 
			--------------------------

    Structure for next step:
    Molecular point group: c1
    Full point group: C1

    Geometry (in Angstrom), charge = 0, multiplicity = 1:

    O            0.006768189940     1.447364314493    -0.315290595572
    C           -0.351559507305     0.267003598959    -0.441009907784
    C           -1.584388095876    -0.268248099475    -1.567319785519
    O            0.734876787929    -0.748056719767     0.251355442875
    H           -0.966409861281    -0.900856100774    -2.477285955401
    H           -2.294251643479     0.626489264572    -2.249428920632
    H           -2.474320834515    -0.971714115624    -0.853464898985
    C            1.120622139444    -0.657493843026     1.959264725868
    H            1.704229407766     0.274516811741     2.160218838563
    H            2.002286429056    -1.538878884089     2.296460559742
    H           -0.034036876667    -0.744591375206     2.722405808242

gradient() will perform analytic gradient computation.

*** tstart() called on cx1-27-2-3
*** at Sat Sep 10 16:20:35 2016


         ---------------------------------------------------------
                                   SCF
            by Justin Turney, Rob Parrish, and Andy Simmonett
                              RHF Reference
                        4 Threads,   2000 MiB Core
         ---------------------------------------------------------

  ==> Geometry <==

    Molecular point group: c1
    Full point group: C1

    Geometry (in Angstrom), charge = 0, multiplicity = 1:

       Center              X                  Y                   Z               Mass       
    ------------   -----------------  -----------------  -----------------  -----------------
           O          0.006768189940     1.447364314493    -0.315290595572    15.994914619560
           C         -0.351559507305     0.267003598959    -0.441009907784    12.000000000000
           C         -1.584388095876    -0.268248099475    -1.567319785519    12.000000000000
           O          0.734876787929    -0.748056719767     0.251355442875    15.994914619560
           H         -0.966409861281    -0.900856100774    -2.477285955401     1.007825032070
           H         -2.294251643479     0.626489264572    -2.249428920632     1.007825032070
           H         -2.474320834515    -0.971714115624    -0.853464898985     1.007825032070
           C          1.120622139444    -0.657493843026     1.959264725868    12.000000000000
           H          1.704229407766     0.274516811741     2.160218838563     1.007825032070
           H          2.002286429056    -1.538878884089     2.296460559742     1.007825032070
           H         -0.034036876667    -0.744591375206     2.722405808242     1.007825032070

  Running in c1 symmetry.

  Rotational constants: A =      0.28381  B =      0.08839  C =      0.07382 [cm^-1]
  Rotational constants: A =   8508.41423  B =   2649.95260  C =   2213.10670 [MHz]
  Nuclear repulsion =  155.462904662555133

  Charge       = 0
  Multiplicity = 1
  Electrons    = 40
  Nalpha       = 20
  Nbeta        = 20

  ==> Algorithm <==

  SCF Algorithm Type is DF.
  DIIS enabled.
  MOM disabled.
  Fractional occupation disabled.
  Guess Type is READ.
  Energy threshold   = 1.00e-08
  Density threshold  = 1.00e-08
  Integral threshold = 0.00e+00

  ==> Primary Basis <==

  Basis Set: CC-PVTZ
    Number of shells: 86
    Number of basis function: 234
    Number of Cartesian functions: 265
    Spherical Harmonics?: true
    Max angular momentum: 3

  ==> Pre-Iterations <==

   -------------------------------------------------------
    Irrep   Nso     Nmo     Nalpha   Nbeta   Ndocc  Nsocc
   -------------------------------------------------------
     A        234     234       0       0       0       0
   -------------------------------------------------------
    Total     234     234      20      20      20       0
   -------------------------------------------------------

  ==> Integral Setup <==

  ==> DFJK: Density-Fitted J/K Matrices <==

    J tasked:                  Yes
    K tasked:                  Yes
    wK tasked:                  No
    OpenMP threads:              4
    Integrals threads:           4
    Memory (MB):              1430
    Algorithm:                Core
    Integral Cache:           NONE
    Schwarz Cutoff:          1E-12
    Fitting Condition:       1E-12

   => Auxiliary Basis Set <=

  Basis Set: 
    Number of shells: 185
    Number of basis function: 575
    Number of Cartesian functions: 690
    Spherical Harmonics?: true
    Max angular momentum: 4

  Minimum eigenvalue in the overlap matrix is 1.7999863083E-03.
  Using Symmetric Orthogonalization.
  SCF Guess: Reading in previously saved MOs, projecting if necessary.

  Using orbitals from previous SCF, no projection.
  Recomputing DOCC and SOCC from number of alpha and beta electrons from previous calculation.
              A 
    DOCC [    20 ]

  ==> Iterations <==

                           Total Energy        Delta E     RMS |[F,P]|

   @DF-RHF iter   0:  -264.54146634147151   -2.64541e+02   5.31649e-03 
   @DF-RHF iter   1:  -266.38863742239573   -1.84717e+00   2.62794e-03 
   @DF-RHF iter   2:  -266.53009569135838   -1.41458e-01   2.04405e-03 DIIS
   @DF-RHF iter   3:  -266.61965950844331   -8.95638e-02   3.50736e-04 DIIS
   @DF-RHF iter   4:  -266.62534471732260   -5.68521e-03   1.60692e-04 DIIS
   @DF-RHF iter   5:  -266.62758030720374   -2.23559e-03   6.47546e-05 DIIS
   @DF-RHF iter   6:  -266.62805901576519   -4.78709e-04   4.14160e-05 DIIS
   @DF-RHF iter   7:  -266.62824755163149   -1.88536e-04   1.73423e-05 DIIS
   @DF-RHF iter   8:  -266.62829736554704   -4.98139e-05   7.07301e-06 DIIS
   @DF-RHF iter   9:  -266.62830272549422   -5.35995e-06   2.44364e-06 DIIS
   @DF-RHF iter  10:  -266.62830346428893   -7.38795e-07   9.11242e-07 DIIS
   @DF-RHF iter  11:  -266.62830357706810   -1.12779e-07   3.16808e-07 DIIS
   @DF-RHF iter  12:  -266.62830359032205   -1.32540e-08   1.02028e-07 DIIS
   @DF-RHF iter  13:  -266.62830359137354   -1.05149e-09   3.49744e-08 DIIS
   @DF-RHF iter  14:  -266.62830359145698   -8.34461e-11   1.25609e-08 DIIS
   @DF-RHF iter  15:  -266.62830359146756   -1.05729e-11   3.82639e-09 DIIS

  ==> Post-Iterations <==

    Orbital Energies (a.u.)
    -----------------------

    Doubly Occupied:                                                      

       1A    -20.573769     2A    -20.568324     3A    -11.419597  
       4A    -11.363508     5A    -11.353668     6A     -1.386466  
       7A     -1.238296     8A     -0.931723     9A     -0.888905  
      10A     -0.736542    11A     -0.616911    12A     -0.604701  
      13A     -0.575911    14A     -0.554972    15A     -0.531416  
      16A     -0.511804    17A     -0.501169    18A     -0.471751  
      19A     -0.443417    20A     -0.413629  

    Virtual:                                                              

      21A      0.094763    22A      0.103498    23A      0.136571  
      24A      0.153125    25A      0.174890    26A      0.184088  
      27A      0.196018    28A      0.209789    29A      0.243214  
      30A      0.323878    31A      0.338971    32A      0.378790  
      33A      0.388816    34A      0.403916    35A      0.427894  
      36A      0.458254    37A      0.467535    38A      0.488949  
      39A      0.510914    40A      0.525629    41A      0.536651  
      42A      0.547234    43A      0.555149    44A      0.577440  
      45A      0.612553    46A      0.619828    47A      0.665726  
      48A      0.673748    49A      0.702673    50A      0.738010  
      51A      0.757735    52A      0.807269    53A      0.860765  
      54A      0.886459    55A      0.890749    56A      0.905906  
      57A      0.934825    58A      0.948978    59A      0.972535  
      60A      0.989847    61A      1.013675    62A      1.040378  
      63A      1.081034    64A      1.110838    65A      1.115928  
      66A      1.128466    67A      1.138741    68A      1.165720  
      69A      1.190368    70A      1.213418    71A      1.229424  
      72A      1.234505    73A      1.258894    74A      1.267021  
      75A      1.315384    76A      1.338886    77A      1.373013  
      78A      1.390002    79A      1.401832    80A      1.422004  
      81A      1.433721    82A      1.435158    83A      1.451853  
      84A      1.463346    85A      1.474426    86A      1.509450  
      87A      1.548313    88A      1.633359    89A      1.735486  
      90A      1.828009    91A      1.848604    92A      1.961218  
      93A      1.998632    94A      2.030770    95A      2.120949  
      96A      2.142984    97A      2.198523    98A      2.226212  
      99A      2.377653   100A      2.423080   101A      2.453458  
     102A      2.479781   103A      2.543539   104A      2.551913  
     105A      2.611093   106A      2.631394   107A      2.706926  
     108A      2.740846   109A      2.764915   110A      2.810596  
     111A      2.847056   112A      2.886455   113A      2.888208  
     114A      2.907837   115A      2.909705   116A      2.937368  
     117A      2.944073   118A      2.973731   119A      2.986271  
     120A      2.989975   121A      3.022347   122A      3.058203  
     123A      3.061372   124A      3.093459   125A      3.114408  
     126A      3.138944   127A      3.173196   128A      3.250003  
     129A      3.267954   130A      3.278828   131A      3.316234  
     132A      3.352597   133A      3.370525   134A      3.399625  
     135A      3.409260   136A      3.427501   137A      3.457078  
     138A      3.468937   139A      3.491283   140A      3.498189  
     141A      3.509107   142A      3.531394   143A      3.534635  
     144A      3.539911   145A      3.580656   146A      3.598128  
     147A      3.607852   148A      3.620180   149A      3.635556  
     150A      3.658568   151A      3.669913   152A      3.710218  
     153A      3.718947   154A      3.784862   155A      3.812821  
     156A      3.817726   157A      3.848918   158A      3.875066  
     159A      3.923059   160A      3.947370   161A      3.956955  
     162A      3.977428   163A      4.021813   164A      4.053233  
     165A      4.061588   166A      4.085889   167A      4.099697  
     168A      4.107450   169A      4.127200   170A      4.192110  
     171A      4.208204   172A      4.220830   173A      4.249371  
     174A      4.299382   175A      4.325781   176A      4.378592  
     177A      4.460398   178A      4.480186   179A      4.509162  
     180A      4.530685   181A      4.536550   182A      4.541778  
     183A      4.554383   184A      4.598239   185A      4.630276  
     186A      4.666704   187A      4.704946   188A      4.745115  
     189A      4.816328   190A      4.859114   191A      4.867588  
     192A      4.915549   193A      4.950062   194A      4.959737  
     195A      4.999739   196A      5.028091   197A      5.120073  
     198A      5.162356   199A      5.265007   200A      5.272453  
     201A      5.298358   202A      5.607847   203A      5.613935  
     204A      5.655668   205A      5.675320   206A      5.727153  
     207A      5.765792   208A      5.796246   209A      5.847024  
     210A      5.894555   211A      5.909997   212A      5.928222  
     213A      6.019795   214A      6.077622   215A      6.152280  
     216A      6.185889   217A      6.500497   218A      6.526700  
     219A      6.750187   220A      6.850077   221A      6.892231  
     222A      7.012786   223A      7.043204   224A      7.197929  
     225A      7.300698   226A      7.322933   227A      7.420216  
     228A      7.545211   229A      7.562299   230A      8.134210  
     231A      9.374423   232A      9.693931   233A     10.281479  
     234A     12.346425  

    Final Occupation by Irrep:
              A 
    DOCC [    20 ]

  Energy converged.

  @DF-RHF Final Energy:  -266.62830359146756

   => Energetics <=

    Nuclear Repulsion Energy =            155.4629046625551325
    One-Electron Energy =                -672.8094610606333390
    Two-Electron Energy =                 250.7182528066107352
    DFT Exchange-Correlation Energy =       0.0000000000000000
    Empirical Dispersion Energy =           0.0000000000000000
    PCM Polarization Energy =               0.0000000000000000
    EFP Energy =                            0.0000000000000000
    Total Energy =                       -266.6283035914674429


  Saving occupied orbitals to File 180.

*** tstop() called on cx1-27-2-3 at Sat Sep 10 16:20:39 2016
Module time:
	user time   =       9.60 seconds =       0.16 minutes
	system time =       0.22 seconds =       0.00 minutes
	total time  =          4 seconds =       0.07 minutes
Total time:
	user time   =      34.21 seconds =       0.57 minutes
	system time =       0.95 seconds =       0.02 minutes
	total time  =         11 seconds =       0.18 minutes


Properties will be evaluated at   0.000000,   0.000000,   0.000000 Bohr

Properties computed using the SCF density matrix

  Nuclear Dipole Moment: (a.u.)
     X:    -1.9300      Y:    -3.0481      Z:     1.4986

  Electronic Dipole Moment: (a.u.)
     X:     1.2611      Y:     2.4185      Z:    -1.1811

  Dipole Moment: (a.u.)
     X:    -0.6689      Y:    -0.6296      Z:     0.3175     Total:     0.9719

  Dipole Moment: (Debye)
     X:    -1.7002      Y:    -1.6004      Z:     0.8070     Total:     2.4704


*** tstart() called on cx1-27-2-3
*** at Sat Sep 10 16:20:39 2016


         ------------------------------------------------------------
                                   SCF GRAD                          
                          Rob Parrish, Justin Turney,                
                       Andy Simmonett, and Alex Sokolov              
         ------------------------------------------------------------

  ==> Geometry <==

    Molecular point group: c1
    Full point group: C1

    Geometry (in Angstrom), charge = 0, multiplicity = 1:

       Center              X                  Y                   Z               Mass       
    ------------   -----------------  -----------------  -----------------  -----------------
           O          0.006768189940     1.447364314493    -0.315290595572    15.994914619560
           C         -0.351559507305     0.267003598959    -0.441009907784    12.000000000000
           C         -1.584388095876    -0.268248099475    -1.567319785519    12.000000000000
           O          0.734876787929    -0.748056719767     0.251355442875    15.994914619560
           H         -0.966409861281    -0.900856100774    -2.477285955401     1.007825032070
           H         -2.294251643479     0.626489264572    -2.249428920632     1.007825032070
           H         -2.474320834515    -0.971714115624    -0.853464898985     1.007825032070
           C          1.120622139444    -0.657493843026     1.959264725868    12.000000000000
           H          1.704229407766     0.274516811741     2.160218838563     1.007825032070
           H          2.002286429056    -1.538878884089     2.296460559742     1.007825032070
           H         -0.034036876667    -0.744591375206     2.722405808242     1.007825032070

  Nuclear repulsion =  155.462904662555133

  ==> Basis Set <==

  Basis Set: CC-PVTZ
    Number of shells: 86
    Number of basis function: 234
    Number of Cartesian functions: 265
    Spherical Harmonics?: true
    Max angular momentum: 3

  ==> DFJKGrad: Density-Fitted SCF Gradients <==

    Gradient:                    1
    J tasked:                  Yes
    K tasked:                  Yes
    wK tasked:                  No
    OpenMP threads:              4
    Integrals threads:           4
    Memory (MB):              1430
    Schwarz Cutoff:          0E+00
    Fitting Condition:       1E-12

   => Auxiliary Basis Set <=

  Basis Set: 
    Number of shells: 185
    Number of basis function: 575
    Number of Cartesian functions: 690
    Spherical Harmonics?: true
    Max angular momentum: 4


  -Total Gradient:
     Atom            X                  Y                   Z
    ------   -----------------  -----------------  -----------------
       1        0.058880981786     0.123121717794     0.015175287467
       2       -0.083965830525    -0.081214025246    -0.014484850626
       3        0.017964453570     0.024242614177     0.004049203159
       4        0.055503443778    -0.030639088542    -0.040523464876
       5        0.042487585393    -0.032202206074    -0.066986683389
       6       -0.059578714599     0.050267578408    -0.060952522786
       7       -0.068208607583    -0.043639205071     0.055759504355
       8        0.023276774610     0.026822605723    -0.004946726885
       9        0.029050125095     0.013282094822     0.014393590128
      10        0.071113161517    -0.045093062843     0.037377026013
      11       -0.086523373041    -0.004949023147     0.061139637439


*** tstop() called on cx1-27-2-3 at Sat Sep 10 16:20:42 2016
Module time:
	user time   =      11.02 seconds =       0.18 minutes
	system time =       0.29 seconds =       0.00 minutes
	total time  =          3 seconds =       0.05 minutes
Total time:
	user time   =      45.31 seconds =       0.76 minutes
	system time =       1.24 seconds =       0.02 minutes
	total time  =         14 seconds =       0.23 minutes

			-----------------------------------------
			 OPTKING 2.0: for geometry optimizations 
			  - R.A. King,  Bethel University        
			-----------------------------------------

	Previous internal coordinate definitions found.
	---Fragment 1 Geometry and Gradient---
	 O           0.0127900254        2.7351221689       -0.5958128779
	 C          -0.6643511882        0.5045636785       -0.8333879476
	 C          -2.9940595894       -0.5069154437       -2.9618051573
	 O           1.3887158706       -1.4136223322        0.4749929490
	 H          -1.8262499699       -1.7023713156       -4.6813920086
	 H          -4.3355072861        1.1838931352       -4.2508046154
	 H          -4.6757887421       -1.8362735580       -1.6128149231
	 C           2.1176689420       -1.2424832974        3.7024737537
	 H           3.2205268483        0.5187615931        4.0822219920
	 H           3.7837729905       -2.9080596426        4.3396815329
	 H          -0.0643203753       -1.4070737800        5.1446014002
	             0.0588809818        0.1231217178        0.0151752875
	            -0.0839658305       -0.0812140252       -0.0144848506
	             0.0179644536        0.0242426142        0.0040492032
	             0.0555034438       -0.0306390885       -0.0405234649
	             0.0424875854       -0.0322022061       -0.0669866834
	            -0.0595787146        0.0502675784       -0.0609525228
	            -0.0682086076       -0.0436392051        0.0557595044
	             0.0232767746        0.0268226057       -0.0049467269
	             0.0290501251        0.0132820948        0.0143935901
	             0.0711131615       -0.0450930628        0.0373770260
	            -0.0865233730       -0.0049490231        0.0611396374

	---Fragment 1 Intrafragment Coordinates---
	 - Coordinate -           - BOHR/RAD -       - ANG/DEG -
	 R(1,2)           =         2.343150	       1.239942
	 R(2,3)           =         3.313728	       1.753549
	 R(2,4)           =         3.099416	       1.640141
	 R(3,5)           =         2.397889	       1.268908
	 R(3,6)           =         2.513928	       1.330314
	 R(3,7)           =         2.532821	       1.340311
	 R(4,8)           =         3.313200	       1.753270
	 R(8,9)           =         2.112460	       1.117866
	 R(8,10)          =         2.440508	       1.291461
	 R(8,11)          =         2.620668	       1.386798
	 B(1,2,3)         =         2.163816	     123.977536
	 B(1,2,4)         =         1.933625	     110.788546
	 B(2,3,5)         =         1.844596	     105.687588
	 B(2,3,6)         =         2.093461	     119.946456
	 B(2,3,7)         =         1.859718	     106.553972
	 B(2,4,8)         =         2.123497	     121.667387
	 B(3,2,4)         =         2.150689	     123.225391
	 B(4,8,9)         =         1.910327	     109.453671
	 B(4,8,10)        =         1.949042	     111.671862
	 B(4,8,11)        =         1.927965	     110.464246
	 B(5,3,6)         =         1.800289	     103.148939
	 B(5,3,7)         =         2.030460	     116.336809
	 B(6,3,7)         =         1.846050	     105.770900
	 B(9,8,10)        =         1.737219	      99.535318
	 B(9,8,11)        =         1.969389	     112.837669
	 B(10,8,11)       =         1.962615	     112.449551
	 D(1,2,3,5)       =         1.896482	     108.660442
	 D(1,2,3,6)       =        -0.123788	      -7.092542
	 D(1,2,3,7)       =        -2.216420	    -126.991529
	*D(1,2,4,8)       =         1.047198	      60.000011
	 D(2,4,8,9)       =        -1.228819	     -70.406156
	 D(2,4,8,10)      =        -3.135290	    -179.638898
	 D(2,4,8,11)      =         0.949890	      54.424702
	 D(3,2,4,8)       =        -2.366245	    -135.575861
	 D(4,2,3,5)       =        -0.937564	     -53.718482
	 D(4,2,3,6)       =        -2.957835	    -169.471465
	 D(4,2,3,7)       =         1.232718	      70.629548

	Current energy   :      -266.6283035915

	Energy change for the previous step:
		Projected    :         0.0034549632
		Actual       :         0.2960682452

	Performing BFGS update.
	Previous computed or guess Hessian on step 1.
	Steps to be used in Hessian update: 1
	Taking RFO optimization step.
	Going to follow RFO solution 1.
	Using RFO vector 1.

	Determining step-restricting scale parameter for RS-RFO.
	Maximum step size allowed    0.50000

	 Iter      |step|        alpha        rfo_root  
	------------------------------------------------
	    0     0.70686       1.00000           1
	    1     0.56495       1.84652           1
	    2     0.50999       2.40006           1
	    3     0.50030       2.51853           1
	    4     0.50000       2.52236           1
	------------------------------------------------
	Norm of target step-size    0.50000
	Projected energy change by RFO approximation:        -0.1278467124

	Back-transformation to cartesian coordinates...
	Could not converge backtransformation.
	Using first guess instead.

	Back-transformation to cartesian coordinates to adjust frozen coordinates...
	Successfully converged to displaced geometry.

	--- Internal Coordinate Step in ANG or DEG, aJ/ANG or AJ/DEG ---
	 ---------------------------------------------------------------------------
	   Coordinate                Previous        Force       Change         New 
	   ----------                --------       ------       ------       ------
	    1 R(1,2)          =      1.239942    -1.118489     0.010542     1.250484
	    2 R(2,3)          =      1.753549    -0.753898     0.115685     1.869234
	    3 R(2,4)          =      1.640141    -0.945811     0.206807     1.846948
	    4 R(3,5)          =      1.268908    -0.698513     0.098880     1.367788
	    5 R(3,6)          =      1.330314    -0.797948     0.163094     1.493407
	    6 R(3,7)          =      1.340311    -0.806494     0.163910     1.504221
	    7 R(4,8)          =      1.753270    -0.929157     0.166773     1.920043
	    8 R(8,9)          =      1.117866    -0.237502     0.027822     1.145688
	    9 R(8,10)         =      1.291461    -0.733920     0.147867     1.439328
	   10 R(8,11)         =      1.386798    -0.873267     0.186198     1.572996
	   11 B(1,2,3)        =    123.977536     0.000310     1.790087   125.767622
	   12 B(1,2,4)        =    110.788546     0.003311    -4.729129   106.059417
	   13 B(2,3,5)        =    105.687588     0.000387    -1.736534   103.951054
	   14 B(2,3,6)        =    119.946456    -0.002767     2.649974   122.596431
	   15 B(2,3,7)        =    106.553972     0.000714    -0.152818   106.401154
	   16 B(2,4,8)        =    121.667387    -0.003424     0.259346   121.926734
	   17 B(3,2,4)        =    123.225391    -0.003597     3.460043   126.685434
	   18 B(4,8,9)        =    109.453671    -0.000677    -3.334344   106.119326
	   19 B(4,8,10)       =    111.671862    -0.002078     2.097129   113.768991
	   20 B(4,8,11)       =    110.464246    -0.000266    -0.177363   110.286884
	   21 B(5,3,6)        =    103.148939     0.001286    -3.141013   100.007926
	   22 B(5,3,7)        =    116.336809    -0.000792     4.148533   120.485342
	   23 B(6,3,7)        =    105.770900     0.000945    -1.156972   104.613928
	   24 B(9,8,10)       =     99.535318     0.002429    -4.404384    95.130935
	   25 B(9,8,11)       =    112.837669     0.000317     4.293954   117.131623
	   26 B(10,8,11)      =    112.449551     0.000421     1.129371   113.578922
	   27 D(1,2,3,5)      =    108.660442     0.000122    -2.906404   105.754038
	   28 D(1,2,3,6)      =     -7.092542     0.000045     1.044884    -6.047658
	   29 D(1,2,3,7)      =   -126.991529     0.000046     0.918030  -126.073499
	   30 *D(1,2,4,8)     =     60.000011    -0.000000     0.000000    60.000011
	   31 D(2,4,8,9)      =    -70.406156     0.000137    -7.353871   -77.760028
	   32 D(2,4,8,10)     =   -179.638898    -0.000199    -1.359198  -180.998096
	   33 D(2,4,8,11)     =     54.424702     0.000078    -4.383660    50.041042
	   34 D(3,2,4,8)      =   -135.575861     0.000063     2.212342  -133.363520
	   35 D(4,2,3,5)      =    -53.718482    -0.000026    -4.640695   -58.359176
	   36 D(4,2,3,6)      =   -169.471465    -0.000102    -0.689407  -170.160872
	   37 D(4,2,3,7)      =     70.629548    -0.000101    -0.816261    69.813287
	 ---------------------------------------------------------------------------
	Successfully symmetrized geometry.

  ==> Convergence Check <==

  Measures of convergence in internal coordinates in au.
  Criteria marked as inactive (o), active & met (*), and active & unmet ( ).
  ---------------------------------------------------------------------------------------------
   Step     Total Energy     Delta E     MAX Force     RMS Force      MAX Disp      RMS Disp   
  ---------------------------------------------------------------------------------------------
    Convergence Criteria    1.00e-06 *    3.00e-04 *             o    1.20e-03 *             o
  ---------------------------------------------------------------------------------------------
      2    -266.62830359    2.96e-01      1.36e-01      5.43e-02 o    3.91e-01      1.48e-01 o  ~
  ---------------------------------------------------------------------------------------------

	Writing optimization data to binary file.
	Structure for next step:
	Cartesian Geometry (in Angstrom)
	    O     0.3511449812   1.4432371306  -0.1048692725
	    C     0.0188194180   0.3087297780  -0.5124992380
	    C    -0.5925126141  -0.0988962203  -2.2312629632
	    O     0.6300427044  -0.8885454702   0.7540527333
	    H     0.4680957520  -0.7340819602  -2.8164927679
	    H    -0.8652749716   0.9506066275  -3.2581074054
	    H    -1.9065022195  -0.8100903360  -2.0571495422
	    C     0.0450146463  -0.8203540830   2.5815251227
	    H     0.6256143258   0.0383287641   3.0695509016
	    H     0.6145045520  -1.8489999968   3.4117263351
	    H    -1.5251304395  -0.7543993819   2.6494314079
			--------------------------
			 OPTKING Finished Execution 
			--------------------------

    Structure for next step:
    Molecular point group: c1
    Full point group: C1

    Geometry (in Angstrom), charge = 0, multiplicity = 1:

    O            0.260096706202     1.465352534292    -0.232421618397
    C           -0.072228856977     0.330845181731    -0.640051583962
    C           -0.683560889119    -0.076780816537    -2.358815309110
    O            0.538994429441    -0.866430066420     0.626500387369
    H            0.377047477061    -0.711966556479    -2.944045113845
    H           -0.956323246625     0.972722031211    -3.385659751310
    H           -1.997550494438    -0.787974932214    -2.184701888106
    C           -0.046033628687    -0.798238679251     2.453972776808
    H            0.534566050831     0.060444167818     2.941998555700
    H            0.523456276970    -1.826884593098     3.284173989202
    H           -1.616178714468    -0.732283978131     2.521879061958

gradient() will perform analytic gradient computation.

*** tstart() called on cx1-27-2-3
*** at Sat Sep 10 16:20:42 2016


         ---------------------------------------------------------
                                   SCF
            by Justin Turney, Rob Parrish, and Andy Simmonett
                              RHF Reference
                        4 Threads,   2000 MiB Core
         ---------------------------------------------------------

  ==> Geometry <==

    Molecular point group: c1
    Full point group: C1

    Geometry (in Angstrom), charge = 0, multiplicity = 1:

       Center              X                  Y                   Z               Mass       
    ------------   -----------------  -----------------  -----------------  -----------------
           O          0.260096706202     1.465352534292    -0.232421618397    15.994914619560
           C         -0.072228856977     0.330845181731    -0.640051583962    12.000000000000
           C         -0.683560889119    -0.076780816537    -2.358815309110    12.000000000000
           O          0.538994429441    -0.866430066420     0.626500387369    15.994914619560
           H          0.377047477061    -0.711966556479    -2.944045113845     1.007825032070
           H         -0.956323246625     0.972722031211    -3.385659751310     1.007825032070
           H         -1.997550494438    -0.787974932214    -2.184701888106     1.007825032070
           C         -0.046033628687    -0.798238679251     2.453972776808    12.000000000000
           H          0.534566050831     0.060444167818     2.941998555700     1.007825032070
           H          0.523456276970    -1.826884593098     3.284173989202     1.007825032070
           H         -1.616178714468    -0.732283978131     2.521879061958     1.007825032070

  Running in c1 symmetry.

  Rotational constants: A =      0.26335  B =      0.07227  C =      0.06260 [cm^-1]
  Rotational constants: A =   7895.04271  B =   2166.56422  C =   1876.76139 [MHz]
  Nuclear repulsion =  144.397899655352120

  Charge       = 0
  Multiplicity = 1
  Electrons    = 40
  Nalpha       = 20
  Nbeta        = 20

  ==> Algorithm <==

  SCF Algorithm Type is DF.
  DIIS enabled.
  MOM disabled.
  Fractional occupation disabled.
  Guess Type is READ.
  Energy threshold   = 1.00e-08
  Density threshold  = 1.00e-08
  Integral threshold = 0.00e+00

  ==> Primary Basis <==

  Basis Set: CC-PVTZ
    Number of shells: 86
    Number of basis function: 234
    Number of Cartesian functions: 265
    Spherical Harmonics?: true
    Max angular momentum: 3

  ==> Pre-Iterations <==

   -------------------------------------------------------
    Irrep   Nso     Nmo     Nalpha   Nbeta   Ndocc  Nsocc
   -------------------------------------------------------
     A        234     234       0       0       0       0
   -------------------------------------------------------
    Total     234     234      20      20      20       0
   -------------------------------------------------------

  ==> Integral Setup <==

  ==> DFJK: Density-Fitted J/K Matrices <==

    J tasked:                  Yes
    K tasked:                  Yes
    wK tasked:                  No
    OpenMP threads:              4
    Integrals threads:           4
    Memory (MB):              1430
    Algorithm:                Core
    Integral Cache:           NONE
    Schwarz Cutoff:          1E-12
    Fitting Condition:       1E-12

   => Auxiliary Basis Set <=

  Basis Set: 
    Number of shells: 185
    Number of basis function: 575
    Number of Cartesian functions: 690
    Spherical Harmonics?: true
    Max angular momentum: 4

  Minimum eigenvalue in the overlap matrix is 2.5064243449E-03.
  Using Symmetric Orthogonalization.
  SCF Guess: Reading in previously saved MOs, projecting if necessary.

  Using orbitals from previous SCF, no projection.
  Recomputing DOCC and SOCC from number of alpha and beta electrons from previous calculation.
              A 
    DOCC [    20 ]

  ==> Iterations <==

                           Total Energy        Delta E     RMS |[F,P]|

   @DF-RHF iter   0:  -265.08205047081003   -2.65082e+02   3.23350e-03 
   @DF-RHF iter   1:  -266.22986171475668   -1.14781e+00   1.72215e-03 
   @DF-RHF iter   2:  -266.30886808811772   -7.90064e-02   1.32663e-03 DIIS
   @DF-RHF iter   3:  -266.34994258681263   -4.10745e-02   3.05753e-04 DIIS
   @DF-RHF iter   4:  -266.35488032951093   -4.93774e-03   1.63324e-04 DIIS
   @DF-RHF iter   5:  -266.35726763306081   -2.38730e-03   7.26960e-05 DIIS
   @DF-RHF iter   6:  -266.35769916580932   -4.31533e-04   4.25000e-05 DIIS
   @DF-RHF iter   7:  -266.35792309403246   -2.23928e-04   1.71413e-05 DIIS
   @DF-RHF iter   8:  -266.35796441942102   -4.13254e-05   8.11134e-06 DIIS
   @DF-RHF iter   9:  -266.35797159736615   -7.17795e-06   2.39390e-06 DIIS
   @DF-RHF iter  10:  -266.35797242081378   -8.23448e-07   7.56823e-07 DIIS
   @DF-RHF iter  11:  -266.35797250057885   -7.97651e-08   3.16938e-07 DIIS
   @DF-RHF iter  12:  -266.35797251254905   -1.19702e-08   1.68924e-07 DIIS
   @DF-RHF iter  13:  -266.35797251638223   -3.83318e-09   8.41057e-08 DIIS
   @DF-RHF iter  14:  -266.35797251753604   -1.15381e-09   3.61726e-08 DIIS
   @DF-RHF iter  15:  -266.35797251774352   -2.07478e-10   1.40367e-08 DIIS
   @DF-RHF iter  16:  -266.35797251776819   -2.46700e-11   8.73617e-09 DIIS

  ==> Post-Iterations <==

    Orbital Energies (a.u.)
    -----------------------

    Doubly Occupied:                                                      

       1A    -20.586282     2A    -20.567332     3A    -11.433438  
       4A    -11.405597     5A    -11.390951     6A     -1.384490  
       7A     -1.185200     8A     -0.899042     9A     -0.861031  
      10A     -0.734739    11A     -0.594531    12A     -0.577246  
      13A     -0.552139    14A     -0.530336    15A     -0.506853  
      16A     -0.484692    17A     -0.472393    18A     -0.443348  
      19A     -0.423545    20A     -0.385609  

    Virtual:                                                              

      21A      0.031624    22A      0.072151    23A      0.102904  
      24A      0.123744    25A      0.140251    26A      0.162070  
      27A      0.166649    28A      0.194680    29A      0.203002  
      30A      0.288023    31A      0.324008    32A      0.365456  
      33A      0.378264    34A      0.399049    35A      0.405126  
      36A      0.423070    37A      0.443676    38A      0.482375  
      39A      0.484645    40A      0.500785    41A      0.512145  
      42A      0.519711    43A      0.526363    44A      0.583161  
      45A      0.602993    46A      0.617453    47A      0.648201  
      48A      0.677998    49A      0.691672    50A      0.714766  
      51A      0.739154    52A      0.782846    53A      0.841687  
      54A      0.856314    55A      0.867729    56A      0.874426  
      57A      0.891595    58A      0.929775    59A      0.933495  
      60A      0.962465    61A      0.994980    62A      1.000961  
      63A      1.017428    64A      1.042959    65A      1.059081  
      66A      1.092228    67A      1.107703    68A      1.127851  
      69A      1.143235    70A      1.173390    71A      1.177606  
      72A      1.201096    73A      1.208307    74A      1.227827  
      75A      1.264326    76A      1.283396    77A      1.322194  
      78A      1.336654    79A      1.351081    80A      1.374174  
      81A      1.384168    82A      1.396389    83A      1.404607  
      84A      1.416332    85A      1.435884    86A      1.446527  
      87A      1.520576    88A      1.608645    89A      1.692030  
      90A      1.765289    91A      1.814010    92A      1.897766  
      93A      1.933284    94A      1.966849    95A      2.019820  
      96A      2.039158    97A      2.066718    98A      2.166155  
      99A      2.326017   100A      2.366279   101A      2.389897  
     102A      2.470272   103A      2.511538   104A      2.525988  
     105A      2.535201   106A      2.582259   107A      2.665849  
     108A      2.694284   109A      2.708366   110A      2.745905  
     111A      2.777282   112A      2.788730   113A      2.793410  
     114A      2.818341   115A      2.827458   116A      2.832604  
     117A      2.864146   118A      2.875603   119A      2.886074  
     120A      2.914878   121A      2.935404   122A      2.950486  
     123A      2.979117   124A      2.990930   125A      3.014312  
     126A      3.020884   127A      3.102616   128A      3.167101  
     129A      3.232012   130A      3.258398   131A      3.265282  
     132A      3.332715   133A      3.350852   134A      3.359653  
     135A      3.362944   136A      3.401702   137A      3.405064  
     138A      3.427003   139A      3.444922   140A      3.448623  
     141A      3.466253   142A      3.482219   143A      3.493484  
     144A      3.500178   145A      3.505341   146A      3.516622  
     147A      3.532165   148A      3.546218   149A      3.573901  
     150A      3.579997   151A      3.603885   152A      3.634616  
     153A      3.645976   154A      3.655397   155A      3.684362  
     156A      3.691849   157A      3.725448   158A      3.740701  
     159A      3.807224   160A      3.827992   161A      3.850314  
     162A      3.861929   163A      3.890190   164A      3.924745  
     165A      3.938393   166A      3.947696   167A      4.005691  
     168A      4.008848   169A      4.029121   170A      4.058981  
     171A      4.095360   172A      4.098189   173A      4.123400  
     174A      4.147296   175A      4.233640   176A      4.250480  
     177A      4.266914   178A      4.288678   179A      4.300465  
     180A      4.304716   181A      4.319703   182A      4.369911  
     183A      4.405970   184A      4.416959   185A      4.441853  
     186A      4.454525   187A      4.511265   188A      4.545461  
     189A      4.549410   190A      4.569784   191A      4.616982  
     192A      4.651015   193A      4.687277   194A      4.691910  
     195A      4.728552   196A      4.789033   197A      4.870450  
     198A      4.977869   199A      5.036759   200A      5.097953  
     201A      5.143284   202A      5.266748   203A      5.371044  
     204A      5.558518   205A      5.598167   206A      5.601241  
     207A      5.658068   208A      5.661768   209A      5.716878  
     210A      5.727629   211A      5.757348   212A      5.818438  
     213A      5.851435   214A      5.894383   215A      5.943379  
     216A      5.980371   217A      6.398291   218A      6.470260  
     219A      6.603866   220A      6.822705   221A      6.854671  
     222A      6.922033   223A      6.949642   224A      7.039094  
     225A      7.136864   226A      7.279258   227A      7.297767  
     228A      7.420501   229A      7.465283   230A      7.630324  
     231A      7.772404   232A      8.951133   233A      9.484411  
     234A     11.943865  

    Final Occupation by Irrep:
              A 
    DOCC [    20 ]

  Energy converged.

  @DF-RHF Final Energy:  -266.35797251776819

   => Energetics <=

    Nuclear Repulsion Energy =            144.3978996553521199
    One-Electron Energy =                -650.6741529875216656
    Two-Electron Energy =                 239.9182808144012427
    DFT Exchange-Correlation Energy =       0.0000000000000000
    Empirical Dispersion Energy =           0.0000000000000000
    PCM Polarization Energy =               0.0000000000000000
    EFP Energy =                            0.0000000000000000
    Total Energy =                       -266.3579725177683031


  Saving occupied orbitals to File 180.

*** tstop() called on cx1-27-2-3 at Sat Sep 10 16:20:45 2016
Module time:
	user time   =       9.87 seconds =       0.16 minutes
	system time =       0.17 seconds =       0.00 minutes
	total time  =          3 seconds =       0.05 minutes
Total time:
	user time   =      55.96 seconds =       0.93 minutes
	system time =       1.43 seconds =       0.02 minutes
	total time  =         17 seconds =       0.28 minutes


Properties will be evaluated at   0.000000,   0.000000,   0.000000 Bohr

Properties computed using the SCF density matrix

  Nuclear Dipole Moment: (a.u.)
     X:    -2.9351      Y:    -2.8339      Z:     0.2209

  Electronic Dipole Moment: (a.u.)
     X:     2.0401      Y:     2.4912      Z:    -0.5874

  Dipole Moment: (a.u.)
     X:    -0.8950      Y:    -0.3426      Z:    -0.3665     Total:     1.0260

  Dipole Moment: (Debye)
     X:    -2.2748      Y:    -0.8708      Z:    -0.9314     Total:     2.6078


*** tstart() called on cx1-27-2-3
*** at Sat Sep 10 16:20:45 2016


         ------------------------------------------------------------
                                   SCF GRAD                          
                          Rob Parrish, Justin Turney,                
                       Andy Simmonett, and Alex Sokolov              
         ------------------------------------------------------------

  ==> Geometry <==

    Molecular point group: c1
    Full point group: C1

    Geometry (in Angstrom), charge = 0, multiplicity = 1:

       Center              X                  Y                   Z               Mass       
    ------------   -----------------  -----------------  -----------------  -----------------
           O          0.260096706202     1.465352534292    -0.232421618397    15.994914619560
           C         -0.072228856977     0.330845181731    -0.640051583962    12.000000000000
           C         -0.683560889119    -0.076780816537    -2.358815309110    12.000000000000
           O          0.538994429441    -0.866430066420     0.626500387369    15.994914619560
           H          0.377047477061    -0.711966556479    -2.944045113845     1.007825032070
           H         -0.956323246625     0.972722031211    -3.385659751310     1.007825032070
           H         -1.997550494438    -0.787974932214    -2.184701888106     1.007825032070
           C         -0.046033628687    -0.798238679251     2.453972776808    12.000000000000
           H          0.534566050831     0.060444167818     2.941998555700     1.007825032070
           H          0.523456276970    -1.826884593098     3.284173989202     1.007825032070
           H         -1.616178714468    -0.732283978131     2.521879061958     1.007825032070

  Nuclear repulsion =  144.397899655352120

  ==> Basis Set <==

  Basis Set: CC-PVTZ
    Number of shells: 86
    Number of basis function: 234
    Number of Cartesian functions: 265
    Spherical Harmonics?: true
    Max angular momentum: 3

  ==> DFJKGrad: Density-Fitted SCF Gradients <==

    Gradient:                    1
    J tasked:                  Yes
    K tasked:                  Yes
    wK tasked:                  No
    OpenMP threads:              4
    Integrals threads:           4
    Memory (MB):              1430
    Schwarz Cutoff:          0E+00
    Fitting Condition:       1E-12

   => Auxiliary Basis Set <=

  Basis Set: 
    Number of shells: 185
    Number of basis function: 575
    Number of Cartesian functions: 690
    Spherical Harmonics?: true
    Max angular momentum: 4


  -Total Gradient:
     Atom            X                  Y                   Z
    ------   -----------------  -----------------  -----------------
       1        0.057814479581     0.148359482467     0.070546375236
       2       -0.065654644588    -0.109382580982    -0.073184643550
       3        0.007609690385     0.022536327210     0.030918037940
       4        0.062158280580    -0.032351333986    -0.014320974164
       5        0.084254839642    -0.035111896734    -0.048689706975
       6       -0.020667138018     0.061349158855    -0.088860620461
       7       -0.101695428062    -0.044448313383     0.013365756091
       8        0.009468333065     0.024218242984    -0.006422933075
       9        0.033687421273     0.017528991097     0.033505612415
      10        0.046492948639    -0.057354456793     0.076656472591
      11       -0.113468782495     0.004656379269     0.006486623952


*** tstop() called on cx1-27-2-3 at Sat Sep 10 16:20:48 2016
Module time:
	user time   =      11.88 seconds =       0.20 minutes
	system time =       0.32 seconds =       0.01 minutes
	total time  =          3 seconds =       0.05 minutes
Total time:
	user time   =      67.93 seconds =       1.13 minutes
	system time =       1.75 seconds =       0.03 minutes
	total time  =         20 seconds =       0.33 minutes

			-----------------------------------------
			 OPTKING 2.0: for geometry optimizations 
			  - R.A. King,  Bethel University        
			-----------------------------------------

	Previous internal coordinate definitions found.
	---Fragment 1 Geometry and Gradient---
	 O           0.4915115428        2.7691149779       -0.4392132061
	 C          -0.1364927586        0.6252067859       -1.2095222046
	 C          -1.2917428756       -0.1450947155       -4.4575149323
	 O           1.0185518588       -1.6373155388        1.1839141543
	 H           0.7125164707       -1.3454218075       -5.5634389880
	 H          -1.8071890306        1.8381782424       -6.3979697091
	 H          -3.7748233711       -1.4890568215       -4.1284882505
	 C          -0.0869909511       -1.5084524925        4.6373364857
	 H           1.0101834360        0.1142229235        5.5595715536
	 H           0.9891890060       -3.4523115573        6.2061894123
	 H          -3.0541351521       -1.3838161702        4.7656607674
	             0.0578144796        0.1483594825        0.0705463752
	            -0.0656546446       -0.1093825810       -0.0731846436
	             0.0076096904        0.0225363272        0.0309180379
	             0.0621582806       -0.0323513340       -0.0143209742
	             0.0842548396       -0.0351118967       -0.0486897070
	            -0.0206671380        0.0613491589       -0.0888606205
	            -0.1016954281       -0.0444483134        0.0133657561
	             0.0094683331        0.0242182430       -0.0064229331
	             0.0336874213        0.0175289911        0.0335056124
	             0.0464929486       -0.0573544568        0.0766564726
	            -0.1134687825        0.0046563793        0.0064866240

	---Fragment 1 Intrafragment Coordinates---
	 - Coordinate -           - BOHR/RAD -       - ANG/DEG -
	 R(1,2)           =         2.363072	       1.250484
	 R(2,3)           =         3.532340	       1.869234
	 R(2,4)           =         3.490225	       1.846948
	 R(3,5)           =         2.584745	       1.367788
	 R(3,6)           =         2.822131	       1.493407
	 R(3,7)           =         2.842566	       1.504221
	 R(4,8)           =         3.628355	       1.920043
	 R(8,9)           =         2.165037	       1.145688
	 R(8,10)          =         2.719936	       1.439328
	 R(8,11)          =         2.972532	       1.572996
	 B(1,2,3)         =         2.195059	     125.767622
	 B(1,2,4)         =         1.851086	     106.059417
	 B(2,3,5)         =         1.814288	     103.951054
	 B(2,3,6)         =         2.139711	     122.596431
	 B(2,3,7)         =         1.857050	     106.401154
	 B(2,4,8)         =         2.128023	     121.926734
	 B(3,2,4)         =         2.211078	     126.685434
	 B(4,8,9)         =         1.852132	     106.119326
	 B(4,8,10)        =         1.985643	     113.768991
	 B(4,8,11)        =         1.924869	     110.286884
	 B(5,3,6)         =         1.745468	     100.007926
	 B(5,3,7)         =         2.102866	     120.485342
	 B(6,3,7)         =         1.825857	     104.613928
	 B(9,8,10)        =         1.660348	      95.130935
	 B(9,8,11)        =         2.044332	     117.131623
	 B(10,8,11)       =         1.982326	     113.578922
	 D(1,2,3,5)       =         1.845756	     105.754038
	 D(1,2,3,6)       =        -0.105552	      -6.047658
	 D(1,2,3,7)       =        -2.200398	    -126.073499
	*D(1,2,4,8)       =         1.047198	      60.000011
	 D(2,4,8,9)       =        -1.357169	     -77.760028
	 D(2,4,8,10)      =         3.124173	     179.001904
	 D(2,4,8,11)      =         0.873381	      50.041042
	 D(3,2,4,8)       =        -2.327633	    -133.363520
	 D(4,2,3,5)       =        -1.018560	     -58.359176
	 D(4,2,3,6)       =        -2.969867	    -170.160872
	 D(4,2,3,7)       =         1.218472	      69.813287

	Current energy   :      -266.3579725178

	Energy change for the previous step:
		Projected    :        -0.1278467124
		Actual       :         0.2703310737

	Performing BFGS update.
	Previous computed or guess Hessian on step 1.
	Change in internal coordinate of 9.92e-01 exceeds limit of 5.00e-01.
	 Skipping Hessian update for step 1.
	Steps to be used in Hessian update: 2
	Taking RFO optimization step.
	Going to follow RFO solution 1.
	Using RFO vector 1.

	Determining step-restricting scale parameter for RS-RFO.
	Maximum step size allowed    0.50000

	 Iter      |step|        alpha        rfo_root  
	------------------------------------------------
	    0     0.93397       1.00000           1
	    1     0.67280       1.94737           1
	    2     0.54703       2.96103           1
	    3     0.50534       3.47630           1
	    4     0.50008       3.55068           1
	    5     0.50000       3.55189           1
	------------------------------------------------
	Norm of target step-size    0.50000
	Projected energy change by RFO approximation:        -0.1465627029

	Back-transformation to cartesian coordinates...
	Could not converge backtransformation.
	Using first guess instead.

	Back-transformation to cartesian coordinates to adjust frozen coordinates...
	Successfully converged to displaced geometry.

	--- Internal Coordinate Step in ANG or DEG, aJ/ANG or AJ/DEG ---
	 ---------------------------------------------------------------------------
	   Coordinate                Previous        Force       Change         New 
	   ----------                --------       ------       ------       ------
	    1 R(1,2)          =      1.250484    -1.424978     0.038033     1.288516
	    2 R(2,3)          =      1.869234    -0.780948     0.157278     2.026512
	    3 R(2,4)          =      1.846948    -0.877631    -0.021043     1.825905
	    4 R(3,5)          =      1.367788    -0.844230     0.102463     1.470251
	    5 R(3,6)          =      1.493407    -0.889679    -0.043640     1.449767
	    6 R(3,7)          =      1.504221    -0.917766     0.016741     1.520962
	    7 R(4,8)          =      1.920043    -0.920928     0.090137     2.010180
	    8 R(8,9)          =      1.145688    -0.366474     0.079966     1.225654
	    9 R(8,10)         =      1.439328    -0.853535    -0.013909     1.425419
	   10 R(8,11)         =      1.572996    -0.937059     0.090357     1.663354
	   11 B(1,2,3)        =    125.767622     0.000066     2.585163   128.352786
	   12 B(1,2,4)        =    106.059417     0.003479    -1.157080   104.902337
	   13 B(2,3,5)        =    103.951054     0.000436     0.672478   104.623532
	   14 B(2,3,6)        =    122.596431    -0.003107    -0.860803   121.735628
	   15 B(2,3,7)        =    106.401154     0.000520     1.830871   108.232024
	   16 B(2,4,8)        =    121.926734    -0.003315    -4.845241   117.081493
	   17 B(3,2,4)        =    126.685434    -0.003558    -1.629122   125.056312
	   18 B(4,8,9)        =    106.119326    -0.000494     4.110712   110.230038
	   19 B(4,8,10)       =    113.768991    -0.002208    -4.922653   108.846337
	   20 B(4,8,11)       =    110.286884    -0.000202    -0.724379   109.562505
[...]

  ==> Geometry <==

    Molecular point group: c1
    Full point group: C1

    Geometry (in Angstrom), charge = 0, multiplicity = 1:

       Center              X                  Y                   Z               Mass       
    ------------   -----------------  -----------------  -----------------  -----------------
           O         -0.350868367260     0.635461301615    -1.249074880151    15.994914619560
           C          0.241635296763     0.035319112373    -0.426821356083    12.000000000000
           C          1.321875187642    -0.966624524269    -0.712888386436    12.000000000000
           O          0.079936870122     0.251329125275     0.888230104335    15.994914619560
           H          2.230586579379    -0.666710260698    -0.206568855151     1.007825032070
           H          1.489084767542    -1.040424364050    -1.775264085104     1.007825032070
           H          1.032404668347    -1.931335332898    -0.312796984042     1.007825032070
           C         -1.214648575363     0.053807368856     1.418345824683    12.000000000000
           H         -1.940372177838     0.665967005442     0.903174279521     1.007825032070
           H         -1.168771374541     0.336674960181     2.457121867868     1.007825032070
           H         -1.496891978396    -0.989960741920     1.343530132294     1.007825032070

  Nuclear repulsion =  182.835807456708181

  ==> Basis Set <==

  Basis Set: CC-PVTZ
    Number of shells: 86
    Number of basis function: 234
    Number of Cartesian functions: 265
    Spherical Harmonics?: true
    Max angular momentum: 3

  ==> DFJKGrad: Density-Fitted SCF Gradients <==

    Gradient:                    1
    J tasked:                  Yes
    K tasked:                  Yes
    wK tasked:                  No
    OpenMP threads:              4
    Integrals threads:           4
    Memory (MB):              1430
    Schwarz Cutoff:          0E+00
    Fitting Condition:       1E-12

   => Auxiliary Basis Set <=

  Basis Set: 
    Number of shells: 185
    Number of basis function: 575
    Number of Cartesian functions: 690
    Spherical Harmonics?: true
    Max angular momentum: 4


  -Total Gradient:
     Atom            X                  Y                   Z
    ------   -----------------  -----------------  -----------------
       1        0.006466001237     0.005150253250    -0.000255725153
       2       -0.008374239335    -0.010597408195     0.001047348978
       3       -0.000361706569    -0.000122464137    -0.000329348746
       4        0.000719237135     0.012198552480    -0.001801481390
       5        0.000095576720     0.000014938586     0.000121951580
       6       -0.000024982877    -0.000023741543    -0.000037863266
       7        0.000028861115    -0.000042377806     0.000028220502
       8        0.001292699299    -0.006439409210     0.001363457654
       9        0.000095413177    -0.000015181545     0.000024767607
      10        0.000075580515    -0.000043408781    -0.000142678509
      11       -0.000012440416    -0.000079753099    -0.000018649253


*** tstop() called on cx1-27-2-3 at Sat Sep 10 16:25:50 2016
Module time:
	user time   =      11.10 seconds =       0.19 minutes
	system time =       0.27 seconds =       0.00 minutes
	total time  =          3 seconds =       0.05 minutes
Total time:
	user time   =    1136.09 seconds =      18.93 minutes
	system time =      26.92 seconds =       0.45 minutes
	total time  =        322 seconds =       5.37 minutes

			-----------------------------------------
			 OPTKING 2.0: for geometry optimizations 
			  - R.A. King,  Bethel University        
			-----------------------------------------

	Previous internal coordinate definitions found.
	---Fragment 1 Geometry and Gradient---
	 O          -0.6630451228        1.2008478281       -2.3604094430
	 C           0.4566245349        0.0667434496       -0.8065754707
	 C           2.4979820865       -1.8266556242       -1.3471638137
	 O           0.1510587925        0.4749432160        1.6785116402
	 H           4.2151977507       -1.2598998027       -0.3903585638
	 H           2.8139623993       -1.9661171100       -3.3547629344
	 H           1.9509620815       -3.6496948499       -0.5911006350
	 C          -2.2953531551        0.1016811911        2.6802851704
	 H          -3.6667720120        1.2584952538        1.7067520386
	 H          -2.2086578098        0.6362234705        4.6432874054
	 H          -2.8287158897       -1.8707546845        2.5389040013
	             0.0064660012        0.0051502532       -0.0002557252
	            -0.0083742393       -0.0105974082        0.0010473490
	            -0.0003617066       -0.0001224641       -0.0003293487
	             0.0007192371        0.0121985525       -0.0018014814
	             0.0000955767        0.0000149386        0.0001219516
	            -0.0000249829       -0.0000237415       -0.0000378633
	             0.0000288611       -0.0000423778        0.0000282205
	             0.0012926993       -0.0064394092        0.0013634577
	             0.0000954132       -0.0000151815        0.0000247676
	             0.0000755805       -0.0000434088       -0.0001426785
	            -0.0000124404       -0.0000797531       -0.0000186493

	---Fragment 1 Intrafragment Coordinates---
	 - Coordinate -           - BOHR/RAD -       - ANG/DEG -
	 R(1,2)           =         2.225815	       1.177851
	 R(2,3)           =         2.836254	       1.500881
	 R(2,4)           =         2.536859	       1.342448
	 R(3,5)           =         2.045854	       1.082619
	 R(3,6)           =         2.037093	       1.077983
	 R(3,7)           =         2.048007	       1.083759
	 R(4,8)           =         2.669795	       1.412795
	 R(8,9)           =         2.041268	       1.080193
	 R(8,10)          =         2.036327	       1.077578
	 R(8,11)          =         2.048162	       1.083841
	 B(1,2,3)         =         2.176257	     124.690344
	 B(1,2,4)         =         2.142746	     122.770312
	 B(2,3,5)         =         1.907150	     109.271634
	 B(2,3,6)         =         1.923230	     110.192983
	 B(2,3,7)         =         1.908833	     109.368048
	 B(2,4,8)         =         2.043666	     117.093452
	 B(3,2,4)         =         1.961479	     112.384447
	 B(4,8,9)         =         1.936329	     110.943467
	 B(4,8,10)        =         1.860847	     106.618696
	 B(4,8,11)        =         1.925551	     110.325969
	 B(5,3,6)         =         1.928024	     110.467616
	 B(5,3,7)         =         1.873535	     107.345639
	 B(6,3,7)         =         1.922305	     110.139984
	 B(9,8,10)        =         1.917279	     109.851998
	 B(9,8,11)        =         1.915463	     109.747965
	 B(10,8,11)       =         1.907552	     109.294705
	 D(1,2,3,5)       =         2.142143	     122.735734
	 D(1,2,3,6)       =         0.020640	       1.182611
	 D(1,2,3,7)       =        -2.094854	    -120.026286
	*D(1,2,4,8)       =         1.047198	      60.000011
	 D(2,4,8,9)       =        -0.987597	     -56.585116
	 D(2,4,8,10)      =        -3.074730	    -176.169072
	 D(2,4,8,11)      =         1.138953	      65.257183
	 D(3,2,4,8)       =        -2.169996	    -124.331598
	 D(4,2,3,5)       =        -0.922135	     -52.834439
	 D(4,2,3,6)       =        -3.043637	    -174.387563
	 D(4,2,3,7)       =         1.124054	      64.403540

	Current energy   :      -266.9253944124

	Energy change for the previous step:
		Projected    :        -0.0000013649
		Actual       :         0.0000012928

	Performing BFGS update.
	Previous computed or guess Hessian on step 1.
	Steps to be used in Hessian update: 49 48
	Taking RFO optimization step.
	Going to follow RFO solution 1.
	Rejecting RFO root 1 because normalization gives large value.
	Using RFO vector 2.
	Norm of target step-size    0.00416
	Projected energy change by RFO approximation:        -0.0000025115

	Back-transformation to cartesian coordinates...
	Could not converge backtransformation.
	Using first guess instead.

	Back-transformation to cartesian coordinates to adjust frozen coordinates...
	Successfully converged to displaced geometry.

	--- Internal Coordinate Step in ANG or DEG, aJ/ANG or AJ/DEG ---
	 ---------------------------------------------------------------------------
	   Coordinate                Previous        Force       Change         New 
	   ----------                --------       ------       ------       ------
	    1 R(1,2)          =      1.177851     0.003707     0.000019     1.177869
	    2 R(2,3)          =      1.500881     0.000259    -0.000112     1.500769
	    3 R(2,4)          =      1.342448    -0.000660     0.000188     1.342636
	    4 R(3,5)          =      1.082619    -0.001165    -0.000066     1.082553
	    5 R(3,6)          =      1.077983    -0.000289    -0.000059     1.077924
	    6 R(3,7)          =      1.083759    -0.000333    -0.000008     1.083750
	    7 R(4,8)          =      1.412795    -0.000413    -0.000129     1.412665
	    8 R(8,9)          =      1.080193     0.000696     0.000191     1.080383
	    9 R(8,10)         =      1.077578     0.001201     0.000278     1.077856
	   10 R(8,11)         =      1.083841    -0.000670     0.000019     1.083860
	   11 B(1,2,3)        =    124.690344     0.000044     0.143660   124.834004
	   12 B(1,2,4)        =    122.770312    -0.000042    -0.114797   122.655514
	   13 B(2,3,5)        =    109.271634     0.000002    -0.018265   109.253369
	   14 B(2,3,6)        =    110.192983     0.000000     0.007510   110.200493
	   15 B(2,3,7)        =    109.368048    -0.000003     0.001056   109.369103
	   16 B(2,4,8)        =    117.093452     0.000005     0.019769   117.113222
	   17 B(3,2,4)        =    112.384447    -0.000004    -0.029104   112.355344
	   18 B(4,8,9)        =    110.943467     0.000004     0.015414   110.958881
	   19 B(4,8,10)       =    106.618696     0.000008     0.023175   106.641871
	   20 B(4,8,11)       =    110.325969    -0.000001     0.010980   110.336949
	   21 B(5,3,6)        =    110.467616    -0.000003    -0.005734   110.461881
	   22 B(5,3,7)        =    107.345639     0.000003     0.012468   107.358107
	   23 B(6,3,7)        =    110.139984     0.000001     0.002883   110.142867
	   24 B(9,8,10)       =    109.851998    -0.000005    -0.007428   109.844570
	   25 B(9,8,11)       =    109.747965    -0.000003    -0.022293   109.725672
	   26 B(10,8,11)      =    109.294705    -0.000003    -0.019191   109.275513
	   27 D(1,2,3,5)      =    122.735734    -0.000003    -0.063179   122.672555
	   28 D(1,2,3,6)      =      1.182611    -0.000003    -0.049037     1.133574
	   29 D(1,2,3,7)      =   -120.026286    -0.000003    -0.058051  -120.084337
	   30 *D(1,2,4,8)     =     60.000011     0.000000     0.000000    60.000011
	   31 D(2,4,8,9)      =    -56.585116     0.000001    -0.005493   -56.590609
	   32 D(2,4,8,10)     =   -176.169072     0.000001    -0.019294  -176.188366
	   33 D(2,4,8,11)     =     65.257183     0.000000    -0.015835    65.241348
	   34 D(3,2,4,8)      =   -124.331598    -0.000005     0.003653  -124.327945
	   35 D(4,2,3,5)      =    -52.834439     0.000002    -0.053469   -52.887909
	   36 D(4,2,3,6)      =   -174.387563     0.000003    -0.039327  -174.426890
	   37 D(4,2,3,7)      =     64.403540     0.000003    -0.048341    64.355199
	 ---------------------------------------------------------------------------
	Successfully symmetrized geometry.

  ==> Convergence Check <==

  Measures of convergence in internal coordinates in au.
  Criteria marked as inactive (o), active & met (*), and active & unmet ( ).
  ---------------------------------------------------------------------------------------------
   Step     Total Energy     Delta E     MAX Force     RMS Force      MAX Disp      RMS Disp   
  ---------------------------------------------------------------------------------------------
    Convergence Criteria    1.00e-06 *    3.00e-04 *             o    1.20e-03 *             o
  ---------------------------------------------------------------------------------------------
     50    -266.92539441    1.29e-06      5.79e-04      1.79e-04 o    2.51e-03      6.84e-04 o  ~
  ---------------------------------------------------------------------------------------------


  **** Optimization has failed! (in 50 steps) ****

  ==> Optimization Summary <==

  Measures of convergence in internal coordinates in au.
  --------------------------------------------------------------------------------------------------------------- ~
   Step         Total Energy             Delta E       MAX Force       RMS Force        MAX Disp        RMS Disp  ~
  --------------------------------------------------------------------------------------------------------------- ~
      1    -266.924371836637   -266.924371836637      0.01777750      0.00379920      0.64134870      0.26543029  ~
      2    -266.628303591468      0.296068245169      0.13576005      0.05434403      0.39080887      0.14750343  ~
      3    -266.357972517768      0.270331073699      0.17296105      0.06029824      0.29721322      0.08917687  ~
      4    -266.261516028547      0.096456489221      0.20562954      0.06373372      0.35949266      0.10673922  ~
      5    -266.108766328634      0.152749699913      0.23103216      0.06546413      0.15654257      0.07091755  ~
      6    -266.264379250236     -0.155612921602      0.19016887      0.06164846      0.26143059      0.10000854  ~
      7    -266.149477374283      0.114901875953      0.10945198      0.05289981      0.24895530      0.07860089  ~
      8    -266.048831458471      0.100645915812      0.10738326      0.04970517      0.28991281      0.08071472  ~
      9    -265.976453744831      0.072377713640      0.10394548      0.04568751      0.28175420      0.08887516  ~
     10    -265.913932371235      0.062521373596      0.13130659      0.04131115      0.37528420      0.09017445  ~
     11    -265.893274439935      0.020657931299      0.11123123      0.03631975      0.44132036      0.16451526  ~
     12    -266.041106289913     -0.147831849977      0.10412635      0.03988305      0.20697441      0.07493078  ~
     13    -266.076803859305     -0.035697569392      0.09569041      0.03136303      0.40195524      0.13521644  ~
     14    -266.209682798130     -0.132878938825      0.11054934      0.03842209      0.59079187      0.13953506  ~
     15    -265.501394448555      0.708288349575      3.30750881      0.54495235      0.69338572      0.11746588  ~
     16    -266.227961409962     -0.726566961407      0.10806766      0.03766083      0.46124417      0.15947733  ~
     17    -266.436596567729     -0.208635157767      0.11478036      0.03968598      0.42120534      0.17138289  ~
     18    -266.352136936017      0.084459631712      0.17870644      0.05728052      0.49405723      0.14096786  ~
     19    -266.428292140375     -0.076155204358      0.12914216      0.04735591      0.35648445      0.10290019  ~
     20    -266.524931371000     -0.096639230625      0.11056878      0.04052598      0.39036507      0.12952945  ~
     21    -266.569502790555     -0.044571419555      0.12119882      0.04352020      0.46116598      0.16399590  ~
     22    -266.563985062146      0.005517728410      0.17924456      0.04648476      0.18315155      0.07062799  ~
     23    -266.632896102442     -0.068911040296      0.16305569      0.04152247      0.45841113      0.10970652  ~
     24    -266.740156920432     -0.107260817990      0.08714154      0.02971419      0.40057089      0.11005930  ~
     25    -266.788749669460     -0.048592749028      0.12729684      0.02654896      0.11846654      0.04482434  ~
     26    -266.799077188363     -0.010327518903      0.05388784      0.01680263      0.14919246      0.05288407  ~
     27    -266.806950177315     -0.007872988952      0.06115061      0.01786039      0.15639755      0.05729282  ~
     28    -266.816388799942     -0.009438622627      0.06989200      0.01901739      0.16630604      0.04449704  ~
     29    -266.827931352570     -0.011542552628      0.07560359      0.02043366      0.33384773      0.07398874  ~
     30    -266.840021290963     -0.012089938392      0.09775741      0.02952835      0.26167329      0.05915721  ~
     31    -266.869531632636     -0.029510341673      0.11729133      0.02801387      0.46023064      0.08817807  ~
     32    -266.889151494577     -0.019619861941      0.13967307      0.02879344      0.17362514      0.05833842  ~
     33    -266.896379026440     -0.007227531864      0.06183686      0.02220438      0.10212698      0.03279230  ~
     34    -266.911448790989     -0.015069764549      0.04632371      0.01650845      0.13102550      0.04103326  ~
     35    -266.923673471610     -0.012224680621      0.01564402      0.00488289      0.14569260      0.04095594  ~
     36    -266.921560579863      0.002112891747      0.03115712      0.00761456      0.12072890      0.03556002  ~
     37    -266.924991132646     -0.003430552783      0.01175839      0.00244454      0.11448085      0.05675736  ~
     38    -266.906728578085      0.018262554561      0.10561038      0.02248193      0.10862025      0.04371191  ~
     39    -266.924964069942     -0.018235491857      0.01004275      0.00240048      0.05903801      0.01745227  ~
     40    -266.925190033921     -0.000225963979      0.00273395      0.00114101      0.02846809      0.01008480  ~
     41    -266.925276645150     -0.000086611229      0.00341309      0.00085818      0.02558453      0.00770889  ~
     42    -266.925324413760     -0.000047768610      0.00151336      0.00050691      0.02685055      0.00770784  ~
     43    -266.925358405847     -0.000033992087      0.00077778      0.00029226      0.02679642      0.00770884  ~
     44    -266.925379056212     -0.000020650365      0.00047523      0.00017854      0.02693437      0.00770603  ~
     45    -266.925391017729     -0.000011961517      0.00021272      0.00009352      0.03518632      0.01019755  ~
     46    -266.925396117369     -0.000005099640      0.00030867      0.00011168      0.00332747      0.00121222  ~
     47    -266.925395608044      0.000000509326      0.00032547      0.00012271      0.00916686      0.00253897  ~
     48    -266.925395700666     -0.000000092622      0.00049629      0.00012968      0.00222968      0.00082093  ~
     49    -266.925395705106     -0.000000004440      0.00032399      0.00012330      0.00405428      0.00144569  ~
     50    -266.925394412351      0.000001292755      0.00057897      0.00017920      0.00250734      0.00068397  ~
  --------------------------------------------------------------------------------------------------------------- ~

	Writing optimization data to binary file.
			--------------------------
			 OPTKING Finished Execution 
			--------------------------

    Structure for next step:
    Molecular point group: c1
    Full point group: C1

    Geometry (in Angstrom), charge = 0, multiplicity = 1:

    O           -0.351594064928     0.636580205248    -1.248050186313
    C            0.241886939118     0.035055437040    -0.427486995486
    C            1.322061199151    -0.967008305170    -0.712793376171
    O            0.080048392254     0.250947653744     0.887758252663
    H            2.230607998284    -0.666338786776    -0.206767125319
    H            1.489393614225    -1.041650205904    -1.775031352634
    H            1.032675462350    -1.931401902995    -0.311899343201
    C           -1.214326380461     0.053606986308     1.418111116373
    H           -1.940402003825     0.665968323103     0.903275511930
    H           -1.168497596863     0.336068947774     2.457288241608
    H           -1.497036967305    -0.990043620616     1.343145431648

	Optimizer: Did not converge!	Cleaning optimization helper files.
An error has occurred python-side. Traceback (most recent call last):

  File "<string>", line 45, in <module>

TypeError: 'NoneType' object is not iterable


