    -----------------------------------------------------------------------
          Psi4: An Open-Source Ab Initio Electronic Structure Package
                              Psi4 1.0.54 Driver

                          Git: Rev {master} 8d4cec3 dirty

    J. M. Turney, A. C. Simmonett, R. M. Parrish, E. G. Hohenstein,
    F. A. Evangelista, J. T. Fermann, B. J. Mintz, L. A. Burns, J. J. Wilke,
    M. L. Abrams, N. J. Russ, M. L. Leininger, C. L. Janssen, E. T. Seidl,
    W. D. Allen, H. F. Schaefer, R. A. King, E. F. Valeev, C. D. Sherrill,
    and T. D. Crawford, WIREs Comput. Mol. Sci. 2, 556-565 (2012)
    (doi: 10.1002/wcms.93)

                         Additional Contributions by
    A. E. DePrince, U. Bozkaya, A. Yu. Sokolov, D. G. A. Smith, R. Di Remigio,
    R. M. Richard, J. F. Gonthier, H. R. McAlexander, M. Saitow, and
    B. P. Pritchard
    -----------------------------------------------------------------------


    Psi4 started on: Sat Sep 10 16:22:34 2016

    Process ID:  35197
    PSI4DATADIR: /export131/home/mjharvey/miniconda3/share/psi4
    Memory level set to 256.000 MB

  ==> Input File <==

--------------------------------------------------------------------------
set {
	reference rhf
	basis cc-pvtz
}


set_num_threads( 4 )
memory 2 gb

molecule MOL {
0 1

H	 -2.816458	 -0.841657	 -0.064679
N	 -1.878861	 -0.711874	 0.250184
C	 -1.341419	 0.551458	 -0.220231
H	 -1.333674	 -1.468530	 -0.105118
C	 0.020335	 0.348694	 -0.844058
H	 -1.981173	 1.050888	 -0.946749
H	 -1.229811	 1.218447	 0.627543
O	 -0.121387	 -0.437110	 -1.988669
H	 0.455123	 1.312889	 -1.103788
H	 0.679494	 -0.141629	 -0.131302
C	 1.073844	 -0.755337	 -2.620630
H	 0.841694	 -1.357721	 -3.487017
H	 1.600906	 0.138412	 -2.947911
H	 1.731597	 -1.321940	 -1.965737

	symmetry c1
}
set optking {
	frozen_dihedral = ("
		6 3 2 4
	")
}

ee,wfn = optimize('scf', return_wfn=True)
oeprop( wfn, 'DIPOLE', 'QUADRUPOLE', 'MULLIKEN_CHARGES')
f=open( 'psi4out.xyz', 'w' )
f.write( "14  " )
f.write( str(ee) + "\n" )
f.write( MOL.save_string_xyz() )
f.close()
--------------------------------------------------------------------------

  Memory set to   2.000 GiB by Python script.
gradient() will perform analytic gradient computation.

*** tstart() called on cx1-27-2-3
*** at Sat Sep 10 16:22:34 2016


         ---------------------------------------------------------
                                   SCF
            by Justin Turney, Rob Parrish, and Andy Simmonett
                              RHF Reference
                        4 Threads,   2000 MiB Core
         ---------------------------------------------------------

  ==> Geometry <==

    Molecular point group: c1
    Full point group: C1

    Geometry (in Angstrom), charge = 0, multiplicity = 1:

       Center              X                  Y                   Z               Mass       
    ------------   -----------------  -----------------  -----------------  -----------------
           H         -2.373040536882    -0.619938417684     1.037359181421     1.007825032070
           N         -1.435443536882    -0.490155417684     1.352222181421    14.003074004780
           C         -0.898001536882     0.773176582316     0.881807181421    12.000000000000
           H         -0.890256536882    -1.246811417684     0.996920181421     1.007825032070
           C          0.463752463118     0.570412582316     0.257980181421    12.000000000000
           H         -1.537755536882     1.272606582316     0.155289181421     1.007825032070
           H         -0.786393536882     1.440165582316     1.729581181421     1.007825032070
           O          0.322030463118    -0.215391417684    -0.886630818579    15.994914619560
           H          0.898540463118     1.534607582316    -0.001749818579     1.007825032070
           H          1.122911463118     0.080089582316     0.970736181421     1.007825032070
           C          1.517261463118    -0.533618417684    -1.518591818579    12.000000000000
           H          1.285111463118    -1.136002417684    -2.384978818579     1.007825032070
           H          2.044323463118     0.360130582316    -1.845872818579     1.007825032070
           H          2.175014463118    -1.100221417684    -0.863698818579     1.007825032070

  Running in c1 symmetry.

  Rotational constants: A =      0.43009  B =      0.09138  C =      0.08259 [cm^-1]
  Rotational constants: A =  12893.70627  B =   2739.48506  C =   2476.12630 [MHz]
  Nuclear repulsion =  195.236518997860202

  Charge       = 0
  Multiplicity = 1
  Electrons    = 42
  Nalpha       = 21
  Nbeta        = 21

  ==> Algorithm <==

  SCF Algorithm Type is DF.
  DIIS enabled.
  MOM disabled.
  Fractional occupation disabled.
  Guess Type is SAD.
  Energy threshold   = 1.00e-08
  Density threshold  = 1.00e-08
  Integral threshold = 0.00e+00

  ==> Primary Basis <==

  Basis Set: CC-PVTZ
    Number of shells: 104
    Number of basis function: 276
    Number of Cartesian functions: 310
    Spherical Harmonics?: true
    Max angular momentum: 3

  ==> Pre-Iterations <==

   -------------------------------------------------------
    Irrep   Nso     Nmo     Nalpha   Nbeta   Ndocc  Nsocc
   -------------------------------------------------------
     A        276     276       0       0       0       0
   -------------------------------------------------------
    Total     276     276      21      21      21       0
   -------------------------------------------------------

  ==> Integral Setup <==

  ==> DFJK: Density-Fitted J/K Matrices <==

    J tasked:                  Yes
    K tasked:                  Yes
    wK tasked:                  No
    OpenMP threads:              4
    Integrals threads:           4
    Memory (MB):              1430
    Algorithm:                Core
    Integral Cache:           NONE
    Schwarz Cutoff:          1E-12
    Fitting Condition:       1E-12

   => Auxiliary Basis Set <=

  Basis Set: 
    Number of shells: 215
    Number of basis function: 665
    Number of Cartesian functions: 795
    Spherical Harmonics?: true
    Max angular momentum: 4

  Minimum eigenvalue in the overlap matrix is 4.8723398703E-04.
  Using Symmetric Orthogonalization.
  SCF Guess: Superposition of Atomic Densities via on-the-fly atomic UHF.

  ==> Iterations <==

                           Total Energy        Delta E     RMS |[F,P]|

   @DF-RHF iter   0:  -250.19952601663434   -2.50200e+02   1.60221e-02 
   @DF-RHF iter   1:  -248.09602530125167    2.10350e+00   1.58371e-03 
   @DF-RHF iter   2:  -248.20093556802865   -1.04910e-01   7.15231e-04 DIIS
   @DF-RHF iter   3:  -248.21756887712334   -1.66333e-02   2.66982e-04 DIIS
   @DF-RHF iter   4:  -248.22101064719939   -3.44177e-03   5.61790e-05 DIIS
   @DF-RHF iter   5:  -248.22125829287737   -2.47646e-04   2.14179e-05 DIIS
   @DF-RHF iter   6:  -248.22129097681071   -3.26839e-05   6.69274e-06 DIIS
   @DF-RHF iter   7:  -248.22129419626972   -3.21946e-06   1.63370e-06 DIIS
   @DF-RHF iter   8:  -248.22129441246912   -2.16199e-07   5.35738e-07 DIIS
   @DF-RHF iter   9:  -248.22129443095903   -1.84899e-08   1.33780e-07 DIIS
   @DF-RHF iter  10:  -248.22129443241832   -1.45928e-09   3.57014e-08 DIIS
   @DF-RHF iter  11:  -248.22129443249551   -7.71934e-11   1.01877e-08 DIIS
   @DF-RHF iter  12:  -248.22129443250358   -8.07177e-12   2.53087e-09 DIIS

  ==> Post-Iterations <==

    Orbital Energies (a.u.)
    -----------------------

    Doubly Occupied:                                                      

       1A    -20.554400     2A    -15.520434     3A    -11.269041  
       4A    -11.267122     5A    -11.239103     6A     -1.388803  
       7A     -1.175573     8A     -1.001640     9A     -0.910220  
      10A     -0.821338    11A     -0.692186    12A     -0.669399  
      13A     -0.654426    14A     -0.624839    15A     -0.586578  
      16A     -0.552088    17A     -0.536037    18A     -0.503518  
      19A     -0.472356    20A     -0.424919    21A     -0.380692  

    Virtual:                                                              

      22A      0.141691    23A      0.160814    24A      0.173784  
      25A      0.187061    26A      0.210265    27A      0.224258  
      28A      0.232093    29A      0.244162    30A      0.255691  
      31A      0.272900    32A      0.326269    33A      0.350839  
      34A      0.360536    35A      0.389836    36A      0.401226  
      37A      0.488191    38A      0.498340    39A      0.515535  
      40A      0.537762    41A      0.570352    42A      0.571500  
      43A      0.581817    44A      0.590260    45A      0.610702  
      46A      0.630825    47A      0.633224    48A      0.639541  
      49A      0.643244    50A      0.649390    51A      0.668423  
      52A      0.689142    53A      0.696194    54A      0.718953  
      55A      0.724050    56A      0.734754    57A      0.764282  
      58A      0.776413    59A      0.815832    60A      0.838361  
      61A      0.883383    62A      0.896554    63A      0.938545  
      64A      0.967622    65A      1.028096    66A      1.034407  
      67A      1.075289    68A      1.085207    69A      1.125085  
      70A      1.127248    71A      1.175934    72A      1.182022  
      73A      1.193640    74A      1.207550    75A      1.217014  
      76A      1.229795    77A      1.265871    78A      1.274431  
      79A      1.298503    80A      1.321847    81A      1.334503  
      82A      1.358048    83A      1.363127    84A      1.380191  
      85A      1.412209    86A      1.421715    87A      1.445969  
      88A      1.458137    89A      1.468682    90A      1.495930  
      91A      1.514341    92A      1.534398    93A      1.562091  
      94A      1.572310    95A      1.584805    96A      1.605137  
      97A      1.615084    98A      1.639668    99A      1.654582  
     100A      1.687645   101A      1.758645   102A      1.776130  
     103A      1.809956   104A      1.856195   105A      1.884722  
     106A      1.925476   107A      1.974841   108A      2.039721  
     109A      2.069533   110A      2.114868   111A      2.222632  
     112A      2.243722   113A      2.339284   114A      2.356457  
     115A      2.473864   116A      2.506161   117A      2.608109  
     118A      2.611674   119A      2.646042   120A      2.677464  
     121A      2.700391   122A      2.771342   123A      2.803397  
     124A      2.824177   125A      2.845987   126A      2.909574  
     127A      2.927954   128A      2.970210   129A      3.014471  
     130A      3.045606   131A      3.073323   132A      3.106591  
     133A      3.121139   134A      3.134348   135A      3.149194  
     136A      3.173898   137A      3.205430   138A      3.227888  
     139A      3.243379   140A      3.262720   141A      3.281636  
     142A      3.289433   143A      3.320837   144A      3.325603  
     145A      3.353161   146A      3.360358   147A      3.413443  
     148A      3.430362   149A      3.444351   150A      3.450215  
     151A      3.469806   152A      3.492519   153A      3.507627  
     154A      3.513992   155A      3.570586   156A      3.580087  
     157A      3.611912   158A      3.622622   159A      3.654502  
     160A      3.660405   161A      3.675013   162A      3.718523  
     163A      3.725908   164A      3.736329   165A      3.755355  
     166A      3.762360   167A      3.776781   168A      3.793837  
     169A      3.807605   170A      3.835992   171A      3.870617  
     172A      3.884187   173A      3.894415   174A      3.925430  
     175A      3.933447   176A      3.950793   177A      3.997027  
     178A      4.012634   179A      4.032616   180A      4.051311  
     181A      4.066401   182A      4.084219   183A      4.118584  
     184A      4.152400   185A      4.172007   186A      4.175789  
     187A      4.203783   188A      4.224608   189A      4.260389  
     190A      4.286187   191A      4.310781   192A      4.323091  
     193A      4.330883   194A      4.349057   195A      4.369298  
     196A      4.375330   197A      4.392179   198A      4.405008  
     199A      4.428335   200A      4.435955   201A      4.465559  
     202A      4.492935   203A      4.513758   204A      4.541232  
     205A      4.574726   206A      4.632932   207A      4.646858  
     208A      4.661205   209A      4.682201   210A      4.735443  
     211A      4.743628   212A      4.776812   213A      4.812421  
     214A      4.848235   215A      4.879606   216A      4.896329  
     217A      4.962358   218A      5.016117   219A      5.038817  
     220A      5.057696   221A      5.108997   222A      5.163513  
     223A      5.203531   224A      5.213965   225A      5.244702  
     226A      5.290923   227A      5.308583   228A      5.337124  
     229A      5.368178   230A      5.382478   231A      5.415631  
     232A      5.456141   233A      5.487268   234A      5.511499  
     235A      5.529875   236A      5.584067   237A      5.617048  
     238A      5.633298   239A      5.667423   240A      5.700635  
     241A      5.749989   242A      5.774238   243A      5.816754  
     244A      5.836552   245A      5.885629   246A      5.897973  
     247A      5.928574   248A      5.965655   249A      6.059734  
     250A      6.133238   251A      6.155909   252A      6.209276  
     253A      6.235240   254A      6.254112   255A      6.313743  
     256A      6.338091   257A      6.407430   258A      6.418983  
     259A      6.520324   260A      6.583256   261A      6.633197  
     262A      6.741631   263A      6.775008   264A      6.887554  
     265A      6.974368   266A      7.310652   267A      7.370418  
     268A      7.388460   269A      7.564980   270A      7.895252  
     271A      7.922930   272A     11.462323   273A     12.788233  
     274A     13.563966   275A     14.017149   276A     14.310846  

    Final Occupation by Irrep:
              A 
    DOCC [    21 ]

  Energy converged.

  @DF-RHF Final Energy:  -248.22129443250358

   => Energetics <=

    Nuclear Repulsion Energy =            195.2365189978602018
    One-Electron Energy =                -724.4262076427025931
    Two-Electron Energy =                 280.9683942123389215
    DFT Exchange-Correlation Energy =       0.0000000000000000
    Empirical Dispersion Energy =           0.0000000000000000
    PCM Polarization Energy =               0.0000000000000000
    EFP Energy =                            0.0000000000000000
    Total Energy =                       -248.2212944325034414


  Saving occupied orbitals to File 180.

*** tstop() called on cx1-27-2-3 at Sat Sep 10 16:22:39 2016
Module time:
	user time   =      14.69 seconds =       0.24 minutes
	system time =       0.42 seconds =       0.01 minutes
	total time  =          5 seconds =       0.08 minutes
Total time:
	user time   =      14.69 seconds =       0.24 minutes
	system time =       0.42 seconds =       0.01 minutes
	total time  =          5 seconds =       0.08 minutes


Properties will be evaluated at   0.000000,   0.000000,   0.000000 Bohr

Properties computed using the SCF density matrix

  Nuclear Dipole Moment: (a.u.)
     X:     1.8230      Y:     0.5485      Z:    -0.2017

  Electronic Dipole Moment: (a.u.)
     X:    -1.3898      Y:    -0.4238      Z:    -0.2078

  Dipole Moment: (a.u.)
     X:     0.4332      Y:     0.1247      Z:    -0.4095     Total:     0.6090

  Dipole Moment: (Debye)
     X:     1.1010      Y:     0.3169      Z:    -1.0409     Total:     1.5479


*** tstart() called on cx1-27-2-3
*** at Sat Sep 10 16:22:39 2016


         ------------------------------------------------------------
                                   SCF GRAD                          
                          Rob Parrish, Justin Turney,                
                       Andy Simmonett, and Alex Sokolov              
         ------------------------------------------------------------

  ==> Geometry <==

    Molecular point group: c1
    Full point group: C1

    Geometry (in Angstrom), charge = 0, multiplicity = 1:

       Center              X                  Y                   Z               Mass       
    ------------   -----------------  -----------------  -----------------  -----------------
           H         -2.373040536882    -0.619938417684     1.037359181421     1.007825032070
           N         -1.435443536882    -0.490155417684     1.352222181421    14.003074004780
           C         -0.898001536882     0.773176582316     0.881807181421    12.000000000000
           H         -0.890256536882    -1.246811417684     0.996920181421     1.007825032070
           C          0.463752463118     0.570412582316     0.257980181421    12.000000000000
           H         -1.537755536882     1.272606582316     0.155289181421     1.007825032070
           H         -0.786393536882     1.440165582316     1.729581181421     1.007825032070
           O          0.322030463118    -0.215391417684    -0.886630818579    15.994914619560
           H          0.898540463118     1.534607582316    -0.001749818579     1.007825032070
           H          1.122911463118     0.080089582316     0.970736181421     1.007825032070
           C          1.517261463118    -0.533618417684    -1.518591818579    12.000000000000
           H          1.285111463118    -1.136002417684    -2.384978818579     1.007825032070
           H          2.044323463118     0.360130582316    -1.845872818579     1.007825032070
           H          2.175014463118    -1.100221417684    -0.863698818579     1.007825032070

  Nuclear repulsion =  195.236518997860202

  ==> Basis Set <==

  Basis Set: CC-PVTZ
    Number of shells: 104
    Number of basis function: 276
    Number of Cartesian functions: 310
    Spherical Harmonics?: true
    Max angular momentum: 3

  ==> DFJKGrad: Density-Fitted SCF Gradients <==

    Gradient:                    1
    J tasked:                  Yes
    K tasked:                  Yes
    wK tasked:                  No
    OpenMP threads:              4
    Integrals threads:           4
    Memory (MB):              1430
    Schwarz Cutoff:          0E+00
    Fitting Condition:       1E-12

   => Auxiliary Basis Set <=

  Basis Set: 
    Number of shells: 215
    Number of basis function: 665
    Number of Cartesian functions: 795
    Spherical Harmonics?: true
    Max angular momentum: 4


  -Total Gradient:
     Atom            X                  Y                   Z
    ------   -----------------  -----------------  -----------------
       1       -0.001462062300     0.001957122935    -0.001497782238
       2        0.005076810539     0.002553032953     0.000421052554
       3       -0.004309818858    -0.001628600547    -0.001445058430
       4        0.004319188970     0.000060099540     0.001273842100
       5        0.001265233708    -0.004328445612     0.003678868479
       6       -0.000028652027     0.003726716672    -0.001779312827
       7       -0.000636216361    -0.003255108667     0.001154818591
       8       -0.001360718017     0.000334979729    -0.000553015408
       9       -0.000879722715     0.000735660837    -0.000949032552
      10       -0.001497580920     0.000059768996    -0.000608978783
      11       -0.000114970094    -0.000506708914     0.000424402703
      12        0.000029685762     0.000000288707    -0.000082197707
      13       -0.000113351735     0.000202316225    -0.000013252916
      14       -0.000287825947     0.000088877146    -0.000024353569


*** tstop() called on cx1-27-2-3 at Sat Sep 10 16:22:43 2016
Module time:
	user time   =      16.37 seconds =       0.27 minutes
	system time =       0.39 seconds =       0.01 minutes
	total time  =          4 seconds =       0.07 minutes
Total time:
	user time   =      31.13 seconds =       0.52 minutes
	system time =       0.82 seconds =       0.01 minutes
	total time  =          9 seconds =       0.15 minutes

			-----------------------------------------
			 OPTKING 2.0: for geometry optimizations 
			  - R.A. King,  Bethel University        
			-----------------------------------------

	Internal coordinates to be generated automatically.
	Detected frag 1 with atoms:  1 2 3 4 5 6 7 8 9 10 11 12 13 14
	---Fragment 1 Bond Connectivity---
	 1 : 2
	 2 : 1 3 4
	 3 : 2 5 6 7
	 4 : 2
	 5 : 3 8 9 10
	 6 : 3
	 7 : 3
	 8 : 5 11
	 9 : 5
	 10 : 5
	 11 : 8 12 13 14
	 12 : 11
	 13 : 11
	 14 : 11

	Assuming in current code that numbering for constraints corresponds to unified fragment.
	Frozen dihedral atom list: 
	     6     3     2     4
	---Fragment 1 Geometry and Gradient---
	 H          -4.4843967169       -1.1715138287        1.9603247543
	 N          -2.7125951639       -0.9262595020        2.5553295937
	 C          -1.6969769716        1.4610919929        1.6663740749
	 H          -1.6823410427       -2.3561321188        1.8839061192
	 C           0.8763651487        1.0779235633        0.4875118906
	 H          -2.9059368240        2.4048779155        0.2934540243
	 H          -1.4860684174        2.7215185366        3.2684347575
	 O           0.6085493817       -0.4070307908       -1.6754894281
	 H           1.6979953946        2.8999880520       -0.0033066779
	 H           2.1219951368        0.1513473767        1.8344255302
	 C           2.8672086373       -1.0083926689       -2.8697226448
	 H           2.4285087155       -2.1467334557       -4.5069567998
	 H           3.8632114723        0.6805481727       -3.4881941033
	 H           4.1101816704       -2.0791171650       -1.6321542284
	            -0.0014620623        0.0019571229       -0.0014977822
	             0.0050768105        0.0025530330        0.0004210526
	            -0.0043098189       -0.0016286005       -0.0014450584
	             0.0043191890        0.0000600995        0.0012738421
	             0.0012652337       -0.0043284456        0.0036788685
	            -0.0000286520        0.0037267167       -0.0017793128
	            -0.0006362164       -0.0032551087        0.0011548186
	            -0.0013607180        0.0003349797       -0.0005530154
	            -0.0008797227        0.0007356608       -0.0009490326
	            -0.0014975809        0.0000597690       -0.0006089788
	            -0.0001149701       -0.0005067089        0.0004244027
	             0.0000296858        0.0000002887       -0.0000821977
	            -0.0001133517        0.0002023162       -0.0000132529
	            -0.0002878259        0.0000888771       -0.0000243536

	Previous optimization step data not found.  Starting new optimization.

	---Fragment 1 Intrafragment Coordinates---
	 - Coordinate -           - BOHR/RAD -       - ANG/DEG -
	 R(1,2)           =         1.885063	       0.997532
	 R(2,3)           =         2.742475	       1.451255
	 R(2,4)           =         1.885940	       0.997996
	 R(3,5)           =         2.856330	       1.511505
	 R(3,6)           =         2.058452	       1.089286
	 R(3,7)           =         2.049331	       1.084459
	 R(5,8)           =         2.637307	       1.395603
	 R(5,9)           =         2.058130	       1.089115
	 R(5,10)          =         2.055314	       1.087625
	 R(8,11)          =         2.624761	       1.388964
	 R(11,12)         =         2.041767	       1.080457
	 R(11,13)         =         2.055979	       1.087977
	 R(11,14)         =         2.054996	       1.087457
	 B(1,2,3)         =         1.938016	     111.040145
	 B(1,2,4)         =         1.878052	     107.604457
	 B(2,3,5)         =         1.929054	     110.526643
	 B(2,3,6)         =         1.979931	     113.441714
	 B(2,3,7)         =         1.896647	     108.669886
	 B(3,2,4)         =         1.920155	     110.016754
	 B(3,5,8)         =         1.899206	     108.816490
	 B(3,5,9)         =         1.916995	     109.835715
	 B(3,5,10)        =         1.913481	     109.634409
	 B(5,3,6)         =         1.891635	     108.382711
	 B(5,3,7)         =         1.888545	     108.205684
	 B(5,8,11)        =         1.998495	     114.505338
	 B(6,3,7)         =         1.875333	     107.448686
	 B(8,5,9)         =         1.921358	     110.085719
	 B(8,5,10)        =         1.923228	     110.192853
	 B(8,11,12)       =         1.883553	     107.919663
	 B(8,11,13)       =         1.944998	     111.440201
	 B(8,11,14)       =         1.945353	     111.460491
	 B(9,5,10)        =         1.889620	     108.267253
	 B(12,11,13)      =         1.897443	     108.715492
	 B(12,11,14)      =         1.899035	     108.806667
	 B(13,11,14)      =         1.892476	     108.430876
	 D(1,2,3,5)       =        -2.285987	    -130.977397
	 D(1,2,3,6)       =        -0.157317	      -9.013589
	 D(1,2,3,7)       =         1.927282	     110.425103
	 D(2,3,5,8)       =         1.134007	      64.973811
	 D(2,3,5,9)       =        -3.044805	    -174.454457
	 D(2,3,5,10)      =        -0.970520	     -55.606706
	 D(3,5,8,11)      =        -3.086779	    -176.859386
	 D(4,2,3,5)       =        -0.208808	     -11.963794
	*D(4,2,3,6)       =         1.919862	     110.000014
	 D(4,2,3,7)       =        -2.278724	    -130.561295
	 D(5,8,11,12)     =        -3.138577	    -179.827241
	 D(5,8,11,13)     =        -1.056507	     -60.533385
	 D(5,8,11,14)     =         1.060376	      60.755046
	 D(6,3,5,8)       =        -1.045797	     -59.919743
	 D(6,3,5,9)       =         1.058577	      60.651989
	 D(6,3,5,10)      =         3.132861	     179.499740
	 D(7,3,5,8)       =        -3.074336	    -176.146466
	 D(7,3,5,9)       =        -0.969962	     -55.574733
	 D(7,3,5,10)      =         1.104322	      63.273017
	 D(9,5,8,11)      =         1.094724	      62.723063
	 D(10,5,8,11)     =        -0.988268	     -56.623578

	Current energy   :      -248.2212944325

	Generating empirical Hessian (Schlegel '84) for each fragment.
	Taking RFO optimization step.
	Going to follow RFO solution 1.
	Using RFO vector 1.
	Norm of target step-size    0.14757
	Projected energy change by RFO approximation:        -0.0001696612

	Back-transformation to cartesian coordinates...
	Could not converge backtransformation.
	Using first guess instead.

	Back-transformation to cartesian coordinates to adjust frozen coordinates...
	Successfully converged to displaced geometry.

	--- Internal Coordinate Step in ANG or DEG, aJ/ANG or AJ/DEG ---
	 ---------------------------------------------------------------------------
	   Coordinate                Previous        Force       Change         New 
	   ----------                --------       ------       ------       ------
	    1 R(1,2)          =      0.997532    -0.013119     0.338984     1.336517
	    2 R(2,3)          =      1.451255     0.056458     0.509475     1.960730
	    3 R(2,4)          =      0.997996    -0.015327     0.227482     1.225479
	    4 R(3,5)          =      1.511505     0.024559     0.116932     1.628437
	    5 R(3,6)          =      1.089286    -0.023993     0.427106     1.516392
	    6 R(3,7)          =      1.084459     0.009596     0.307937     1.392396
	    7 R(5,8)          =      1.395603    -0.002668     0.358256     1.753859
	    8 R(5,9)          =      1.089115    -0.004337     0.393298     1.482414
	    9 R(5,10)         =      1.087625     0.010988     0.435374     1.522999
	   10 R(8,11)         =      1.388964     0.004184     0.081231     1.470194
	   11 R(11,12)        =      1.080457    -0.000489     0.320227     1.400684
	   12 R(11,13)        =      1.087977    -0.000950     0.369072     1.457049
	   13 R(11,14)        =      1.087457     0.001937     0.434207     1.521664
	   14 B(1,2,3)        =    111.040145     0.000224    -2.171122   108.869023
	   15 B(1,2,4)        =    107.604457    -0.000232    -7.841326    99.763131
	   16 B(2,3,5)        =    110.526643     0.000689    -3.577455   106.949188
	   17 B(2,3,6)        =    113.441714    -0.000437    -1.358927   112.082787
	   18 B(2,3,7)        =    108.669886     0.000043    12.312165   120.982051
	   19 B(3,2,4)        =    110.016754     0.000167    16.918984   126.935738
	   20 B(3,5,8)        =    108.816490     0.000232   -14.234033    94.582456
	   21 B(3,5,9)        =    109.835715    -0.000026    -4.401069   105.434645
	   22 B(3,5,10)       =    109.634409    -0.000012     6.969576   116.603984
	   23 B(5,3,6)        =    108.382711    -0.000049     6.679813   115.062524
	   24 B(5,3,7)        =    108.205684    -0.000344   -15.179668    93.026016
	   25 B(5,8,11)       =    114.505338     0.000002   -13.946872   100.558466
	   26 B(6,3,7)        =    107.448686     0.000076     0.199377   107.648063
	   27 B(8,5,9)        =    110.085719    -0.000057    10.215594   120.301313
	   28 B(8,5,10)       =    110.192853    -0.000094     1.751814   111.944667
	   29 B(8,11,12)      =    107.919663    -0.000012   -13.210821    94.708841
	   30 B(8,11,13)      =    111.440201     0.000020    -7.123699   104.316503
	   31 B(8,11,14)      =    111.460491     0.000017     5.411887   116.872377
	   32 B(9,5,10)       =    108.267253    -0.000046    -0.518213   107.749040
	   33 B(12,11,13)     =    108.715492    -0.000003    10.171762   118.887254
	   34 B(12,11,14)     =    108.806667    -0.000006     2.585384   111.392051
	   35 B(13,11,14)     =    108.430876    -0.000017     1.598657   110.029532
	   36 D(1,2,3,5)      =   -130.977397    -0.000022    -4.763352  -135.740749
	   37 D(1,2,3,6)      =     -9.013589     0.000009     0.253437    -8.760151
	   38 D(1,2,3,7)      =    110.425103    -0.000025     9.512839   119.937942
	   39 D(2,3,5,8)      =     64.973811    -0.000031    -3.589516    61.384294
	   40 D(2,3,5,9)      =   -174.454457    -0.000018    -0.983886  -175.438343
	   41 D(2,3,5,10)     =    -55.606706    -0.000036    -0.360436   -55.967142
	   42 D(3,5,8,11)     =   -176.859386    -0.000004    -1.344563  -178.203949
	   43 D(4,2,3,5)      =    -11.963794    -0.000032    -5.016790   -16.980584
	   44 *D(4,2,3,6)     =    110.000014     0.000000     0.000000   110.000014
	   45 D(4,2,3,7)      =   -130.561295    -0.000035     9.259401  -121.301894
	   46 D(5,8,11,12)    =   -179.827241    -0.000001    -0.090260  -179.917500
	   47 D(5,8,11,13)    =    -60.533385    -0.000001     2.034080   -58.499305
	   48 D(5,8,11,14)    =     60.755046     0.000000     2.453677    63.208723
	   49 D(6,3,5,8)      =    -59.919743    -0.000003    -3.892647   -63.812390
	   50 D(6,3,5,9)      =     60.651989     0.000011    -1.287017    59.364972
	   51 D(6,3,5,10)     =    179.499740    -0.000007    -0.663567   178.836173
	   52 D(7,3,5,8)      =   -176.146466     0.000025     1.241928  -174.904538
	   53 D(7,3,5,9)      =    -55.574733     0.000038     3.847558   -51.727176
	   54 D(7,3,5,10)     =     63.273017     0.000020     4.471008    67.744026
	   55 D(9,5,8,11)     =     62.723063    -0.000022     8.213469    70.936531
	   56 D(10,5,8,11)    =    -56.623578     0.000013    -0.472994   -57.096572
	 ---------------------------------------------------------------------------
	Successfully symmetrized geometry.

  ==> Convergence Check <==

  Measures of convergence in internal coordinates in au.
  Criteria marked as inactive (o), active & met (*), and active & unmet ( ).
  --------------------------------------------------------------------------------------------- ~
   Step     Total Energy     Delta E     MAX Force     RMS Force      MAX Disp      RMS Disp    ~
  --------------------------------------------------------------------------------------------- ~
    Convergence Criteria    1.00e-06 *    3.00e-04 *             o    1.20e-03 *             o  ~
  --------------------------------------------------------------------------------------------- ~
      1    -248.22129443   -2.48e+02      9.06e-03      2.22e-03 o    9.63e-01      3.39e-01 o  ~
  ---------------------------------------------------------------------------------------------

	Writing optimization data to binary file.
	Structure for next step:
	Cartesian Geometry (in Angstrom)
	    H    -3.0457311655   0.5869138765   0.2902250603
	    N    -2.0735925976  -0.1967844515   0.7667122988
	    C    -0.5170289079   0.9148098965   1.1979091783
	    H    -2.1233692507  -1.1093280202  -0.0497339756
	    C     0.7950532244   0.1350827184   0.6302188609
	    H    -0.6802889985   2.3398407711   0.7058938728
	    H    -0.0136432132   0.9710948055   2.4949062870
	    O     0.2705253516   0.1778722045  -1.0428201411
	    H     1.9562866674   0.9443190213   1.0709273676
	    H     1.0081629637  -1.2899332126   1.1236150370
	    C     1.3711261583  -0.5519628577  -1.6889548689
	    H     0.8387286719  -0.4435029893  -2.9799638257
	    H     2.5611745109   0.2179743160  -1.3513544612
	    H     1.5606510688  -2.0073459261  -1.2872081504
			--------------------------
			 OPTKING Finished Execution 
			--------------------------

    Structure for next step:
    Molecular point group: c1
    Full point group: C1

    Geometry (in Angstrom), charge = 0, multiplicity = 1:

    H           -3.007875979685     0.503306185888     0.346919602656
    N           -2.035737411816    -0.280392142152     0.823406841191
    C           -0.479173722103     0.831202205837     1.254603720716
    H           -2.085514064903    -1.192935710889     0.006960566755
    C            0.832908410140     0.051475027776     0.686913403293
    H           -0.642433812682     2.256233080440     0.762588415187
    H            0.024211972546     0.887487114853     2.551600829397
    O            0.308380537382     0.094264513835    -0.986125598696
    H            1.994141853156     0.860711330638     1.127621909944
    H            1.046018149510    -1.373540903221     1.180309579406
    C            1.408981344101    -0.635570548307    -1.632260326516
    H            0.876583857674    -0.527110679968    -2.923269283340
    H            2.599029696719     0.134366625390    -1.294659918777
    H            1.598506254618    -2.090953616748    -1.230513608072

gradient() will perform analytic gradient computation.

*** tstart() called on cx1-27-2-3
*** at Sat Sep 10 16:22:44 2016


         ---------------------------------------------------------
                                   SCF
            by Justin Turney, Rob Parrish, and Andy Simmonett
                              RHF Reference
                        4 Threads,   2000 MiB Core
         ---------------------------------------------------------

  ==> Geometry <==

    Molecular point group: c1
    Full point group: C1

    Geometry (in Angstrom), charge = 0, multiplicity = 1:

       Center              X                  Y                   Z               Mass       
    ------------   -----------------  -----------------  -----------------  -----------------
           H         -3.007875979685     0.503306185888     0.346919602656     1.007825032070
           N         -2.035737411816    -0.280392142152     0.823406841191    14.003074004780
           C         -0.479173722103     0.831202205837     1.254603720716    12.000000000000
           H         -2.085514064903    -1.192935710889     0.006960566755     1.007825032070
           C          0.832908410140     0.051475027776     0.686913403293    12.000000000000
           H         -0.642433812682     2.256233080440     0.762588415187     1.007825032070
           H          0.024211972546     0.887487114853     2.551600829397     1.007825032070
           O          0.308380537382     0.094264513835    -0.986125598696    15.994914619560
           H          1.994141853156     0.860711330638     1.127621909944     1.007825032070
           H          1.046018149510    -1.373540903221     1.180309579406     1.007825032070
           C          1.408981344101    -0.635570548307    -1.632260326516    12.000000000000
           H          0.876583857674    -0.527110679968    -2.923269283340     1.007825032070
           H          2.599029696719     0.134366625390    -1.294659918777     1.007825032070
           H          1.598506254618    -2.090953616748    -1.230513608072     1.007825032070

  Running in c1 symmetry.

  Rotational constants: A =      0.22383  B =      0.08458  C =      0.07080 [cm^-1]
  Rotational constants: A =   6710.34208  B =   2535.57491  C =   2122.38969 [MHz]
  Nuclear repulsion =  167.077907377192588

  Charge       = 0
  Multiplicity = 1
  Electrons    = 42
  Nalpha       = 21
  Nbeta        = 21

  ==> Algorithm <==

  SCF Algorithm Type is DF.
  DIIS enabled.
  MOM disabled.
  Fractional occupation disabled.
  Guess Type is READ.
  Energy threshold   = 1.00e-08
  Density threshold  = 1.00e-08
  Integral threshold = 0.00e+00

  ==> Primary Basis <==

  Basis Set: CC-PVTZ
    Number of shells: 104
    Number of basis function: 276
    Number of Cartesian functions: 310
    Spherical Harmonics?: true
    Max angular momentum: 3

  ==> Pre-Iterations <==

   -------------------------------------------------------
    Irrep   Nso     Nmo     Nalpha   Nbeta   Ndocc  Nsocc
   -------------------------------------------------------
     A        276     276       0       0       0       0
   -------------------------------------------------------
    Total     276     276      21      21      21       0
   -------------------------------------------------------

  ==> Integral Setup <==

  ==> DFJK: Density-Fitted J/K Matrices <==

    J tasked:                  Yes
    K tasked:                  Yes
    wK tasked:                  No
    OpenMP threads:              4
    Integrals threads:           4
    Memory (MB):              1430
    Algorithm:                Core
    Integral Cache:           NONE
    Schwarz Cutoff:          1E-12
    Fitting Condition:       1E-12

   => Auxiliary Basis Set <=

  Basis Set: 
    Number of shells: 215
    Number of basis function: 665
    Number of Cartesian functions: 795
    Spherical Harmonics?: true
    Max angular momentum: 4

  Minimum eigenvalue in the overlap matrix is 1.6473129633E-03.
  Using Symmetric Orthogonalization.
  SCF Guess: Reading in previously saved MOs, projecting if necessary.

  Using orbitals from previous SCF, no projection.
  Recomputing DOCC and SOCC from number of alpha and beta electrons from previous calculation.
              A 
    DOCC [    21 ]

  ==> Iterations <==

                           Total Energy        Delta E     RMS |[F,P]|

   @DF-RHF iter   0:  -243.42098007159072   -2.43421e+02   5.36794e-03 
   @DF-RHF iter   1:  -246.95980368218815   -3.53882e+00   3.28521e-03 
   @DF-RHF iter   2:  -247.31098498665236   -3.51181e-01   2.37151e-03 DIIS
   @DF-RHF iter   3:  -247.54560633938868   -2.34621e-01   2.82673e-04 DIIS
   @DF-RHF iter   4:  -247.55368329079923   -8.07695e-03   1.73323e-04 DIIS
   @DF-RHF iter   5:  -247.55544259146629   -1.75930e-03   5.43897e-05 DIIS
   @DF-RHF iter   6:  -247.55583998176573   -3.97390e-04   2.46225e-05 DIIS
   @DF-RHF iter   7:  -247.55591227818499   -7.22964e-05   1.14280e-05 DIIS
   @DF-RHF iter   8:  -247.55593512931259   -2.28511e-05   4.44008e-06 DIIS
   @DF-RHF iter   9:  -247.55593938660442   -4.25729e-06   1.47103e-06 DIIS
   @DF-RHF iter  10:  -247.55593981840875   -4.31804e-07   8.70505e-07 DIIS
   @DF-RHF iter  11:  -247.55593990073768   -8.23289e-08   3.08470e-07 DIIS
   @DF-RHF iter  12:  -247.55593991944582   -1.87081e-08   1.20514e-07 DIIS
   @DF-RHF iter  13:  -247.55593992222836   -2.78254e-09   5.75264e-08 DIIS
   @DF-RHF iter  14:  -247.55593992270823   -4.79872e-10   2.42621e-08 DIIS
   @DF-RHF iter  15:  -247.55593992283681   -1.28580e-10   7.98032e-09 DIIS

  ==> Post-Iterations <==

    Orbital Energies (a.u.)
    -----------------------

    Doubly Occupied:                                                      

       1A    -20.588324     2A    -15.604564     3A    -11.401382  
       4A    -11.381710     5A    -11.377025     6A     -1.307257  
       7A     -1.018528     8A     -0.940189     9A     -0.806158  
      10A     -0.729448    11A     -0.578508    12A     -0.570870  
      13A     -0.551409    14A     -0.512391    15A     -0.501317  
      16A     -0.486815    17A     -0.464360    18A     -0.440036  
      19A     -0.412344    20A     -0.399768    21A     -0.360998  

    Virtual:                                                              

      22A      0.072803    23A      0.079912    24A      0.104971  
      25A      0.111520    26A      0.152611    27A      0.168201  
      28A      0.178453    29A      0.184896    30A      0.200654  
      31A      0.209369    32A      0.226061    33A      0.285969  
      34A      0.301124    35A      0.377251    36A      0.386691  
      37A      0.408146    38A      0.426265    39A      0.428857  
      40A      0.442960    41A      0.472883    42A      0.476774  
      43A      0.488220    44A      0.491172    45A      0.518554  
      46A      0.522749    47A      0.544778    48A      0.547794  
      49A      0.551455    50A      0.563959    51A      0.577514  
      52A      0.595111    53A      0.646563    54A      0.670417  
      55A      0.703521    56A      0.709909    57A      0.745178  
      58A      0.756720    59A      0.787307    60A      0.813104  
      61A      0.838039    62A      0.871485    63A      0.888342  
      64A      0.900389    65A      0.918249    66A      0.949123  
      67A      0.957278    68A      0.976642    69A      1.014966  
      70A      1.021155    71A      1.037384    72A      1.049246  
      73A      1.059662    74A      1.070230    75A      1.086987  
      76A      1.127810    77A      1.131577    78A      1.151778  
      79A      1.155651    80A      1.165010    81A      1.169542  
      82A      1.225431    83A      1.229194    84A      1.259235  
      85A      1.265008    86A      1.286300    87A      1.298025  
      88A      1.324321    89A      1.337713    90A      1.354792  
      91A      1.363913    92A      1.377041    93A      1.382628  
      94A      1.391833    95A      1.416163    96A      1.437125  
      97A      1.453199    98A      1.462174    99A      1.479174  
     100A      1.510710   101A      1.546564   102A      1.569280  
     103A      1.577710   104A      1.594552   105A      1.663440  
     106A      1.771040   107A      1.808279   108A      1.826664  
     109A      1.862104   110A      1.998620   111A      2.017688  
     112A      2.073585   113A      2.108613   114A      2.134013  
     115A      2.359712   116A      2.465859   117A      2.537593  
     118A      2.552774   119A      2.590745   120A      2.613558  
     121A      2.659628   122A      2.688127   123A      2.701992  
     124A      2.723863   125A      2.743404   126A      2.770080  
     127A      2.781521   128A      2.806736   129A      2.809572  
     130A      2.827592   131A      2.829158   132A      2.848274  
     133A      2.868773   134A      2.879980   135A      2.884991  
     136A      2.913744   137A      2.924696   138A      2.950787  
     139A      2.966560   140A      3.004457   141A      3.033229  
     142A      3.053371   143A      3.081574   144A      3.114045  
     145A      3.143805   146A      3.183681   147A      3.208371  
     148A      3.213017   149A      3.262126   150A      3.277026  
     151A      3.304368   152A      3.331259   153A      3.344838  
     154A      3.361633   155A      3.371793   156A      3.384718  
     157A      3.390637   158A      3.410779   159A      3.418268  
     160A      3.431344   161A      3.446975   162A      3.453613  
     163A      3.462598   164A      3.474533   165A      3.483475  
     166A      3.493646   167A      3.503584   168A      3.522239  
     169A      3.539859   170A      3.545604   171A      3.554398  
     172A      3.572559   173A      3.584740   174A      3.600723  
     175A      3.624850   176A      3.642413   177A      3.652884  
     178A      3.660437   179A      3.681920   180A      3.691479  
     181A      3.698257   182A      3.721635   183A      3.738021  
     184A      3.745395   185A      3.765023   186A      3.790663  
     187A      3.816777   188A      3.843740   189A      3.900000  
     190A      3.909523   191A      3.938234   192A      3.955884  
     193A      3.966252   194A      3.994619   195A      3.996734  
     196A      4.009524   197A      4.027701   198A      4.032986  
     199A      4.061018   200A      4.074590   201A      4.080921  
     202A      4.093708   203A      4.103721   204A      4.118379  
     205A      4.122422   206A      4.127035   207A      4.159297  
     208A      4.169695   209A      4.172348   210A      4.196262  
     211A      4.234979   212A      4.240713   213A      4.261046  
     214A      4.290608   215A      4.309984   216A      4.314407  
     217A      4.332584   218A      4.337382   219A      4.347144  
     220A      4.364169   221A      4.401171   222A      4.405386  
     223A      4.420441   224A      4.462300   225A      4.480086  
     226A      4.500914   227A      4.520350   228A      4.553426  
     229A      4.571215   230A      4.588726   231A      4.616712  
     232A      4.630322   233A      4.656589   234A      4.675541  
     235A      4.695356   236A      4.748552   237A      4.776770  
     238A      4.781126   239A      4.798919   240A      4.835200  
     241A      4.917931   242A      4.986050   243A      5.012959  
     244A      5.053629   245A      5.202412   246A      5.290392  
     247A      5.325376   248A      5.359357   249A      5.373593  
     250A      5.412972   251A      5.437051   252A      5.454790  
     253A      5.511394   254A      5.544006   255A      5.589541  
     256A      5.711790   257A      5.719274   258A      5.772695  
     259A      5.840245   260A      5.867523   261A      5.893592  
     262A      5.947722   263A      6.123588   264A      6.287514  
     265A      6.389069   266A      6.481129   267A      6.982267  
     268A      7.060924   269A      7.251366   270A      7.264657  
     271A      7.392271   272A      7.650520   273A      8.417824  
     274A      8.713411   275A      8.884462   276A     10.361856  

    Final Occupation by Irrep:
              A 
    DOCC [    21 ]

  Energy converged.

  @DF-RHF Final Energy:  -247.55593992283681

   => Energetics <=

    Nuclear Repulsion Energy =            167.0779073771925880
    One-Electron Energy =                -668.4009015373612783
    Two-Electron Energy =                 253.7670542373317630
    DFT Exchange-Correlation Energy =       0.0000000000000000
    Empirical Dispersion Energy =           0.0000000000000000
    PCM Polarization Energy =               0.0000000000000000
    EFP Energy =                            0.0000000000000000
    Total Energy =                       -247.5559399228369557


  Saving occupied orbitals to File 180.

*** tstop() called on cx1-27-2-3 at Sat Sep 10 16:22:49 2016
Module time:
	user time   =      16.06 seconds =       0.27 minutes
	system time =       0.26 seconds =       0.00 minutes
	total time  =          5 seconds =       0.08 minutes
Total time:
	user time   =      49.16 seconds =       0.82 minutes
	system time =       1.15 seconds =       0.02 minutes
	total time  =         15 seconds =       0.25 minutes


Properties will be evaluated at   0.000000,   0.000000,   0.000000 Bohr

Properties computed using the SCF density matrix

  Nuclear Dipole Moment: (a.u.)
     X:     2.2598      Y:    -0.5073      Z:     0.4874

  Electronic Dipole Moment: (a.u.)
     X:    -1.6319      Y:     0.6467      Z:    -0.2807

  Dipole Moment: (a.u.)
     X:     0.6280      Y:     0.1395      Z:     0.2067     Total:     0.6756

  Dipole Moment: (Debye)
     X:     1.5961      Y:     0.3545      Z:     0.5254     Total:     1.7173


*** tstart() called on cx1-27-2-3
*** at Sat Sep 10 16:22:49 2016


         ------------------------------------------------------------
                                   SCF GRAD                          
                          Rob Parrish, Justin Turney,                
                       Andy Simmonett, and Alex Sokolov              
         ------------------------------------------------------------

  ==> Geometry <==

    Molecular point group: c1
    Full point group: C1

    Geometry (in Angstrom), charge = 0, multiplicity = 1:

       Center              X                  Y                   Z               Mass       
    ------------   -----------------  -----------------  -----------------  -----------------
           H         -3.007875979685     0.503306185888     0.346919602656     1.007825032070
           N         -2.035737411816    -0.280392142152     0.823406841191    14.003074004780
           C         -0.479173722103     0.831202205837     1.254603720716    12.000000000000
           H         -2.085514064903    -1.192935710889     0.006960566755     1.007825032070
           C          0.832908410140     0.051475027776     0.686913403293    12.000000000000
           H         -0.642433812682     2.256233080440     0.762588415187     1.007825032070
           H          0.024211972546     0.887487114853     2.551600829397     1.007825032070
           O          0.308380537382     0.094264513835    -0.986125598696    15.994914619560
           H          1.994141853156     0.860711330638     1.127621909944     1.007825032070
           H          1.046018149510    -1.373540903221     1.180309579406     1.007825032070
           C          1.408981344101    -0.635570548307    -1.632260326516    12.000000000000
           H          0.876583857674    -0.527110679968    -2.923269283340     1.007825032070
           H          2.599029696719     0.134366625390    -1.294659918777     1.007825032070
           H          1.598506254618    -2.090953616748    -1.230513608072     1.007825032070

  Nuclear repulsion =  167.077907377192588

  ==> Basis Set <==

  Basis Set: CC-PVTZ
    Number of shells: 104
    Number of basis function: 276
    Number of Cartesian functions: 310
    Spherical Harmonics?: true
    Max angular momentum: 3

  ==> DFJKGrad: Density-Fitted SCF Gradients <==

    Gradient:                    1
    J tasked:                  Yes
    K tasked:                  Yes
    wK tasked:                  No
    OpenMP threads:              4
    Integrals threads:           4
    Memory (MB):              1430
    Schwarz Cutoff:          0E+00
    Fitting Condition:       1E-12

   => Auxiliary Basis Set <=

  Basis Set: 
    Number of shells: 215
    Number of basis function: 665
    Number of Cartesian functions: 795
    Spherical Harmonics?: true
    Max angular momentum: 4


  -Total Gradient:
     Atom            X                  Y                   Z
    ------   -----------------  -----------------  -----------------
       1       -0.096072327425     0.064657634438    -0.041383212413
       2        0.052929063046    -0.041238295014     0.049070845136
       3       -0.034541075420     0.000974224062    -0.010211423304
       4       -0.031237274614    -0.090605233423    -0.061911026419
       5        0.032935984547    -0.018568488322     0.012698419262
       6       -0.010919174563     0.106210961334    -0.031354595536
       7        0.064128957518     0.003600768891     0.077731090493
       8       -0.126388131619     0.064332217510    -0.086794083202
       9        0.076744128932     0.057967453931     0.045042686467
      10        0.019028987125    -0.102127177571     0.039448002470
      11        0.020405788737    -0.023663850150     0.027855439548
      12       -0.058477749199     0.016395639562    -0.082878396443
      13        0.077107492991     0.062157260738     0.036076122012
      14        0.014355329947    -0.100093115986     0.026610131928


*** tstop() called on cx1-27-2-3 at Sat Sep 10 16:22:53 2016
Module time:
	user time   =      15.75 seconds =       0.26 minutes
	system time =       0.35 seconds =       0.01 minutes
	total time  =          4 seconds =       0.07 minutes
Total time:
	user time   =      64.98 seconds =       1.08 minutes
	system time =       1.51 seconds =       0.03 minutes
	total time  =         19 seconds =       0.32 minutes

			-----------------------------------------
			 OPTKING 2.0: for geometry optimizations 
			  - R.A. King,  Bethel University        
			-----------------------------------------

	Previous internal coordinate definitions found.
	---Fragment 1 Geometry and Gradient---
	 H          -5.6840618433        0.9511108523        0.6555830392
	 N          -3.8469861868       -0.5298643585        1.5560134258
	 C          -0.9055071048        1.5707445301        2.3708574375
	 H          -3.9410504289       -2.2543217877        0.0131535649
	 C           1.5739687889        0.0972737052        1.2980782092
	 H          -1.2140239645        4.2636626140        1.4410832568
	 H           0.0457539972        1.6771075935        4.8218267680
	 O           0.5827547604        0.1781341152       -1.8635073142
	 H           3.7683819726        1.6265086944        2.1308965912
	 H           1.9766878326       -2.5956161394        2.2304618571
	 C           2.6625888667       -1.2010542744       -3.0845249947
	 H           1.6565034235       -0.9960948269       -5.5241783582
	 H           4.9114543380        0.2539161234       -2.4465526817
	 H           3.0207390429       -3.9513296922       -2.3253337220
	            -0.0960723274        0.0646576344       -0.0413832124
	             0.0529290630       -0.0412382950        0.0490708451
	            -0.0345410754        0.0009742241       -0.0102114233
	            -0.0312372746       -0.0906052334       -0.0619110264
	             0.0329359845       -0.0185684883        0.0126984193
	            -0.0109191746        0.1062109613       -0.0313545955
	             0.0641289575        0.0036007689        0.0777310905
	            -0.1263881316        0.0643322175       -0.0867940832
	             0.0767441289        0.0579674539        0.0450426865
	             0.0190289871       -0.1021271776        0.0394480025
	             0.0204057887       -0.0236638502        0.0278554395
	            -0.0584777492        0.0163956396       -0.0828783964
	             0.0771074930        0.0621572607        0.0360761220
	             0.0143553299       -0.1000931160        0.0266101319

	---Fragment 1 Intrafragment Coordinates---
	 - Coordinate -           - BOHR/RAD -       - ANG/DEG -
	 R(1,2)           =         2.525650	       1.336517
	 R(2,3)           =         3.705243	       1.960730
	 R(2,4)           =         2.315819	       1.225479
	 R(3,5)           =         3.077300	       1.628437
	 R(3,6)           =         2.865566	       1.516392
	 R(3,7)           =         2.631247	       1.392396
	 R(5,8)           =         3.314312	       1.753859
	 R(5,9)           =         2.801356	       1.482414
	 R(5,10)          =         2.878051	       1.522999
	 R(8,11)          =         2.778265	       1.470194
	 R(11,12)         =         2.646909	       1.400684
	 R(11,13)         =         2.753424	       1.457049
	 R(11,14)         =         2.875527	       1.521664
	 B(1,2,3)         =         1.900123	     108.869023
	 B(1,2,4)         =         1.741195	      99.763131
	 B(2,3,5)         =         1.866615	     106.949188
	 B(2,3,6)         =         1.956214	     112.082787
	 B(2,3,7)         =         2.111535	     120.982051
	 B(3,2,4)         =         2.215447	     126.935738
	 B(3,5,8)         =         1.650775	      94.582456
	 B(3,5,9)         =         1.840182	     105.434645
	 B(3,5,10)        =         2.035123	     116.603984
	 B(5,3,6)         =         2.008220	     115.062524
	 B(5,3,7)         =         1.623610	      93.026016
	 B(5,8,11)        =         1.755076	     100.558466
	 B(6,3,7)         =         1.878813	     107.648063
	 B(8,5,9)         =         2.099654	     120.301313
	 B(8,5,10)        =         1.953803	     111.944667
	 B(8,11,12)       =         1.652981	      94.708841
	 B(8,11,13)       =         1.820666	     104.316503
	 B(8,11,14)       =         2.039808	     116.872377
	 B(9,5,10)        =         1.880576	     107.749040
	 B(12,11,13)      =         2.074974	     118.887254
	 B(12,11,14)      =         1.944158	     111.392051
	 B(13,11,14)      =         1.920378	     110.029532
	 D(1,2,3,5)       =        -2.369123	    -135.740749
	 D(1,2,3,6)       =        -0.152893	      -8.760151
	 D(1,2,3,7)       =         2.093312	     119.937942
	 D(2,3,5,8)       =         1.071358	      61.384294
	 D(2,3,5,9)       =        -3.061977	    -175.438343
	 D(2,3,5,10)      =        -0.976811	     -55.967142
	 D(3,5,8,11)      =        -3.110246	    -178.203949
	 D(4,2,3,5)       =        -0.296367	     -16.980584
	*D(4,2,3,6)       =         1.919862	     110.000014
	 D(4,2,3,7)       =        -2.117117	    -121.301894
	 D(5,8,11,12)     =        -3.140153	    -179.917500
	 D(5,8,11,13)     =        -1.021005	     -58.499305
	 D(5,8,11,14)     =         1.103200	      63.208723
	 D(6,3,5,8)       =        -1.113736	     -63.812390
	 D(6,3,5,9)       =         1.036114	      59.364972
	 D(6,3,5,10)      =         3.121280	     178.836173
	 D(7,3,5,8)       =        -3.052660	    -174.904538
	 D(7,3,5,9)       =        -0.902810	     -51.727176
	 D(7,3,5,10)      =         1.182356	      67.744026
	 D(9,5,8,11)      =         1.238076	      70.936531
	 D(10,5,8,11)     =        -0.996523	     -57.096572

	Current energy   :      -247.5559399228

	Energy change for the previous step:
		Projected    :        -0.0001696612
		Actual       :         0.6653545097

	Performing BFGS update.
	Previous computed or guess Hessian on step 1.
	Steps to be used in Hessian update: 1
	Taking RFO optimization step.
	Going to follow RFO solution 1.
	Using RFO vector 1.

	Determining step-restricting scale parameter for RS-RFO.
	Maximum step size allowed    0.50000

	 Iter      |step|        alpha        rfo_root  
	------------------------------------------------
	    0     0.81233       1.00000           1
	    1     0.61452       1.95623           1
	    2     0.52534       2.80727           1
	    3     0.50176       3.11542           1
	    4     0.50001       3.14017           1
	------------------------------------------------
	Norm of target step-size    0.50001
	Projected energy change by RFO approximation:        -0.1621784110

	Back-transformation to cartesian coordinates...
	Could not converge backtransformation.
	Using first guess instead.

	Back-transformation to cartesian coordinates to adjust frozen coordinates...
	Successfully converged to displaced geometry.

	--- Internal Coordinate Step in ANG or DEG, aJ/ANG or AJ/DEG ---
	 ---------------------------------------------------------------------------
	   Coordinate                Previous        Force       Change         New 
	   ----------                --------       ------       ------       ------
	    1 R(1,2)          =      1.336517    -1.009632    -0.076207     1.260309
	    2 R(2,3)          =      1.960730    -0.898537    -0.082611     1.878119
	    3 R(2,4)          =      1.225479    -0.906128    -0.060201     1.165277
	    4 R(3,5)          =      1.628437    -0.489957    -0.033596     1.594841
	    5 R(3,6)          =      1.516392    -0.915824    -0.079197     1.437196
	    6 R(3,7)          =      1.392396    -0.788735    -0.062778     1.329618
	    7 R(5,8)          =      1.753859    -0.805602    -0.065159     1.688699
	    8 R(5,9)          =      1.482414    -0.866313    -0.073494     1.408920
	    9 R(5,10)         =      1.522999    -0.914491    -0.079257     1.443742
	   10 R(8,11)         =      1.470194    -0.486424    -0.029236     1.440958
	   11 R(11,12)        =      1.400684    -0.822931    -0.064491     1.336193
	   12 R(11,13)        =      1.457049    -0.858326    -0.069991     1.387059
	   13 R(11,14)        =      1.521664    -0.861332    -0.076307     1.445356
	   14 B(1,2,3)        =    108.869023    -0.000528    -0.334442   108.534581
	   15 B(1,2,4)        =     99.763131     0.001872     1.682615   101.445745
	   16 B(2,3,5)        =    106.949188     0.000929     1.031247   107.980436
	   17 B(2,3,6)        =    112.082787    -0.000009    -0.023519   112.059269
	   18 B(2,3,7)        =    120.982051    -0.002093    -2.163479   118.818572
	   19 B(3,2,4)        =    126.935738    -0.004211    -4.174781   122.760957
	   20 B(3,5,8)        =     94.582456     0.004792     4.390319    98.972775
	   21 B(3,5,9)        =    105.434645    -0.000041     0.194974   105.629620
	   22 B(3,5,10)       =    116.603984    -0.001415    -1.389704   115.214280
	   23 B(5,3,6)        =    115.062524    -0.000811    -0.922459   114.140066
	   24 B(5,3,7)        =     93.026016     0.002048     2.139972    95.165988
	   25 B(5,8,11)       =    100.558466     0.004511     4.068597   104.627063
	   26 B(6,3,7)        =    107.648063     0.000144     0.133631   107.781694
	   27 B(8,5,9)        =    120.301313    -0.002179    -2.160143   118.141170
	   28 B(8,5,10)       =    111.944667    -0.001540    -1.346274   110.598393
	   29 B(8,11,12)      =     94.708841     0.003570     3.474321    98.183162
	   30 B(8,11,13)      =    104.316503     0.002209     2.150020   106.466523
	   31 B(8,11,14)      =    116.872377    -0.001167    -1.195033   115.677344
	   32 B(9,5,10)       =    107.749040     0.000628     0.495100   108.244141
	   33 B(12,11,13)     =    118.887254    -0.001815    -1.991422   116.895832
	   34 B(12,11,14)     =    111.392051    -0.001196    -1.094215   110.297836
	   35 B(13,11,14)     =    110.029532    -0.000931    -0.858139   109.171394
	   36 D(1,2,3,5)      =   -135.740749     0.000346     1.510526  -134.230223
	   37 D(1,2,3,6)      =     -8.760151     0.000263     1.074163    -7.685988
	   38 D(1,2,3,7)      =    119.937942    -0.000169    -0.822777   119.115165
	   39 D(2,3,5,8)      =     61.384294     0.000202     0.821381    62.205675
	   40 D(2,3,5,9)      =   -175.438343     0.000083     0.327414  -175.110929
	   41 D(2,3,5,10)     =    -55.967142     0.000064     0.266138   -55.701005
	   42 D(3,5,8,11)     =   -178.203949     0.000152     0.696039  -177.507910
	   43 D(4,2,3,5)      =    -16.980584     0.000082     0.436363   -16.544221
	   44 *D(4,2,3,6)     =    110.000014     0.000000     0.000000   110.000014
	   45 D(4,2,3,7)      =   -121.301894    -0.000432    -1.896940  -123.198834
	   46 D(5,8,11,12)    =   -179.917500     0.000020     0.125514  -179.791986
	   47 D(5,8,11,13)    =    -58.499305    -0.000008    -0.022508   -58.521813
	   48 D(5,8,11,14)    =     63.208723    -0.000063    -0.259321    62.949402
	   49 D(6,3,5,8)      =    -63.812390     0.000168     0.698546   -63.113845
	   50 D(6,3,5,9)      =     59.364972     0.000048     0.204579    59.569551
	   51 D(6,3,5,10)     =    178.836173     0.000030     0.143303   178.979476
	   52 D(7,3,5,8)      =   -174.904538    -0.000071    -0.328829  -175.233367
	   53 D(7,3,5,9)      =    -51.727176    -0.000190    -0.822796   -52.549971
	   54 D(7,3,5,10)     =     67.744026    -0.000209    -0.884072    66.859953
	   55 D(9,5,8,11)     =     70.936531    -0.000403    -1.634108    69.302423
	   56 D(10,5,8,11)    =    -57.096572     0.000237     0.926448   -56.170124
	 ---------------------------------------------------------------------------
	Successfully symmetrized geometry.

  ==> Convergence Check <==

  Measures of convergence in internal coordinates in au.
  Criteria marked as inactive (o), active & met (*), and active & unmet ( ).
  ---------------------------------------------------------------------------------------------
   Step     Total Energy     Delta E     MAX Force     RMS Force      MAX Disp      RMS Disp   
  ---------------------------------------------------------------------------------------------
    Convergence Criteria    1.00e-06 *    3.00e-04 *             o    1.20e-03 *             o
  ---------------------------------------------------------------------------------------------
      2    -247.55593992    6.65e-01      1.23e-01      5.24e-02 o    1.56e-01      6.64e-02 o  ~
  ---------------------------------------------------------------------------------------------

	Writing optimization data to binary file.
	Structure for next step:
	Cartesian Geometry (in Angstrom)
	    H    -2.9106518286   0.5036373728   0.5048007858
	    N    -1.9875988179  -0.2413750222   0.9306055034
	    C    -0.4709919233   0.8162074848   1.2603857633
	    H    -1.9992438494  -1.0982679974   0.1410041171
	    C     0.7945689027   0.0686063071   0.6415433536
	    H    -0.6421803673   2.1652576754   0.7953167111
	    H     0.0153229455   0.8715178687   2.4966397361
	    O     0.3322643972   0.0685986022  -0.9826424601
	    H     1.9119025320   0.8416463801   1.0144099063
	    H     1.0017977066  -1.2809743197   1.1106706542
	    C     1.3842261758  -0.6458109791  -1.6604005406
	    H     0.8992469398  -0.5648555290  -2.9028384567
	    H     2.5591765742   0.0435743758  -1.3993050143
	    H     1.5501876971  -2.0292197360  -1.2760939261
			--------------------------
			 OPTKING Finished Execution 
			--------------------------

    Structure for next step:
    Molecular point group: c1
    Full point group: C1

    Geometry (in Angstrom), charge = 0, multiplicity = 1:

    H           -2.915712686926     0.503193768292     0.495465368709
    N           -1.992659676223    -0.241818626720     0.921270086246
    C           -0.476052781625     0.815763880280     1.251050346166
    H           -2.004304707727    -1.098711601894     0.131668699936
    C            0.789508044360     0.068162702627     0.632207936462
    H           -0.647241225655     2.164814070878     0.785981293996
    H            0.010262087148     0.871074264188     2.487304319004
    O            0.327203538867     0.068154997677    -0.991977877246
    H            1.906841673659     0.841202775561     1.005074489205
    H            0.996736848187    -1.281417924213     1.101335237027
    C            1.379165317453    -0.646254583567    -1.669735957704
    H            0.894186081389    -0.565299133530    -2.912173873797
    H            2.554115715859     0.043130771270    -1.408640431460
    H            1.545126838723    -2.029663340548    -1.285429343187

gradient() will perform analytic gradient computation.

*** tstart() called on cx1-27-2-3
*** at Sat Sep 10 16:22:53 2016


         ---------------------------------------------------------
                                   SCF
            by Justin Turney, Rob Parrish, and Andy Simmonett
                              RHF Reference
                        4 Threads,   2000 MiB Core
         ---------------------------------------------------------

  ==> Geometry <==

    Molecular point group: c1
    Full point group: C1

    Geometry (in Angstrom), charge = 0, multiplicity = 1:

       Center              X                  Y                   Z               Mass       
    ------------   -----------------  -----------------  -----------------  -----------------
           H         -2.915712686926     0.503193768292     0.495465368709     1.007825032070
           N         -1.992659676223    -0.241818626720     0.921270086246    14.003074004780
           C         -0.476052781625     0.815763880280     1.251050346166    12.000000000000
           H         -2.004304707727    -1.098711601894     0.131668699936     1.007825032070
           C          0.789508044360     0.068162702627     0.632207936462    12.000000000000
           H         -0.647241225655     2.164814070878     0.785981293996     1.007825032070
           H          0.010262087148     0.871074264188     2.487304319004     1.007825032070
           O          0.327203538867     0.068154997677    -0.991977877246    15.994914619560
           H          1.906841673659     0.841202775561     1.005074489205     1.007825032070
           H          0.996736848187    -1.281417924213     1.101335237027     1.007825032070
           C          1.379165317453    -0.646254583567    -1.669735957704    12.000000000000
           H          0.894186081389    -0.565299133530    -2.912173873797     1.007825032070
           H          2.554115715859     0.043130771270    -1.408640431460     1.007825032070
           H          1.545126838723    -2.029663340548    -1.285429343187     1.007825032070

  Running in c1 symmetry.

  Rotational constants: A =      0.25047  B =      0.08397  C =      0.07156 [cm^-1]
  Rotational constants: A =   7508.86452  B =   2517.35648  C =   2145.39836 [MHz]
  Nuclear repulsion =  171.043542818951977

  Charge       = 0
  Multiplicity = 1
  Electrons    = 42
  Nalpha       = 21
  Nbeta        = 21

  ==> Algorithm <==

  SCF Algorithm Type is DF.
  DIIS enabled.
  MOM disabled.
  Fractional occupation disabled.
  Guess Type is READ.
  Energy threshold   = 1.00e-08
  Density threshold  = 1.00e-08
  Integral threshold = 0.00e+00

  ==> Primary Basis <==

  Basis Set: CC-PVTZ
    Number of shells: 104
    Number of basis function: 276
    Number of Cartesian functions: 310
    Spherical Harmonics?: true
    Max angular momentum: 3

  ==> Pre-Iterations <==

   -------------------------------------------------------
    Irrep   Nso     Nmo     Nalpha   Nbeta   Ndocc  Nsocc
   -------------------------------------------------------
     A        276     276       0       0       0       0
   -------------------------------------------------------
    Total     276     276      21      21      21       0
   -------------------------------------------------------

  ==> Integral Setup <==

  ==> DFJK: Density-Fitted J/K Matrices <==

    J tasked:                  Yes
    K tasked:                  Yes
    wK tasked:                  No
    OpenMP threads:              4
    Integrals threads:           4
    Memory (MB):              1430
    Algorithm:                Core
    Integral Cache:           NONE
    Schwarz Cutoff:          1E-12
    Fitting Condition:       1E-12

   => Auxiliary Basis Set <=

  Basis Set: 
    Number of shells: 215
    Number of basis function: 665
    Number of Cartesian functions: 795
    Spherical Harmonics?: true
    Max angular momentum: 4

  Minimum eigenvalue in the overlap matrix is 1.3636626299E-03.
  Using Symmetric Orthogonalization.
  SCF Guess: Reading in previously saved MOs, projecting if necessary.

  Using orbitals from previous SCF, no projection.
  Recomputing DOCC and SOCC from number of alpha and beta electrons from previous calculation.
              A 
    DOCC [    21 ]

  ==> Iterations <==

                           Total Energy        Delta E     RMS |[F,P]|

   @DF-RHF iter   0:  -248.03997936813997   -2.48040e+02   7.48940e-04 
   @DF-RHF iter   1:  -247.73785025420270    3.02129e-01   3.41991e-04 
   @DF-RHF iter   2:  -247.74226827429052   -4.41802e-03   2.19859e-04 DIIS
   @DF-RHF iter   3:  -247.74416524111805   -1.89697e-03   2.31268e-05 DIIS
   @DF-RHF iter   4:  -247.74422071507163   -5.54740e-05   8.81196e-06 DIIS
   @DF-RHF iter   5:  -247.74422797827643   -7.26320e-06   3.78232e-06 DIIS
   @DF-RHF iter   6:  -247.74422940039952   -1.42212e-06   1.18194e-06 DIIS
   @DF-RHF iter   7:  -247.74422959812401   -1.97724e-07   4.70833e-07 DIIS
   @DF-RHF iter   8:  -247.74422962452522   -2.64012e-08   2.27450e-07 DIIS
   @DF-RHF iter   9:  -247.74422962949981   -4.97459e-09   6.63487e-08 DIIS
   @DF-RHF iter  10:  -247.74422963017170   -6.71889e-10   2.23308e-08 DIIS
   @DF-RHF iter  11:  -247.74422963023673   -6.50289e-11   1.06736e-08 DIIS
   @DF-RHF iter  12:  -247.74422963024543   -8.69704e-12   3.54120e-09 DIIS

  ==> Post-Iterations <==

    Orbital Energies (a.u.)
    -----------------------

    Doubly Occupied:                                                      

       1A    -20.584101     2A    -15.591534     3A    -11.382968  
       4A    -11.361893     5A    -11.359428     6A     -1.322224  
       7A     -1.041734     8A     -0.953261     9A     -0.820812  
      10A     -0.742410    11A     -0.594363    12A     -0.586565  
      13A     -0.571191    14A     -0.533531    15A     -0.516680  
      16A     -0.496427    17A     -0.476230    18A     -0.452767  
      19A     -0.427956    20A     -0.407853    21A     -0.370102  

    Virtual:                                                              

      22A      0.098009    23A      0.104394    24A      0.122777  
      25A      0.137107    26A      0.165034    27A      0.184060  
      28A      0.189248    29A      0.198280    30A      0.214202  
      31A      0.220915    32A      0.242684    33A      0.295648  
      34A      0.310992    35A      0.387605    36A      0.396511  
      37A      0.409555    38A      0.437681    39A      0.444924  
      40A      0.466972    41A      0.474943    42A      0.492178  
      43A      0.502144    44A      0.512707    45A      0.535164  
      46A      0.537018    47A      0.552448    48A      0.561629  
      49A      0.564505    50A      0.572594    51A      0.587853  
      52A      0.609809    53A      0.651135    54A      0.668314  
      55A      0.712078    56A      0.714405    57A      0.737770  
      58A      0.753160    59A      0.781643    60A      0.828395  
      61A      0.853531    62A      0.872323    63A      0.913146  
      64A      0.919370    65A      0.927746    66A      0.968083  
      67A      0.973307    68A      0.987016    69A      1.037313  
      70A      1.051839    71A      1.055785    72A      1.078838  
      73A      1.081104    74A      1.100356    75A      1.120634  
      76A      1.146403    77A      1.161957    78A      1.165102  
      79A      1.175662    80A      1.192711    81A      1.207400  
      82A      1.248689    83A      1.250940    84A      1.279959  
      85A      1.296840    86A      1.317934    87A      1.338134  
      88A      1.347903    89A      1.365153    90A      1.376683  
      91A      1.389232    92A      1.408662    93A      1.413001  
      94A      1.424366    95A      1.439548    96A      1.452629  
      97A      1.470524    98A      1.476965    99A      1.509427  
     100A      1.510869   101A      1.564572   102A      1.586783  
     103A      1.611746   104A      1.632953   105A      1.696232  
     106A      1.804040   107A      1.827829   108A      1.861065  
     109A      1.891404   110A      1.986703   111A      2.060074  
     112A      2.104948   113A      2.148652   114A      2.162646  
     115A      2.389600   116A      2.506759   117A      2.562605  
     118A      2.592160   119A      2.622747   120A      2.646340  
     121A      2.675060   122A      2.709440   123A      2.717410  
     124A      2.756843   125A      2.759226   126A      2.807152  
     127A      2.828155   128A      2.836761   129A      2.861862  
     130A      2.864519   131A      2.875223   132A      2.892362  
     133A      2.912285   134A      2.924076   135A      2.929278  
     136A      2.945616   137A      2.970858   138A      2.983515  
     139A      3.018203   140A      3.057972   141A      3.073927  
     142A      3.126448   143A      3.148284   144A      3.160303  
     145A      3.181149   146A      3.216737   147A      3.230900  
     148A      3.247177   149A      3.272528   150A      3.326179  
     151A      3.338078   152A      3.358109   153A      3.377923  
     154A      3.390744   155A      3.398853   156A      3.400956  
     157A      3.416058   158A      3.436774   159A      3.447908  
     160A      3.454212   161A      3.466847   162A      3.471234  
     163A      3.485265   164A      3.503965   165A      3.513821  
     166A      3.526269   167A      3.551996   168A      3.568892  
     169A      3.582269   170A      3.599145   171A      3.602744  
     172A      3.611372   173A      3.640230   174A      3.650684  
     175A      3.665309   176A      3.691624   177A      3.700434  
     178A      3.713602   179A      3.737759   180A      3.749803  
     181A      3.757999   182A      3.771389   183A      3.784682  
     184A      3.800166   185A      3.818879   186A      3.834270  
     187A      3.884039   188A      3.906825   189A      3.954355  
     190A      3.975386   191A      3.983159   192A      3.997768  
     193A      4.013810   194A      4.035307   195A      4.044004  
     196A      4.064594   197A      4.074572   198A      4.086641  
     199A      4.123460   200A      4.132340   201A      4.137385  
     202A      4.159201   203A      4.170892   204A      4.178031  
     205A      4.189144   206A      4.211286   207A      4.222135  
     208A      4.240478   209A      4.244494   210A      4.264870  
     211A      4.299326   212A      4.320048   213A      4.339975  
     214A      4.383878   215A      4.398953   216A      4.410798  
     217A      4.421001   218A      4.430534   219A      4.440931  
     220A      4.456945   221A      4.489481   222A      4.510182  
     223A      4.537211   224A      4.569149   225A      4.587827  
     226A      4.597112   227A      4.599614   228A      4.640041  
     229A      4.662911   230A      4.692874   231A      4.734147  
     232A      4.744579   233A      4.783967   234A      4.799084  
     235A      4.827177   236A      4.882207   237A      4.888356  
     238A      4.913227   239A      4.929490   240A      4.957027  
     241A      5.042677   242A      5.100163   243A      5.135360  
     244A      5.166863   245A      5.289673   246A      5.395467  
     247A      5.464440   248A      5.500555   249A      5.510472  
     250A      5.544908   251A      5.571855   252A      5.633472  
     253A      5.655758   254A      5.707418   255A      5.741755  
     256A      5.766009   257A      5.814395   258A      5.821099  
     259A      5.891485   260A      5.942647   261A      6.003927  
     262A      6.086588   263A      6.188392   264A      6.388877  
     265A      6.492606   266A      6.706812   267A      7.117456  
     268A      7.139628   269A      7.292614   270A      7.504192  
     271A      7.571936   272A      8.010712   273A      9.109639  
     274A      9.363130   275A      9.563718   276A     10.563427  

    Final Occupation by Irrep:
              A 
    DOCC [    21 ]

  Energy converged.

  @DF-RHF Final Energy:  -247.74422963024543

   => Energetics <=

    Nuclear Repulsion Energy =            171.0435428189519769
    One-Electron Energy =                -676.3874823971019623
    Two-Electron Energy =                 257.5997099479045573
    DFT Exchange-Correlation Energy =       0.0000000000000000
    Empirical Dispersion Energy =           0.0000000000000000
    PCM Polarization Energy =               0.0000000000000000
    EFP Energy =                            0.0000000000000000
    Total Energy =                       -247.7442296302453997


  Saving occupied orbitals to File 180.

*** tstop() called on cx1-27-2-3 at Sat Sep 10 16:22:58 2016
Module time:
	user time   =      14.32 seconds =       0.24 minutes
	system time =       0.29 seconds =       0.00 minutes
	total time  =          5 seconds =       0.08 minutes
Total time:
	user time   =      80.58 seconds =       1.34 minutes
	system time =       1.83 seconds =       0.03 minutes
	total time  =         24 seconds =       0.40 minutes


Properties will be evaluated at   0.000000,   0.000000,   0.000000 Bohr

Properties computed using the SCF density matrix

  Nuclear Dipole Moment: (a.u.)
     X:     2.2010      Y:    -0.5161      Z:     0.3681

  Electronic Dipole Moment: (a.u.)
     X:    -1.6174      Y:     0.6754      Z:    -0.2641

  Dipole Moment: (a.u.)
     X:     0.5837      Y:     0.1593      Z:     0.1040     Total:     0.6139

  Dipole Moment: (Debye)
     X:     1.4835      Y:     0.4048      Z:     0.2644     Total:     1.5603


*** tstart() called on cx1-27-2-3
*** at Sat Sep 10 16:22:58 2016


         ------------------------------------------------------------
                                   SCF GRAD                          
                          Rob Parrish, Justin Turney,                
[...]
	   13 R(11,14)        =      2.491704    -0.222157     1.140714     3.632419
	   14 B(1,2,3)        =     81.264852     0.001183     0.967099    82.231951
	   15 B(1,2,4)        =    109.996838    -0.000277    -3.299930   106.696908
	   16 B(2,3,5)        =     64.642609    -0.002397   -23.512128    41.130481
	   17 B(2,3,6)        =    121.787739     0.001937    10.281401   132.069141
	   18 B(2,3,7)        =    120.339701     0.001597     6.092153   126.431854
	   19 B(3,2,4)        =    137.609585    -0.001408     7.709073   145.318658
	   20 B(3,5,8)        =    135.643489     0.000894    -1.654565   133.988924
	   21 B(3,5,9)        =     51.930737    -0.004338   -10.021260    41.909477
	   22 B(3,5,10)       =    127.053872     0.000462     5.536423   132.590296
	   23 B(5,3,6)        =    139.439222     0.001093     8.346711   147.785933
	   24 B(5,3,7)        =     97.617300    -0.000521    12.978628   110.595928
	   25 B(5,8,11)       =    126.389389    -0.005424    -7.489635   118.899753
	   26 B(6,3,7)        =    108.231483    -0.001586   -12.637355    95.594128
	   27 B(8,5,9)        =    140.852855     0.004167     9.467047   150.319903
	   28 B(8,5,10)       =     87.744213    -0.000843     1.309390    89.053603
	   29 B(8,11,12)      =    111.888191     0.001094    -7.587892   104.300299
	   30 B(8,11,13)      =     71.716902    -0.001810   -22.517265    49.199637
	   31 B(8,11,14)      =    142.839255    -0.002108     9.134449   151.973704
	   32 B(9,5,10)       =    117.319011    -0.000309    -5.706386   111.612625
	   33 B(12,11,13)     =    134.281639     0.000339     4.201854   138.483493
	   34 B(12,11,14)     =     94.147763     0.001311     6.368334   100.516097
	   35 B(13,11,14)     =    108.953814     0.000194     6.358771   115.312585
	   36 D(1,2,3,5)      =   -134.230001    -0.000176     1.663786  -132.566215
	   37 D(1,2,3,6)      =     -0.173553    -0.000129     1.966194     1.792641
	   38 D(1,2,3,7)      =    141.936228     0.000527     5.897357   147.833585
	   39 D(2,3,5,8)      =     64.489337     0.000017    -0.572144    63.917192
	   40 D(2,3,5,9)      =   -168.064752     0.000671     9.064162  -159.000590
	   41 D(2,3,5,10)     =    -70.069106    -0.000152   -14.902769   -84.971875
	   42 D(3,5,8,11)     =    179.867823    -0.000387    -2.618878   177.248945
	   43 D(4,2,3,5)      =    -24.056434    -0.000047    -0.302408   -24.358843
	   44 *D(4,2,3,6)     =    110.000014     0.000000    -0.000000   110.000014
	   45 D(4,2,3,7)      =   -107.890205     0.000655     3.931163  -103.959043
	   46 D(5,8,11,12)    =   -170.309813     0.000135     4.646503  -165.663310
	   47 D(5,8,11,13)    =    -39.033425     0.000096    16.570306   -22.463119
	   48 D(5,8,11,14)    =     58.459538    -0.000287   -15.731029    42.728509
	   49 D(6,3,5,8)      =    -45.556586    -0.000059    14.112805   -31.443781
	   50 D(6,3,5,9)      =     81.889325     0.000595    23.749112   105.638437
	   51 D(6,3,5,10)     =    179.884971    -0.000228    -0.217819   179.667152
	   52 D(7,3,5,8)      =   -175.472457     0.000547     1.677055  -173.795402
	   53 D(7,3,5,9)      =    -48.026545     0.001201    11.313361   -36.713184
	   54 D(7,3,5,10)     =     49.969101     0.000378   -12.653569    37.315531
	   55 D(9,5,8,11)     =     97.957343     0.000360    12.571665   110.529008
	   56 D(10,5,8,11)    =    -34.819209    -0.000222     9.706590   -25.112619
	 ---------------------------------------------------------------------------
	Successfully symmetrized geometry.

  ==> Convergence Check <==

  Measures of convergence in internal coordinates in au.
  Criteria marked as inactive (o), active & met (*), and active & unmet ( ).
  ---------------------------------------------------------------------------------------------
   Step     Total Energy     Delta E     MAX Force     RMS Force      MAX Disp      RMS Disp   
  ---------------------------------------------------------------------------------------------
    Convergence Criteria    1.00e-06 *    3.00e-04 *             o    1.20e-03 *             o
  ---------------------------------------------------------------------------------------------
      8    -246.11324262   -9.46e-02      2.81e-01      5.17e-02 o    2.81e+00      1.01e+00 o  ~
  ---------------------------------------------------------------------------------------------

	Writing optimization data to binary file.
	Structure for next step:
	Cartesian Geometry (in Angstrom)
	    H     0.0804257246   1.7152878501   3.4372234444
	    N    -1.2557261758   1.2108866095   0.9704984328
	    C    -0.5491457694  -2.8123534314   2.0711802970
	    H    -0.7125964462   2.7757096999  -0.3461505978
	    C    -0.3252106255  -1.4739033319   0.2540393193
	    H     1.1257479098  -4.4214762981   5.2472625161
	    H    -2.8049597106  -5.8468527098   1.2562700354
	    O     1.7790337343   1.6245001074  -0.5195670328
	    H    -0.5764327262  -5.1918953604   1.0177014922
	    H    -2.9115078762  -0.3695748941  -2.6902736604
	    C     1.7015019767   2.2766870359  -2.0102911514
	    H     4.2386937653   4.2818453256  -2.1385568197
	    H     0.9047469116  -1.2496869480  -0.7862746327
	    H    -0.1456202357   3.3560797745  -4.9458519988
			--------------------------
			 OPTKING Finished Execution 
			--------------------------

    Structure for next step:
    Molecular point group: c1
    Full point group: C1

    Geometry (in Angstrom), charge = 0, multiplicity = 1:

    H           -0.185857224308     1.530979483955     3.315861825781
    N           -1.522009124755     1.026578243439     0.849136814245
    C           -0.815428718306    -2.996661797452     1.949818678373
    H           -0.978879395180     2.591401333796    -0.467512216357
    C           -0.591493574490    -1.658211698027     0.132677700658
    H            0.859464960861    -4.605784664182     5.125900897486
    H           -3.071242659578    -6.031161075951     1.134908416772
    O            1.512750785386     1.440191741288    -0.640928651428
    H           -0.842715675105    -5.376203726516     0.896339873650
    H           -3.177790825178    -0.553883260168    -2.811635278972
    C            1.435219027702     2.092378669773    -2.131652769973
    H            3.972410816363     4.097536959502    -2.259918438284
    H            0.638463962662    -1.433995314094    -0.907636251290
    H           -0.411903184682     3.171771408377    -5.067213617363

gradient() will perform analytic gradient computation.

*** tstart() called on cx1-27-2-3
*** at Sat Sep 10 16:23:57 2016


         ---------------------------------------------------------
                                   SCF
            by Justin Turney, Rob Parrish, and Andy Simmonett
                              RHF Reference
                        4 Threads,   2000 MiB Core
         ---------------------------------------------------------

  ==> Geometry <==

    Molecular point group: c1
    Full point group: C1

    Geometry (in Angstrom), charge = 0, multiplicity = 1:

       Center              X                  Y                   Z               Mass       
    ------------   -----------------  -----------------  -----------------  -----------------
           H         -0.185857224308     1.530979483955     3.315861825781     1.007825032070
           N         -1.522009124755     1.026578243439     0.849136814245    14.003074004780
           C         -0.815428718306    -2.996661797452     1.949818678373    12.000000000000
           H         -0.978879395180     2.591401333796    -0.467512216357     1.007825032070
           C         -0.591493574490    -1.658211698027     0.132677700658    12.000000000000
           H          0.859464960861    -4.605784664182     5.125900897486     1.007825032070
           H         -3.071242659578    -6.031161075951     1.134908416772     1.007825032070
           O          1.512750785386     1.440191741288    -0.640928651428    15.994914619560
           H         -0.842715675105    -5.376203726516     0.896339873650     1.007825032070
           H         -3.177790825178    -0.553883260168    -2.811635278972     1.007825032070
           C          1.435219027702     2.092378669773    -2.131652769973    12.000000000000
           H          3.972410816363     4.097536959502    -2.259918438284     1.007825032070
           H          0.638463962662    -1.433995314094    -0.907636251290     1.007825032070
           H         -0.411903184682     3.171771408377    -5.067213617363     1.007825032070

  Running in c1 symmetry.

  Rotational constants: A =      0.10097  B =      0.02738  C =      0.02659 [cm^-1]
  Rotational constants: A =   3026.87483  B =    820.96791  C =    797.14018 [MHz]
  Nuclear repulsion =  106.358212567001146

  Charge       = 0
  Multiplicity = 1
  Electrons    = 42
  Nalpha       = 21
  Nbeta        = 21

  ==> Algorithm <==

  SCF Algorithm Type is DF.
  DIIS enabled.
  MOM disabled.
  Fractional occupation disabled.
  Guess Type is READ.
  Energy threshold   = 1.00e-08
  Density threshold  = 1.00e-08
  Integral threshold = 0.00e+00

  ==> Primary Basis <==

  Basis Set: CC-PVTZ
    Number of shells: 104
    Number of basis function: 276
    Number of Cartesian functions: 310
    Spherical Harmonics?: true
    Max angular momentum: 3

  ==> Pre-Iterations <==

   -------------------------------------------------------
    Irrep   Nso     Nmo     Nalpha   Nbeta   Ndocc  Nsocc
   -------------------------------------------------------
     A        276     276       0       0       0       0
   -------------------------------------------------------
    Total     276     276      21      21      21       0
   -------------------------------------------------------

  ==> Integral Setup <==

  ==> DFJK: Density-Fitted J/K Matrices <==

    J tasked:                  Yes
    K tasked:                  Yes
    wK tasked:                  No
    OpenMP threads:              4
    Integrals threads:           4
    Memory (MB):              1430
    Algorithm:                Core
    Integral Cache:           NONE
    Schwarz Cutoff:          1E-12
    Fitting Condition:       1E-12

   => Auxiliary Basis Set <=

  Basis Set: 
    Number of shells: 215
    Number of basis function: 665
    Number of Cartesian functions: 795
    Spherical Harmonics?: true
    Max angular momentum: 4

  Minimum eigenvalue in the overlap matrix is 9.4743521847E-03.
  Using Symmetric Orthogonalization.
  SCF Guess: Reading in previously saved MOs, projecting if necessary.

  Using orbitals from previous SCF, no projection.
  Recomputing DOCC and SOCC from number of alpha and beta electrons from previous calculation.
              A 
    DOCC [    21 ]

  ==> Iterations <==

                           Total Energy        Delta E     RMS |[F,P]|

   @DF-RHF iter   0:  -244.06604828881962   -2.44066e+02   4.14922e-03 
   @DF-RHF iter   1:  -244.71105610600273   -6.45008e-01   3.12595e-03 
   @DF-RHF iter   2:  -241.80953503848104    2.90152e+00   5.90910e-03 DIIS
   @DF-RHF iter   3:  -245.06623826333225   -3.25670e+00   2.58243e-03 DIIS
   @DF-RHF iter   4:  -245.37580891726418   -3.09571e-01   1.04273e-03 DIIS
   @DF-RHF iter   5:  -245.15644983689458    2.19359e-01   1.27322e-03 DIIS
   @DF-RHF iter   6:  -245.50361343880110   -3.47164e-01   1.02689e-03 DIIS
   @DF-RHF iter   7:  -245.58461415881789   -8.10007e-02   7.76786e-04 DIIS
   @DF-RHF iter   8:  -245.68604731620087   -1.01433e-01   5.09593e-04 DIIS
   @DF-RHF iter   9:  -245.65887681288297    2.71705e-02   5.97805e-04 DIIS
   @DF-RHF iter  10:  -245.72718039075045   -6.83036e-02   3.18807e-04 DIIS
   @DF-RHF iter  11:  -245.74133525747379   -1.41549e-02   1.70638e-04 DIIS
   @DF-RHF iter  12:  -245.74596462481725   -4.62937e-03   1.36502e-04 DIIS
   @DF-RHF iter  13:  -245.74931608616612   -3.35146e-03   5.83175e-05 DIIS
   @DF-RHF iter  14:  -245.75071282814815   -1.39674e-03   4.87546e-05 DIIS
   @DF-RHF iter  15:  -245.75187400639925   -1.16118e-03   3.90069e-05 DIIS
   @DF-RHF iter  16:  -245.75272498888648   -8.50982e-04   3.13946e-05 DIIS
   @DF-RHF iter  17:  -245.75316014665054   -4.35158e-04   2.56440e-05 DIIS
   @DF-RHF iter  18:  -245.75387686005638   -7.16713e-04   2.10382e-05 DIIS
   @DF-RHF iter  19:  -245.75427301105071   -3.96151e-04   1.91531e-05 DIIS
   @DF-RHF iter  20:  -245.75453992641741   -2.66915e-04   1.92259e-05 DIIS
   @DF-RHF iter  21:  -245.75471838372550   -1.78457e-04   1.91815e-05 DIIS
   @DF-RHF iter  22:  -245.75472056233701   -2.17861e-06   1.90039e-05 DIIS
   @DF-RHF iter  23:  -245.75472355597941   -2.99364e-06   1.90685e-05 DIIS
   @DF-RHF iter  24:  -245.75459666630195    1.26890e-04   1.89599e-05 DIIS
   @DF-RHF iter  25:  -245.75398573696373    6.10929e-04   1.93066e-05 DIIS
   @DF-RHF iter  26:  -245.75379640683002    1.89330e-04   1.88415e-05 DIIS
   @DF-RHF iter  27:  -245.75375483743943    4.15694e-05   1.82774e-05 DIIS
   @DF-RHF iter  28:  -245.75353566128615    2.19176e-04   1.88487e-05 DIIS
   @DF-RHF iter  29:  -245.75305259788036    4.83063e-04   2.26786e-05 DIIS
   @DF-RHF iter  30:  -245.75312600304443   -7.34052e-05   2.26940e-05 DIIS
   @DF-RHF iter  31:  -245.75309445385307    3.15492e-05   2.28237e-05 DIIS
   @DF-RHF iter  32:  -245.75310251300209   -8.05915e-06   2.28069e-05 DIIS
   @DF-RHF iter  33:  -245.75310002038026    2.49262e-06   2.28140e-05 DIIS
   @DF-RHF iter  34:  -245.75310074085013   -7.20470e-07   2.28121e-05 DIIS
   @DF-RHF iter  35:  -245.75310052672376    2.14126e-07   2.28127e-05 DIIS
   @DF-RHF iter  36:  -245.75310058974651   -6.30228e-08   2.28125e-05 DIIS
   @DF-RHF iter  37:  -245.75310057110858    1.86379e-08   2.28126e-05 DIIS
   @DF-RHF iter  38:  -245.75310057661090   -5.50233e-09   2.28126e-05 DIIS
   @DF-RHF iter  39:  -245.75310057498518    1.62572e-09   2.28126e-05 DIIS
   @DF-RHF iter  40:  -245.75310057546471   -4.79531e-10   2.28126e-05 DIIS
   @DF-RHF iter  41:  -245.75310057532340    1.41313e-10   2.28126e-05 DIIS
   @DF-RHF iter  42:  -245.75310057536552   -4.21210e-11   2.28126e-05 DIIS
   @DF-RHF iter  43:  -245.75310057535268    1.28466e-11   2.28126e-05 DIIS
   @DF-RHF iter  44:  -245.75310057535637   -3.69482e-12   2.28126e-05 DIIS
   @DF-RHF iter  45:  -245.75310057535575    6.25278e-13   2.28126e-05 DIIS
   @DF-RHF iter  46:  -245.75310057535614   -3.97904e-13   2.28126e-05 DIIS
   @DF-RHF iter  47:  -245.75310057535569    4.54747e-13   2.28126e-05 DIIS
   @DF-RHF iter  48:  -245.75310057535535    3.41061e-13   2.28126e-05 DIIS
   @DF-RHF iter  49:  -245.75310057535557   -2.27374e-13   2.28126e-05 DIIS
   @DF-RHF iter  50:  -245.75310057535569   -1.13687e-13   2.28126e-05 DIIS
   @DF-RHF iter  51:  -245.75310057535557    1.13687e-13   2.28126e-05 DIIS
   @DF-RHF iter  52:  -245.75310057535586   -2.84217e-13   2.28126e-05 DIIS
   @DF-RHF iter  53:  -245.75310057535569    1.70530e-13   2.28126e-05 DIIS
   @DF-RHF iter  54:  -245.75310057535592   -2.27374e-13   2.28126e-05 DIIS
   @DF-RHF iter  55:  -245.75310057535580    1.13687e-13   2.28126e-05 DIIS
   @DF-RHF iter  56:  -245.75310057535552    2.84217e-13   2.28126e-05 DIIS
   @DF-RHF iter  57:  -245.75310057535546    5.68434e-14   2.28126e-05 DIIS
   @DF-RHF iter  58:  -245.75310057535603   -5.68434e-13   2.28126e-05 DIIS
   @DF-RHF iter  59:  -245.75310057535592    1.13687e-13   2.28126e-05 DIIS
   @DF-RHF iter  60:  -245.75310057535552    3.97904e-13   2.28126e-05 DIIS
   @DF-RHF iter  61:  -245.75310057535557   -5.68434e-14   2.28126e-05 DIIS
   @DF-RHF iter  62:  -245.75310057535569   -1.13687e-13   2.28126e-05 DIIS
   @DF-RHF iter  63:  -245.75310057535557    1.13687e-13   2.28126e-05 DIIS
   @DF-RHF iter  64:  -245.75310057535569   -1.13687e-13   2.28126e-05 DIIS
   @DF-RHF iter  65:  -245.75310057535569    0.00000e+00   2.28126e-05 DIIS
   @DF-RHF iter  66:  -245.75310057535563    5.68434e-14   2.28126e-05 DIIS
   @DF-RHF iter  67:  -245.75310057535557    5.68434e-14   2.28126e-05 DIIS
   @DF-RHF iter  68:  -245.75310057535575   -1.70530e-13   2.28126e-05 DIIS
   @DF-RHF iter  69:  -245.75310057535575    0.00000e+00   2.28126e-05 DIIS
   @DF-RHF iter  70:  -245.75310057535609   -3.41061e-13   2.28126e-05 DIIS
   @DF-RHF iter  71:  -245.75310057535580    2.84217e-13   2.28126e-05 DIIS
   @DF-RHF iter  72:  -245.75310057535552    2.84217e-13   2.28126e-05 DIIS
   @DF-RHF iter  73:  -245.75310057535557   -5.68434e-14   2.28126e-05 DIIS
   @DF-RHF iter  74:  -245.75310057535592   -3.41061e-13   2.28126e-05 DIIS
   @DF-RHF iter  75:  -245.75310057535586    5.68434e-14   2.28126e-05 DIIS
   @DF-RHF iter  76:  -245.75310057535597   -1.13687e-13   2.28126e-05 DIIS
   @DF-RHF iter  77:  -245.75310057535569    2.84217e-13   2.28126e-05 DIIS
   @DF-RHF iter  78:  -245.75310057535569    0.00000e+00   2.28126e-05 DIIS
   @DF-RHF iter  79:  -245.75310057535569    0.00000e+00   2.28126e-05 DIIS
   @DF-RHF iter  80:  -245.75310057535569    0.00000e+00   2.28126e-05 DIIS
   @DF-RHF iter  81:  -245.75310057535580   -1.13687e-13   2.28126e-05 DIIS
   @DF-RHF iter  82:  -245.75310057535546    3.41061e-13   2.28126e-05 DIIS
   @DF-RHF iter  83:  -245.75310057535580   -3.41061e-13   2.28126e-05 DIIS
   @DF-RHF iter  84:  -245.75310057535592   -1.13687e-13   2.28126e-05 DIIS
   @DF-RHF iter  85:  -245.75310057535557    3.41061e-13   2.28126e-05 DIIS
   @DF-RHF iter  86:  -245.75310057535580   -2.27374e-13   2.28126e-05 DIIS
   @DF-RHF iter  87:  -245.75310057535569    1.13687e-13   2.28126e-05 DIIS
   @DF-RHF iter  88:  -245.75310057535603   -3.41061e-13   2.28126e-05 DIIS
   @DF-RHF iter  89:  -245.75310057535603    0.00000e+00   2.28126e-05 DIIS
   @DF-RHF iter  90:  -245.75310057535569    3.41061e-13   2.28126e-05 DIIS
   @DF-RHF iter  91:  -245.75310057535592   -2.27374e-13   2.28126e-05 DIIS
   @DF-RHF iter  92:  -245.75310057535540    5.11591e-13   2.28126e-05 DIIS
   @DF-RHF iter  93:  -245.75310057535569   -2.84217e-13   2.28126e-05 DIIS
   @DF-RHF iter  94:  -245.75310057535563    5.68434e-14   2.28126e-05 DIIS
   @DF-RHF iter  95:  -245.75310057535586   -2.27374e-13   2.28126e-05 DIIS
   @DF-RHF iter  96:  -245.75310057535592   -5.68434e-14   2.28126e-05 DIIS
   @DF-RHF iter  97:  -245.75310057535592    0.00000e+00   2.28126e-05 DIIS
   @DF-RHF iter  98:  -245.75310057535546    4.54747e-13   2.28126e-05 DIIS
   @DF-RHF iter  99:  -245.75310057535569   -2.27374e-13   2.28126e-05 DIIS
   @DF-RHF iter 100:  -245.75310057535569    0.00000e+00   2.28126e-05 DIIS

  ==> Post-Iterations <==

  Failed to converge.
Iterations did not converge.An error has occurred python-side. Traceback (most recent call last):

  File "<string>", line 48, in <module>

  File "/export131/home/mjharvey/miniconda3/share/psi4/python/driver.py", line 1026, in optimize
    G, wfn = gradient(lowername, return_wfn=True, molecule=moleculeclone, **kwargs)

  File "/export131/home/mjharvey/miniconda3/share/psi4/python/driver.py", line 592, in gradient
    wfn = procedures['gradient'][lowername](lowername, molecule=molecule, **kwargs)

  File "/export131/home/mjharvey/miniconda3/share/psi4/python/procedures/proc.py", line 1705, in run_scf_gradient
    ref_wfn = run_scf(name, **kwargs)

  File "/export131/home/mjharvey/miniconda3/share/psi4/python/procedures/proc.py", line 1689, in run_scf
    scf_wfn = scf_helper(name, **kwargs)

  File "/export131/home/mjharvey/miniconda3/share/psi4/python/procedures/proc.py", line 1170, in scf_helper
    scf_wfn = psi4.scf(ref_wfn, precallback, postcallback)

RuntimeError: 
Fatal Error: Iterations did not converge.
Error occurred in file: /scratch/cdsgroup/conda-builds/work/src/lib/libparallel/process.cc on line: 207
The most recent 5 function calls were:

psi::PsiException::PsiException(std::string, char const*, int)
psi::die_if_not_converged()
psi::scf::HF::finalize_E()
psi::scf::HF::compute_energy()
psi::scf::scf(boost::shared_ptr<psi::Wavefunction>, psi::Options&, _object*, _object*)



