    -----------------------------------------------------------------------
          Psi4: An Open-Source Ab Initio Electronic Structure Package
                              Psi4 1.0.54 Driver

                          Git: Rev {master} 8d4cec3 dirty

    J. M. Turney, A. C. Simmonett, R. M. Parrish, E. G. Hohenstein,
    F. A. Evangelista, J. T. Fermann, B. J. Mintz, L. A. Burns, J. J. Wilke,
    M. L. Abrams, N. J. Russ, M. L. Leininger, C. L. Janssen, E. T. Seidl,
    W. D. Allen, H. F. Schaefer, R. A. King, E. F. Valeev, C. D. Sherrill,
    and T. D. Crawford, WIREs Comput. Mol. Sci. 2, 556-565 (2012)
    (doi: 10.1002/wcms.93)

                         Additional Contributions by
    A. E. DePrince, U. Bozkaya, A. Yu. Sokolov, D. G. A. Smith, R. Di Remigio,
    R. M. Richard, J. F. Gonthier, H. R. McAlexander, M. Saitow, and
    B. P. Pritchard
    -----------------------------------------------------------------------


    Psi4 started on: Sat Sep 10 17:41:27 2016

    Process ID:  11766
    PSI4DATADIR: /export131/home/mjharvey/miniconda3/share/psi4
    Memory level set to 256.000 MB

  ==> Input File <==

--------------------------------------------------------------------------
set {
	reference rhf
	basis cc-pvtz
}


set_num_threads( 4 )
memory 2 gb

molecule MOL {
0 1

H	 3.770553	 0.455376	 1.065392
N	 2.958515	 -0.124123	 1.085211
C	 1.790632	 0.593716	 0.599189
H	 2.828669	 -0.416884	 2.031138
C	 0.573392	 -0.317840	 0.553151
H	 2.011612	 0.946182	 -0.402731
H	 1.555905	 1.475813	 1.196485
C	 -0.678115	 0.376691	 0.025731
H	 0.810026	 -1.178821	 -0.063389
H	 0.378470	 -0.699979	 1.553380
C	 -1.900706	 -0.535531	 -0.022488
H	 -0.481825	 0.762153	 -0.972189
H	 -0.902916	 1.241281	 0.646070
C	 -3.220513	 0.226854	 0.028039
H	 -1.865036	 -1.134397	 -0.928236
H	 -1.857948	 -1.236381	 0.806820
H	 -3.309098	 0.911849	 -0.808725
H	 -4.066838	 -0.449485	 -0.008086
H	 -3.301685	 0.809374	 0.939860

	symmetry c1
}
set optking {
	frozen_dihedral = ("
		12 8 11 15
	")
}

ee,wfn = optimize('scf', return_wfn=True)
oeprop( wfn, 'DIPOLE', 'QUADRUPOLE', 'MULLIKEN_CHARGES')
f=open( 'psi4out.xyz', 'w' )
f.write( "19  " )
f.write( str(ee) + "\n" )
f.write( MOL.save_string_xyz() )
f.close()
--------------------------------------------------------------------------

  Memory set to   2.000 GiB by Python script.
gradient() will perform analytic gradient computation.

*** tstart() called on cx1-28-12-4
*** at Sat Sep 10 17:41:28 2016


         ---------------------------------------------------------
                                   SCF
            by Justin Turney, Rob Parrish, and Andy Simmonett
                              RHF Reference
                        4 Threads,   2000 MiB Core
         ---------------------------------------------------------

  ==> Geometry <==

    Molecular point group: c1
    Full point group: C1

    Geometry (in Angstrom), charge = 0, multiplicity = 1:

       Center              X                  Y                   Z               Mass       
    ------------   -----------------  -----------------  -----------------  -----------------
           H          3.819461812140     0.410759789383     0.669373584438     1.007825032070
           N          3.007423812140    -0.168739210617     0.689192584438    14.003074004780
           C          1.839540812140     0.549099789383     0.203170584438    12.000000000000
           H          2.877577812140    -0.461500210617     1.635119584438     1.007825032070
           C          0.622300812140    -0.362456210617     0.157132584438    12.000000000000
           H          2.060520812140     0.901565789383    -0.798749415562     1.007825032070
           H          1.604813812140     1.431196789383     0.800466584438     1.007825032070
           C         -0.629206187860     0.332074789383    -0.370287415562    12.000000000000
           H          0.858934812140    -1.223437210617    -0.459407415562     1.007825032070
           H          0.427378812140    -0.744595210617     1.157361584438     1.007825032070
           C         -1.851797187860    -0.580147210617    -0.418506415562    12.000000000000
           H         -0.432916187860     0.717536789383    -1.368207415562     1.007825032070
           H         -0.854007187860     1.196664789383     0.250051584438     1.007825032070
           C         -3.171604187860     0.182237789383    -0.367979415562    12.000000000000
           H         -1.816127187860    -1.179013210617    -1.324254415562     1.007825032070
           H         -1.809039187860    -1.280997210617     0.410801584438     1.007825032070
           H         -3.260189187860     0.867232789383    -1.204743415562     1.007825032070
           H         -4.017929187860    -0.494101210617    -0.404104415562     1.007825032070
           H         -3.252776187860     0.764757789383     0.543841584438     1.007825032070

  Running in c1 symmetry.

  Rotational constants: A =      0.49167  B =      0.03841  C =      0.03732 [cm^-1]
  Rotational constants: A =  14739.95519  B =   1151.40377  C =   1118.70507 [MHz]
  Nuclear repulsion =  246.261733611854851

  Charge       = 0
  Multiplicity = 1
  Electrons    = 50
  Nalpha       = 25
  Nbeta        = 25

  ==> Algorithm <==

  SCF Algorithm Type is DF.
  DIIS enabled.
  MOM disabled.
  Fractional occupation disabled.
  Guess Type is SAD.
  Energy threshold   = 1.00e-08
  Density threshold  = 1.00e-08
  Integral threshold = 0.00e+00

  ==> Primary Basis <==

  Basis Set: CC-PVTZ
    Number of shells: 138
    Number of basis function: 362
    Number of Cartesian functions: 405
    Spherical Harmonics?: true
    Max angular momentum: 3

  ==> Pre-Iterations <==

   -------------------------------------------------------
    Irrep   Nso     Nmo     Nalpha   Nbeta   Ndocc  Nsocc
   -------------------------------------------------------
     A        362     362       0       0       0       0
   -------------------------------------------------------
    Total     362     362      25      25      25       0
   -------------------------------------------------------

  ==> Integral Setup <==

  ==> DFJK: Density-Fitted J/K Matrices <==

    J tasked:                  Yes
    K tasked:                  Yes
    wK tasked:                  No
    OpenMP threads:              4
    Integrals threads:           4
    Memory (MB):              1430
    Algorithm:                Core
    Integral Cache:           NONE
    Schwarz Cutoff:          1E-12
    Fitting Condition:       1E-12

   => Auxiliary Basis Set <=

  Basis Set: 
    Number of shells: 280
    Number of basis function: 864
    Number of Cartesian functions: 1031
    Spherical Harmonics?: true
    Max angular momentum: 4

  Minimum eigenvalue in the overlap matrix is 3.3962578432E-04.
  Using Symmetric Orthogonalization.
  SCF Guess: Superposition of Atomic Densities via on-the-fly atomic UHF.

  ==> Iterations <==

                           Total Energy        Delta E     RMS |[F,P]|

   @DF-RHF iter   0:  -254.34456727336610   -2.54345e+02   1.37427e-02 
   @DF-RHF iter   1:  -251.31824521352488    3.02632e+00   1.12707e-03 
   @DF-RHF iter   2:  -251.43192210970969   -1.13677e-01   3.93716e-04 DIIS
   @DF-RHF iter   3:  -251.44382531507736   -1.19032e-02   1.49268e-04 DIIS
   @DF-RHF iter   4:  -251.44599338613901   -2.16807e-03   2.84454e-05 DIIS
   @DF-RHF iter   5:  -251.44608929403907   -9.59079e-05   9.68102e-06 DIIS
   @DF-RHF iter   6:  -251.44609956531568   -1.02713e-05   2.31299e-06 DIIS
   @DF-RHF iter   7:  -251.44610033539263   -7.70077e-07   5.29265e-07 DIIS
   @DF-RHF iter   8:  -251.44610039199679   -5.66042e-08   1.54216e-07 DIIS
   @DF-RHF iter   9:  -251.44610039680592   -4.80912e-09   5.07908e-08 DIIS
   @DF-RHF iter  10:  -251.44610039731290   -5.06986e-10   1.52743e-08 DIIS
   @DF-RHF iter  11:  -251.44610039735372   -4.08136e-11   4.05887e-09 DIIS

  ==> Post-Iterations <==

    Orbital Energies (a.u.)
    -----------------------

    Doubly Occupied:                                                      

       1A    -15.526343     2A    -11.237750     3A    -11.211340  
       4A    -11.209913     5A    -11.207850     6A    -11.205680  
       7A     -1.178109     8A     -1.074360     9A     -0.999477  
      10A     -0.901057    11A     -0.813800    12A     -0.789483  
      13A     -0.664682    14A     -0.644682    15A     -0.616811  
      16A     -0.589964    17A     -0.563495    18A     -0.555335  
      19A     -0.526714    20A     -0.500435    21A     -0.482338  
      22A     -0.464624    23A     -0.459111    24A     -0.450245  
      25A     -0.383760  

    Virtual:                                                              

      26A      0.141968    27A      0.148879    28A      0.165827  
      29A      0.172206    30A      0.179036    31A      0.203202  
      32A      0.218453    33A      0.222132    34A      0.232556  
      35A      0.246271    36A      0.253084    37A      0.268722  
      38A      0.276410    39A      0.313375    40A      0.344180  
      41A      0.350011    42A      0.364631    43A      0.376064  
      44A      0.402836    45A      0.424495    46A      0.445580  
      47A      0.462573    48A      0.466453    49A      0.493233  
      50A      0.498009    51A      0.513419    52A      0.529237  
      53A      0.552274    54A      0.568817    55A      0.575866  
      56A      0.599914    57A      0.609854    58A      0.616647  
      59A      0.624019    60A      0.636758    61A      0.649115  
      62A      0.654557    63A      0.656374    64A      0.674129  
      65A      0.677807    66A      0.683323    67A      0.692448  
      68A      0.702372    69A      0.706841    70A      0.714915  
      71A      0.726076    72A      0.736469    73A      0.751591  
      74A      0.763680    75A      0.800487    76A      0.839216  
      77A      0.850525    78A      0.879502    79A      0.897106  
      80A      0.910318    81A      0.929551    82A      0.961429  
      83A      0.986479    84A      1.003922    85A      1.016803  
      86A      1.021873    87A      1.040744    88A      1.048529  
      89A      1.096381    90A      1.098973    91A      1.110929  
      92A      1.147022    93A      1.163820    94A      1.188223  
      95A      1.201570    96A      1.220609    97A      1.242828  
      98A      1.259056    99A      1.268941   100A      1.275959  
     101A      1.291121   102A      1.295502   103A      1.309028  
     104A      1.320848   105A      1.328886   106A      1.332634  
     107A      1.343028   108A      1.357537   109A      1.386435  
     110A      1.396902   111A      1.416110   112A      1.419309  
     113A      1.449243   114A      1.451424   115A      1.467705  
     116A      1.481842   117A      1.492743   118A      1.499511  
     119A      1.511519   120A      1.522590   121A      1.530460  
     122A      1.540925   123A      1.566094   124A      1.580016  
     125A      1.593029   126A      1.607337   127A      1.626394  
     128A      1.634198   129A      1.652379   130A      1.666302  
     131A      1.695279   132A      1.717642   133A      1.730107  
     134A      1.746672   135A      1.759650   136A      1.785525  
     137A      1.798877   138A      1.818153   139A      1.825956  
     140A      1.850439   141A      1.866312   142A      1.895433  
     143A      1.905667   144A      1.942299   145A      1.979148  
     146A      2.004191   147A      2.066075   148A      2.089536  
     149A      2.128744   150A      2.522823   151A      2.538128  
     152A      2.592280   153A      2.639474   154A      2.663839  
     155A      2.677909   156A      2.704802   157A      2.707646  
     158A      2.729046   159A      2.760556   160A      2.774553  
     161A      2.794471   162A      2.811509   163A      2.830983  
     164A      2.842126   165A      2.855890   166A      2.873830  
     167A      2.903008   168A      2.908787   169A      2.943423  
     170A      2.957162   171A      2.981565   172A      3.016329  
     173A      3.035077   174A      3.046947   175A      3.050144  
     176A      3.077741   177A      3.094081   178A      3.111333  
     179A      3.123038   180A      3.146350   181A      3.180569  
     182A      3.186716   183A      3.211498   184A      3.226606  
     185A      3.238680   186A      3.265402   187A      3.288497  
     188A      3.310752   189A      3.317760   190A      3.338407  
     191A      3.354193   192A      3.359786   193A      3.371157  
     194A      3.388900   195A      3.391525   196A      3.404741  
     197A      3.411730   198A      3.419646   199A      3.434693  
     200A      3.443942   201A      3.449289   202A      3.455587  
     203A      3.479248   204A      3.488708   205A      3.520325  
     206A      3.523585   207A      3.535140   208A      3.551075  
     209A      3.559123   210A      3.569466   211A      3.590691  
     212A      3.596236   213A      3.629492   214A      3.635824  
     215A      3.641517   216A      3.655897   217A      3.669587  
     218A      3.717555   219A      3.742876   220A      3.759192  
     221A      3.763414   222A      3.775727   223A      3.793053  
     224A      3.819154   225A      3.827985   226A      3.846336  
     227A      3.851839   228A      3.868018   229A      3.884008  
     230A      3.895559   231A      3.904923   232A      3.916703  
     233A      3.930298   234A      3.949428   235A      3.967415  
     236A      3.971075   237A      4.016746   238A      4.034170  
     239A      4.060020   240A      4.080538   241A      4.082128  
     242A      4.104240   243A      4.131179   244A      4.138857  
     245A      4.146731   246A      4.150714   247A      4.157303  
     248A      4.163874   249A      4.185247   250A      4.194892  
     251A      4.197916   252A      4.217281   253A      4.230752  
     254A      4.264295   255A      4.269370   256A      4.287141  
     257A      4.298345   258A      4.310879   259A      4.316070  
     260A      4.323854   261A      4.352529   262A      4.370096  
     263A      4.384273   264A      4.397642   265A      4.412289  
     266A      4.415089   267A      4.424347   268A      4.456970  
     269A      4.458982   270A      4.475491   271A      4.484430  
     272A      4.496634   273A      4.515471   274A      4.555354  
     275A      4.559352   276A      4.567550   277A      4.583026  
     278A      4.601632   279A      4.615536   280A      4.630415  
     281A      4.646730   282A      4.665930   283A      4.676563  
     284A      4.692227   285A      4.716031   286A      4.725870  
     287A      4.741365   288A      4.765445   289A      4.786297  
     290A      4.790675   291A      4.822005   292A      4.852410  
     293A      4.863546   294A      4.919902   295A      4.956452  
     296A      4.997228   297A      5.037998   298A      5.051555  
     299A      5.056744   300A      5.081169   301A      5.112205  
     302A      5.117454   303A      5.162874   304A      5.201211  
     305A      5.213865   306A      5.233314   307A      5.260165  
     308A      5.268768   309A      5.287784   310A      5.308813  
     311A      5.332009   312A      5.346305   313A      5.362950  
     314A      5.388970   315A      5.426704   316A      5.429190  
     317A      5.458752   318A      5.479693   319A      5.523073  
     320A      5.546245   321A      5.562699   322A      5.592673  
     323A      5.634329   324A      5.645003   325A      5.659757  
     326A      5.709833   327A      5.737986   328A      5.751989  
     329A      5.763925   330A      5.785922   331A      5.824893  
     332A      5.840874   333A      5.869949   334A      5.882528  
     335A      5.893845   336A      5.920953   337A      5.953561  
     338A      5.962129   339A      5.977534   340A      6.028482  
     341A      6.037226   342A      6.061966   343A      6.104019  
     344A      6.151910   345A      6.263497   346A      6.302940  
     347A      6.328943   348A      6.336429   349A      6.361770  
     350A      6.392174   351A      6.420131   352A      6.479920  
     353A      6.504157   354A      6.612987   355A      6.722678  
     356A      7.376190   357A     12.978701   358A     13.310064  
     359A     13.505861   360A     13.854679   361A     14.105559  
     362A     14.279083  

    Final Occupation by Irrep:
              A 
    DOCC [    25 ]

  Energy converged.

  @DF-RHF Final Energy:  -251.44610039735372

   => Energetics <=

    Nuclear Repulsion Energy =            246.2617336118548508
    One-Electron Energy =                -826.9009521399814275
    Two-Electron Energy =                 329.1931181307726320
    DFT Exchange-Correlation Energy =       0.0000000000000000
    Empirical Dispersion Energy =           0.0000000000000000
    PCM Polarization Energy =               0.0000000000000000
    EFP Energy =                            0.0000000000000000
    Total Energy =                       -251.4461003973539164


  Saving occupied orbitals to File 180.

*** tstop() called on cx1-28-12-4 at Sat Sep 10 17:41:36 2016
Module time:
	user time   =      28.68 seconds =       0.48 minutes
	system time =       0.82 seconds =       0.01 minutes
	total time  =          8 seconds =       0.13 minutes
Total time:
	user time   =      28.68 seconds =       0.48 minutes
	system time =       0.82 seconds =       0.01 minutes
	total time  =          8 seconds =       0.13 minutes


Properties will be evaluated at   0.000000,   0.000000,   0.000000 Bohr

Properties computed using the SCF density matrix

  Nuclear Dipole Moment: (a.u.)
     X:    -3.5658      Y:     0.8499      Z:    -0.0887

  Electronic Dipole Moment: (a.u.)
     X:     3.5281      Y:    -0.4824      Z:     0.3737

  Dipole Moment: (a.u.)
     X:    -0.0377      Y:     0.3675      Z:     0.2850     Total:     0.4666

  Dipole Moment: (Debye)
     X:    -0.0958      Y:     0.9341      Z:     0.7244     Total:     1.1860


*** tstart() called on cx1-28-12-4
*** at Sat Sep 10 17:41:36 2016


         ------------------------------------------------------------
                                   SCF GRAD                          
                          Rob Parrish, Justin Turney,                
                       Andy Simmonett, and Alex Sokolov              
         ------------------------------------------------------------

  ==> Geometry <==

    Molecular point group: c1
    Full point group: C1

    Geometry (in Angstrom), charge = 0, multiplicity = 1:

       Center              X                  Y                   Z               Mass       
    ------------   -----------------  -----------------  -----------------  -----------------
           H          3.819461812140     0.410759789383     0.669373584438     1.007825032070
           N          3.007423812140    -0.168739210617     0.689192584438    14.003074004780
           C          1.839540812140     0.549099789383     0.203170584438    12.000000000000
           H          2.877577812140    -0.461500210617     1.635119584438     1.007825032070
           C          0.622300812140    -0.362456210617     0.157132584438    12.000000000000
           H          2.060520812140     0.901565789383    -0.798749415562     1.007825032070
           H          1.604813812140     1.431196789383     0.800466584438     1.007825032070
           C         -0.629206187860     0.332074789383    -0.370287415562    12.000000000000
           H          0.858934812140    -1.223437210617    -0.459407415562     1.007825032070
           H          0.427378812140    -0.744595210617     1.157361584438     1.007825032070
           C         -1.851797187860    -0.580147210617    -0.418506415562    12.000000000000
           H         -0.432916187860     0.717536789383    -1.368207415562     1.007825032070
           H         -0.854007187860     1.196664789383     0.250051584438     1.007825032070
           C         -3.171604187860     0.182237789383    -0.367979415562    12.000000000000
           H         -1.816127187860    -1.179013210617    -1.324254415562     1.007825032070
           H         -1.809039187860    -1.280997210617     0.410801584438     1.007825032070
           H         -3.260189187860     0.867232789383    -1.204743415562     1.007825032070
           H         -4.017929187860    -0.494101210617    -0.404104415562     1.007825032070
           H         -3.252776187860     0.764757789383     0.543841584438     1.007825032070

  Nuclear repulsion =  246.261733611854851

  ==> Basis Set <==

  Basis Set: CC-PVTZ
    Number of shells: 138
    Number of basis function: 362
    Number of Cartesian functions: 405
    Spherical Harmonics?: true
    Max angular momentum: 3

  ==> DFJKGrad: Density-Fitted SCF Gradients <==

    Gradient:                    1
    J tasked:                  Yes
    K tasked:                  Yes
    wK tasked:                  No
    OpenMP threads:              4
    Integrals threads:           4
    Memory (MB):              1430
    Schwarz Cutoff:          0E+00
    Fitting Condition:       1E-12

   => Auxiliary Basis Set <=

  Basis Set: 
    Number of shells: 280
    Number of basis function: 864
    Number of Cartesian functions: 1031
    Spherical Harmonics?: true
    Max angular momentum: 4


  -Total Gradient:
     Atom            X                  Y                   Z
    ------   -----------------  -----------------  -----------------
       1       -0.000018090851     0.000006580611    -0.000046367667
       2        0.000001376271    -0.000003470654     0.000036106653
       3       -0.000173199564     0.000236121213     0.000296463311
       4       -0.000025841654    -0.000017498742    -0.000017645471
       5       -0.000898864476    -0.000341462052     0.001249932558
       6       -0.000018637193    -0.000041356194    -0.000007595897
       7        0.000086820077     0.000001125906    -0.000006584963
       8       -0.001379881852    -0.001939849224    -0.000217606557
       9       -0.000044712128     0.000358845023    -0.000015164020
      10        0.000226341578    -0.000311122506     0.000193996534
      11        0.001493760841     0.001810605463    -0.000482450403
      12        0.000213142997    -0.001197765698    -0.000873764127
      13       -0.001181878808     0.000637129429    -0.000706119379
      14        0.000553284623     0.000591959208     0.001405993175
      15        0.000012300886     0.000971066194    -0.001090461400
      16        0.001215263846    -0.000719942084    -0.000158110274
      17        0.000074903842    -0.000315510152     0.000069782822
      18        0.000163608387    -0.000012697168     0.000315024474
      19       -0.000299696822     0.000287241428     0.000054570633


*** tstop() called on cx1-28-12-4 at Sat Sep 10 17:41:45 2016
Module time:
	user time   =      31.89 seconds =       0.53 minutes
	system time =       0.69 seconds =       0.01 minutes
	total time  =          9 seconds =       0.15 minutes
Total time:
	user time   =      60.70 seconds =       1.01 minutes
	system time =       1.51 seconds =       0.03 minutes
	total time  =         17 seconds =       0.28 minutes

			-----------------------------------------
			 OPTKING 2.0: for geometry optimizations 
			  - R.A. King,  Bethel University        
			-----------------------------------------

	Internal coordinates to be generated automatically.
	Detected frag 1 with atoms:  1 2 3 4 5 6 7 8 9 10 11 12 13 14 15 16 17 18 19
	---Fragment 1 Bond Connectivity---
	 1 : 2
	 2 : 1 3 4
	 3 : 2 5 6 7
	 4 : 2
	 5 : 3 8 9 10
	 6 : 3
	 7 : 3
	 8 : 5 11 12 13
	 9 : 5
	 10 : 5
	 11 : 8 14 15 16
	 12 : 8
	 13 : 8
	 14 : 11 17 18 19
	 15 : 11
	 16 : 11
	 17 : 14
	 18 : 14
	 19 : 14

	Assuming in current code that numbering for constraints corresponds to unified fragment.
	Frozen dihedral atom list: 
	    12     8    11    15
	---Fragment 1 Geometry and Gradient---
	 H           7.2177368000        0.7762235083        1.2649327552
	 N           5.6832073705       -0.3188708959        1.3023852374
	 C           3.4762283452        1.0376482216        0.3839367628
	 H           5.4378339910       -0.8721090083        3.0899282091
	 C           1.1759781072       -0.6849429732        0.2969375511
	 H           3.8938200261        1.7037124327       -1.5094176442
	 H           3.0326585992        2.7045699742        1.5126626231
	 C          -1.1890273762        0.6275304076       -0.6997418059
	 H           1.6231515609       -2.3119612688       -0.8681541988
	 H           0.8076289099       -1.4070810279        2.1870964313
	 C          -3.4993895387       -1.0963193448       -0.7908625103
	 H          -0.8180930335        1.3559480222       -2.5855373084
	 H          -1.6138397006        2.2613687248        0.4725290137
	 C          -5.9934633170        0.3443795130       -0.6953803180
	 H          -3.4319830075       -2.2280120751       -2.5024781757
	 H          -3.4185886287       -2.4207339051        0.7763024895
	 H          -6.1608647065        1.6388324654       -2.2766351158
	 H          -7.5927857864       -0.9337159700       -0.7636466745
	 H          -6.1468561666        1.4451827799        1.0277116543
	            -0.0000180909        0.0000065806       -0.0000463677
	             0.0000013763       -0.0000034707        0.0000361067
	            -0.0001731996        0.0002361212        0.0002964633
	            -0.0000258417       -0.0000174987       -0.0000176455
	            -0.0008988645       -0.0003414621        0.0012499326
	            -0.0000186372       -0.0000413562       -0.0000075959
	             0.0000868201        0.0000011259       -0.0000065850
	            -0.0013798819       -0.0019398492       -0.0002176066
	            -0.0000447121        0.0003588450       -0.0000151640
	             0.0002263416       -0.0003111225        0.0001939965
	             0.0014937608        0.0018106055       -0.0004824504
	             0.0002131430       -0.0011977657       -0.0008737641
	            -0.0011818788        0.0006371294       -0.0007061194
	             0.0005532846        0.0005919592        0.0014059932
	             0.0000123009        0.0009710662       -0.0010904614
	             0.0012152638       -0.0007199421       -0.0001581103
	             0.0000749038       -0.0003155102        0.0000697828
	             0.0001636084       -0.0000126972        0.0003150245
	            -0.0002996968        0.0002872414        0.0000545706

	Previous optimization step data not found.  Starting new optimization.

	---Fragment 1 Intrafragment Coordinates---
	 - Coordinate -           - BOHR/RAD -       - ANG/DEG -
	 R(1,2)           =         1.885581	       0.997806
	 R(2,3)           =         2.748536	       1.454462
	 R(2,4)           =         1.887218	       0.998673
	 R(3,5)           =         2.875072	       1.521423
	 R(3,6)           =         2.050077	       1.084854
	 R(3,7)           =         2.061408	       1.090850
	 R(5,8)           =         2.882570	       1.525390
	 R(5,9)           =         2.050510	       1.085083
	 R(5,10)          =         2.056664	       1.088339
	 R(8,11)          =         2.884048	       1.526173
	 R(8,12)          =         2.055337	       1.087637
	 R(8,13)          =         2.055264	       1.087599
	 R(11,14)         =         2.881863	       1.525016
	 R(11,15)         =         2.053022	       1.086413
	 R(11,16)         =         2.053438	       1.086633
	 R(14,17)         =         2.050365	       1.085007
	 R(14,18)         =         2.048419	       1.083977
	 R(14,19)         =         2.050449	       1.085051
	 B(1,2,3)         =         1.939277	     111.112386
	 B(1,2,4)         =         1.870126	     107.150303
	 B(2,3,5)         =         1.935672	     110.905834
	 B(2,3,6)         =         1.881159	     107.782454
	 B(2,3,7)         =         1.970240	     112.886435
	 B(3,2,4)         =         1.935628	     110.903311
	 B(3,5,8)         =         1.975861	     113.208488
	 B(3,5,9)         =         1.894543	     108.549322
	 B(3,5,10)        =         1.902713	     109.017410
	 B(5,3,6)         =         1.906766	     109.249644
	 B(5,3,7)         =         1.905937	     109.202133
	 B(5,8,11)        =         1.977979	     113.329831
	 B(5,8,12)        =         1.907666	     109.301209
	 B(5,8,13)        =         1.911683	     109.531346
	 B(6,3,7)         =         1.861682	     106.666506
	 B(8,5,9)         =         1.921694	     110.104961
	 B(8,5,10)        =         1.907837	     109.311007
	 B(8,11,14)       =         1.975156	     113.168080
	 B(8,11,15)       =         1.906592	     109.239700
	 B(8,11,16)       =         1.906971	     109.261398
	 B(9,5,10)        =         1.857352	     106.418407
	 B(11,8,12)       =         1.904367	     109.112212
	 B(11,8,13)       =         1.904558	     109.123134
	 B(11,14,17)      =         1.939836	     111.144402
	 B(11,14,18)      =         1.941932	     111.264499
	 B(11,14,19)      =         1.940106	     111.159890
	 B(12,8,13)       =         1.853439	     106.194248
	 B(14,11,15)      =         1.908805	     109.366464
	 B(14,11,16)      =         1.908375	     109.341813
	 B(15,11,16)      =         1.854021	     106.227590
	 B(17,14,18)      =         1.880174	     107.726035
	 B(17,14,19)      =         1.878677	     107.640275
	 B(18,14,19)      =         1.880280	     107.732117
	 D(1,2,3,5)       =         3.082657	     176.623219
	 D(1,2,3,6)       =         0.996169	      57.076268
	 D(1,2,3,7)       =        -1.055235	     -60.460518
	 D(2,3,5,8)       =        -3.123314	    -178.952738
	 D(2,3,5,9)       =        -0.984007	     -56.379447
	 D(2,3,5,10)      =         1.032394	      59.151841
	 D(3,5,8,11)      =         3.140931	     179.962096
	 D(3,5,8,12)      =         1.012888	      58.034186
	 D(3,5,8,13)      =        -1.011037	     -57.928150
	 D(4,2,3,5)       =        -1.122413	     -64.309509
	 D(4,2,3,6)       =         3.074285	     176.143540
	 D(4,2,3,7)       =         1.022881	      58.606754
	 D(5,8,11,14)     =         2.720393	     155.867062
	 D(5,8,11,15)     =        -1.431752	     -82.033360
	 D(5,8,11,16)     =         0.589632	      33.783400
	 D(6,3,5,8)       =        -1.052232	     -60.288434
	 D(6,3,5,9)       =         1.087076	      62.284856
	 D(6,3,5,10)      =         3.103477	     177.816145
	 D(7,3,5,8)       =         0.977846	      56.026432
	 D(7,3,5,9)       =         3.117153	     178.599722
	 D(7,3,5,10)      =        -1.149631	     -65.868989
	 D(8,11,14,17)    =         1.046154	      59.940184
	 D(8,11,14,18)    =         3.141482	     179.993666
	 D(8,11,14,19)    =        -1.046058	     -59.934718
	 D(9,5,8,11)      =         1.016782	      58.257295
	 D(9,5,8,12)      =        -1.111262	     -63.670615
	 D(9,5,8,13)      =        -3.135186	    -179.632951
	 D(10,5,8,11)     =        -1.017649	     -58.306966
	 D(10,5,8,12)     =         3.137493	     179.765125
	 D(10,5,8,13)     =         1.113569	      63.802788
	 D(12,8,11,14)    =        -1.432908	     -82.099582
	*D(12,8,11,15)    =         0.698132	      39.999997
	 D(12,8,11,16)    =         2.719515	     155.816756
	 D(13,8,11,14)    =         0.585212	      33.530160
	 D(13,8,11,15)    =         2.716251	     155.629739
	 D(13,8,11,16)    =        -1.545550	     -88.553502
	 D(15,11,14,17)   =        -1.083649	     -62.088516
	 D(15,11,14,18)   =         1.011680	      57.964966
	 D(15,11,14,19)   =         3.107325	     178.036582
	 D(16,11,14,17)   =        -3.107055	    -178.021117
	 D(16,11,14,18)   =        -1.011726	     -57.967636
	 D(16,11,14,19)   =         1.083919	      62.103980

	Current energy   :      -251.4461003974

	Generating empirical Hessian (Schlegel '84) for each fragment.
	Taking RFO optimization step.
	Going to follow RFO solution 1.
	Using RFO vector 1.
	Norm of target step-size    0.28822
	Projected energy change by RFO approximation:        -0.0001769578

	Back-transformation to cartesian coordinates...
	Could not converge backtransformation.
	Using first guess instead.

	Back-transformation to cartesian coordinates to adjust frozen coordinates...
	Successfully converged to displaced geometry.

	--- Internal Coordinate Step in ANG or DEG, aJ/ANG or AJ/DEG ---
	 ---------------------------------------------------------------------------
	   Coordinate                Previous        Force       Change         New 
	   ----------                --------       ------       ------       ------
	    1 R(1,2)          =      0.997806     0.000082     0.000741     0.998547
	    2 R(2,3)          =      1.454462     0.000300     0.000248     1.454710
	    3 R(2,4)          =      0.998673     0.000068     0.000563     0.999235
	    4 R(3,5)          =      1.521423     0.000013     0.001191     1.522614
	    5 R(3,6)          =      1.084854     0.000084     0.000631     1.085485
	    6 R(3,7)          =      1.090850     0.000176     0.000599     1.091450
	    7 R(5,8)          =      1.525390     0.000630     0.000501     1.525891
	    8 R(5,9)          =      1.085083     0.002355     0.001026     1.086109
	    9 R(5,10)         =      1.088339    -0.002035     0.000187     1.088527
	   10 R(8,11)         =      1.526173     0.034104     0.008059     1.534231
	   11 R(8,12)         =      1.087637    -0.003425    -0.000335     1.087303
	   12 R(8,13)         =      1.087599    -0.002867    -0.000045     1.087554
	   13 R(11,14)        =      1.525016     0.000736     0.002046     1.527063
	   14 R(11,15)        =      1.086413    -0.003083     0.000015     1.086427
	   15 R(11,16)        =      1.086633    -0.003225     0.000124     1.086757
	   16 R(14,17)        =      1.085007     0.002135     0.002703     1.087710
	   17 R(14,18)        =      1.083977     0.001074     0.004225     1.088202
	   18 R(14,19)        =      1.085051    -0.001833     0.002926     1.087977
	   19 B(1,2,3)        =    111.112386     0.000003     0.027692   111.140078
	   20 B(1,2,4)        =    107.150303    -0.000003    -0.024884   107.125419
	   21 B(2,3,5)        =    110.905834     0.000005     0.040393   110.946227
	   22 B(2,3,6)        =    107.782454    -0.000002    -0.008347   107.774107
	   23 B(2,3,7)        =    112.886435     0.000002    -0.023746   112.862689
	   24 B(3,2,4)        =    110.903311     0.000001    -0.027324   110.875986
	   25 B(3,5,8)        =    113.208488     0.000019     0.097505   113.305993
	   26 B(3,5,9)        =    108.549322    -0.000014    -0.024842   108.524480
	   27 B(3,5,10)       =    109.017410     0.000013     0.077409   109.094820
	   28 B(5,3,6)        =    109.249644     0.000003     0.033084   109.282728
	   29 B(5,3,7)        =    109.202133    -0.000008    -0.061868   109.140264
	   30 B(5,8,11)       =    113.329831     0.000030    -0.220675   113.109156
	   31 B(5,8,12)       =    109.301209    -0.000066    -1.586594   107.714615
	   32 B(5,8,13)       =    109.531346    -0.000029     0.023669   109.555016
	   33 B(6,3,7)        =    106.666506     0.000000     0.022905   106.689411
	   34 B(8,5,9)        =    110.104961     0.000007     0.043793   110.148755
	   35 B(8,5,10)       =    109.311007    -0.000028    -0.228935   109.082072
	   36 B(8,11,14)      =    113.168080     0.000046    -0.057824   113.110256
	   37 B(8,11,15)      =    109.239700     0.000013    -0.111198   109.128502
	   38 B(8,11,16)      =    109.261398     0.000032     0.984926   110.246324
	   39 B(9,5,10)       =    106.418407     0.000004     0.033599   106.452006
	   40 B(11,8,12)      =    109.112212     0.000017    -0.070466   109.041746
	   41 B(11,8,13)      =    109.123134     0.000042     1.059859   110.182993
	   42 B(11,14,17)     =    111.144402     0.000018    -0.096728   111.047674
	   43 B(11,14,18)     =    111.264499     0.000016     0.241178   111.505677
	   44 B(11,14,19)     =    111.159890    -0.000042    -0.304371   110.855519
	   45 B(12,8,13)      =    106.194248     0.000005     0.830824   107.025073
	   46 B(14,11,15)     =    109.366464    -0.000072    -1.647822   107.718642
	   47 B(14,11,16)     =    109.341813    -0.000027     0.001702   109.343515
	   48 B(15,11,16)     =    106.227590     0.000006     0.857935   107.085525
	   49 B(17,14,18)     =    107.726035    -0.000014    -0.055216   107.670819
	   50 B(17,14,19)     =    107.640275     0.000007     0.162679   107.802954
	   51 B(18,14,19)     =    107.732117     0.000016     0.061930   107.794047
	   52 D(1,2,3,5)      =    176.623219     0.000001     0.077899   176.701118
	   53 D(1,2,3,6)      =     57.076268    -0.000000     0.019056    57.095324
	   54 D(1,2,3,7)      =    -60.460518    -0.000000     0.010030   -60.450488
	   55 D(2,3,5,8)      =   -178.952738    -0.000002    -0.246720  -179.199458
	   56 D(2,3,5,9)      =    -56.379447     0.000000    -0.143036   -56.522483
	   57 D(2,3,5,10)     =     59.151841     0.000001    -0.075105    59.076736
	   58 D(3,5,8,11)     =    179.962096    -0.000008    -4.354949   175.607147
	   59 D(3,5,8,12)     =     58.034186    -0.000006    -3.003123    55.031063
	   60 D(3,5,8,13)     =    -57.928150     0.000005    -3.121471   -61.049622
	   61 D(4,2,3,5)      =    -64.309509     0.000001     0.046850   -64.262659
	   62 D(4,2,3,6)      =    176.143540    -0.000000    -0.011994   176.131547
	   63 D(4,2,3,7)      =     58.606754    -0.000001    -0.021019    58.585735
	   64 D(5,8,11,14)    =    155.867062     0.000024     4.430412   160.297475
	   65 D(5,8,11,15)    =    -82.033360     0.000012     2.214949   -79.818410
	   66 D(5,8,11,16)    =     33.783400     0.000019     3.745152    37.528551
	   67 D(6,3,5,8)      =    -60.288434    -0.000002    -0.211706   -60.500141
	   68 D(6,3,5,9)      =     62.284856     0.000001    -0.108022    62.176834
	   69 D(6,3,5,10)     =    177.816145     0.000002    -0.040091   177.776053
	   70 D(7,3,5,8)      =     56.026432    -0.000002    -0.200466    55.825966
	   71 D(7,3,5,9)      =    178.599722     0.000000    -0.096781   178.502941
	   72 D(7,3,5,10)     =    -65.868989     0.000001    -0.028851   -65.897840
	   73 D(8,11,14,17)   =     59.940184    -0.000007    -3.727950    56.212235
	   74 D(8,11,14,18)   =    179.993666    -0.000006    -3.701101   176.292566
	   75 D(8,11,14,19)   =    -59.934718    -0.000006    -3.666400   -63.601117
	   76 D(9,5,8,11)     =     58.257295    -0.000007    -4.422841    53.834454
	   77 D(9,5,8,12)     =    -63.670615    -0.000006    -3.071014   -66.741629
	   78 D(9,5,8,13)     =   -179.632951     0.000005    -3.189363  -182.822314
	   79 D(10,5,8,11)    =    -58.306966    -0.000006    -4.354947   -62.661912
	   80 D(10,5,8,12)    =    179.765125    -0.000004    -3.003120   176.762004
	   81 D(10,5,8,13)    =     63.802788     0.000007    -3.121469    60.681319
	   82 D(12,8,11,14)   =    -82.099582     0.000012     2.215463   -79.884119
	   83 *D(12,8,11,15)  =     39.999997    -0.000000    -0.000000    39.999997
	   84 D(12,8,11,16)   =    155.816756     0.000007     1.530202   157.346958
	   85 D(13,8,11,14)   =     33.530160     0.000021     3.771289    37.301449
	   86 D(13,8,11,15)   =    155.629739     0.000009     1.555825   157.185564
	   87 D(13,8,11,16)   =    -88.553502     0.000016     3.086028   -85.467474
	   88 D(15,11,14,17)  =    -62.088516    -0.000006    -2.387533   -64.476049
	   89 D(15,11,14,18)  =     57.964966    -0.000005    -2.360684    55.604282
	   90 D(15,11,14,19)  =    178.036582    -0.000005    -2.325983   175.710599
	   91 D(16,11,14,17)  =   -178.021117     0.000005    -2.497714  -180.518832
	   92 D(16,11,14,18)  =    -57.967636     0.000006    -2.470865   -60.438501
	   93 D(16,11,14,19)  =     62.103980     0.000006    -2.436164    59.667816
	 ---------------------------------------------------------------------------
	Successfully symmetrized geometry.

  ==> Convergence Check <==

  Measures of convergence in internal coordinates in au.
  Criteria marked as inactive (o), active & met (*), and active & unmet ( ).
  --------------------------------------------------------------------------------------------- ~
   Step     Total Energy     Delta E     MAX Force     RMS Force      MAX Disp      RMS Disp    ~
  --------------------------------------------------------------------------------------------- ~
    Convergence Criteria    1.00e-06 *    3.00e-04 *             o    1.20e-03 *             o  ~
  --------------------------------------------------------------------------------------------- ~
      1    -251.44610040   -2.51e+02      4.14e-03      5.75e-04 o    7.73e-02      2.99e-02 o  ~
  ---------------------------------------------------------------------------------------------

	Writing optimization data to binary file.
	Structure for next step:
	Cartesian Geometry (in Angstrom)
	    H     3.8434074893   0.3872763767   0.5943971937
	    N     3.0238225892  -0.1804522540   0.6497250627
	    C     1.8510533918   0.5446267770   0.1859849035
	    H     2.9189161062  -0.4534113265   1.6052138257
	    C     0.6189685475  -0.3499267656   0.1956858793
	    H     2.0459648867   0.8752921900  -0.8293706037
	    H     1.6469343051   1.4412617014   0.7738993272
	    C    -0.6412545729   0.3528559386  -0.3005766221
	    H     0.8235027444  -1.2255782380  -0.4134388344
	    H     0.4494341127  -0.7115454642   1.2082968322
	    C    -1.8555108266  -0.5806115987  -0.3904955678
	    H    -0.4287952441   0.7546798935  -1.2883143893
	    H    -0.8650193689   1.1983843344   0.3457864499
	    C    -3.1864210603   0.1677577338  -0.4137586892
	    H    -1.7886227052  -1.1647466067  -1.3040801143
	    H    -1.8520165208  -1.2831443291   0.4386457835
	    H    -3.2162251154   0.8865120311  -1.2296118577
	    H    -4.0250108321  -0.5135993976  -0.5429991960
	    H    -3.3407664958   0.7125090020   0.5152827210
			--------------------------
			 OPTKING Finished Execution 
			--------------------------

    Structure for next step:
    Molecular point group: c1
    Full point group: C1

    Geometry (in Angstrom), charge = 0, multiplicity = 1:

    H            3.843787525017     0.387270614775     0.591034050905
    N            3.024202624887    -0.180458015948     0.646361919983
    C            1.851433427480     0.544621015091     0.182621760798
    H            2.919296141865    -0.453417088472     1.601850682912
    C            0.619348583150    -0.349932527519     0.192322736597
    H            2.046344922359     0.875286428068    -0.832733746427
    H            1.647314340793     1.441255939521     0.770536184453
    C           -0.640874537221     0.352850176690    -0.303939764816
    H            0.823882780147    -1.225583999894    -0.416801977138
    H            0.449814148357    -0.711551226156     1.204933689498
    C           -1.855130790871    -0.580617360598    -0.393858710553
    H           -0.428415208380     0.754674131527    -1.291677532026
    H           -0.864639333226     1.198378572469     0.342423307126
    C           -3.186041024574     0.167751971889    -0.417121831914
    H           -1.788242669464    -1.164752368594    -1.307443257088
    H           -1.851636485104    -1.283150091003     0.435282640804
    H           -3.215845079727     0.886506269181    -1.232975000428
    H           -4.024630796394    -0.513605159498    -0.546362338783
    H           -3.340386460148     0.712503240115     0.511919578249

gradient() will perform analytic gradient computation.

*** tstart() called on cx1-28-12-4
*** at Sat Sep 10 17:41:46 2016


         ---------------------------------------------------------
                                   SCF
            by Justin Turney, Rob Parrish, and Andy Simmonett
                              RHF Reference
                        4 Threads,   2000 MiB Core
         ---------------------------------------------------------

  ==> Geometry <==

    Molecular point group: c1
    Full point group: C1

    Geometry (in Angstrom), charge = 0, multiplicity = 1:

       Center              X                  Y                   Z               Mass       
    ------------   -----------------  -----------------  -----------------  -----------------
           H          3.843787525017     0.387270614775     0.591034050905     1.007825032070
           N          3.024202624887    -0.180458015948     0.646361919983    14.003074004780
           C          1.851433427480     0.544621015091     0.182621760798    12.000000000000
           H          2.919296141865    -0.453417088472     1.601850682912     1.007825032070
           C          0.619348583150    -0.349932527519     0.192322736597    12.000000000000
           H          2.046344922359     0.875286428068    -0.832733746427     1.007825032070
           H          1.647314340793     1.441255939521     0.770536184453     1.007825032070
           C         -0.640874537221     0.352850176690    -0.303939764816    12.000000000000
           H          0.823882780147    -1.225583999894    -0.416801977138     1.007825032070
           H          0.449814148357    -0.711551226156     1.204933689498     1.007825032070
           C         -1.855130790871    -0.580617360598    -0.393858710553    12.000000000000
           H         -0.428415208380     0.754674131527    -1.291677532026     1.007825032070
           H         -0.864639333226     1.198378572469     0.342423307126     1.007825032070
           C         -3.186041024574     0.167751971889    -0.417121831914    12.000000000000
           H         -1.788242669464    -1.164752368594    -1.307443257088     1.007825032070
           H         -1.851636485104    -1.283150091003     0.435282640804     1.007825032070
           H         -3.215845079727     0.886506269181    -1.232975000428     1.007825032070
           H         -4.024630796394    -0.513605159498    -0.546362338783     1.007825032070
           H         -3.340386460148     0.712503240115     0.511919578249     1.007825032070

  Running in c1 symmetry.

  Rotational constants: A =      0.50384  B =      0.03815  C =      0.03700 [cm^-1]
  Rotational constants: A =  15104.83082  B =   1143.77936  C =   1109.33604 [MHz]
  Nuclear repulsion =  245.848105384184379

  Charge       = 0
  Multiplicity = 1
  Electrons    = 50
  Nalpha       = 25
  Nbeta        = 25

  ==> Algorithm <==

  SCF Algorithm Type is DF.
  DIIS enabled.
  MOM disabled.
  Fractional occupation disabled.
  Guess Type is READ.
  Energy threshold   = 1.00e-08
  Density threshold  = 1.00e-08
  Integral threshold = 0.00e+00

  ==> Primary Basis <==

  Basis Set: CC-PVTZ
    Number of shells: 138
    Number of basis function: 362
    Number of Cartesian functions: 405
    Spherical Harmonics?: true
    Max angular momentum: 3

  ==> Pre-Iterations <==

   -------------------------------------------------------
    Irrep   Nso     Nmo     Nalpha   Nbeta   Ndocc  Nsocc
   -------------------------------------------------------
     A        362     362       0       0       0       0
   -------------------------------------------------------
    Total     362     362      25      25      25       0
   -------------------------------------------------------

  ==> Integral Setup <==

  ==> DFJK: Density-Fitted J/K Matrices <==

    J tasked:                  Yes
    K tasked:                  Yes
    wK tasked:                  No
    OpenMP threads:              4
    Integrals threads:           4
    Memory (MB):              1430
    Algorithm:                Core
    Integral Cache:           NONE
    Schwarz Cutoff:          1E-12
    Fitting Condition:       1E-12

   => Auxiliary Basis Set <=

  Basis Set: 
    Number of shells: 280
    Number of basis function: 864
    Number of Cartesian functions: 1031
    Spherical Harmonics?: true
    Max angular momentum: 4

  Minimum eigenvalue in the overlap matrix is 3.4287079621E-04.
  Using Symmetric Orthogonalization.
  SCF Guess: Reading in previously saved MOs, projecting if necessary.

  Using orbitals from previous SCF, no projection.
  Recomputing DOCC and SOCC from number of alpha and beta electrons from previous calculation.
              A 
    DOCC [    25 ]

  ==> Iterations <==

                           Total Energy        Delta E     RMS |[F,P]|

   @DF-RHF iter   0:  -251.42827038865116   -2.51428e+02   2.64505e-04 
   @DF-RHF iter   1:  -251.44591709260587   -1.76467e-02   5.35287e-05 
   @DF-RHF iter   2:  -251.44624861960861   -3.31527e-04   1.84127e-05 DIIS
   @DF-RHF iter   3:  -251.44629365389298   -4.50343e-05   7.31909e-06 DIIS
   @DF-RHF iter   4:  -251.44629844623174   -4.79234e-06   1.17214e-06 DIIS
   @DF-RHF iter   5:  -251.44629867409597   -2.27864e-07   4.45841e-07 DIIS
   @DF-RHF iter   6:  -251.44629869886469   -2.47687e-08   1.22784e-07 DIIS
   @DF-RHF iter   7:  -251.44629870162024   -2.75554e-09   3.33814e-08 DIIS
   @DF-RHF iter   8:  -251.44629870185130   -2.31068e-10   8.87117e-09 DIIS

  ==> Post-Iterations <==

    Orbital Energies (a.u.)
    -----------------------

    Doubly Occupied:                                                      

       1A    -15.526610     2A    -11.238191     3A    -11.212678  
       4A    -11.211140     5A    -11.207861     6A    -11.206658  
       7A     -1.177859     8A     -1.072853     9A     -0.999196  
      10A     -0.899765    11A     -0.813228    12A     -0.788871  
      13A     -0.664400    14A     -0.644146    15A     -0.617036  
      16A     -0.589929    17A     -0.564322    18A     -0.553505  
      19A     -0.526106    20A     -0.499069    21A     -0.481707  
      22A     -0.464439    23A     -0.459876    24A     -0.450301  
      25A     -0.383720  

    Virtual:                                                              

      26A      0.141973    27A      0.148499    28A      0.165880  
      29A      0.172635    30A      0.177970    31A      0.203362  
      32A      0.217397    33A      0.222688    34A      0.232992  
      35A      0.246799    36A      0.252997    37A      0.265368  
      38A      0.276572    39A      0.314670    40A      0.340717  
      41A      0.350107    42A      0.365579    43A      0.375724  
      44A      0.403318    45A      0.425232    46A      0.443158  
      47A      0.463581    48A      0.466368    49A      0.493255  
      50A      0.495012    51A      0.513798    52A      0.527173  
      53A      0.552046    54A      0.569002    55A      0.576900  
      56A      0.599207    57A      0.609970    58A      0.618460  
      59A      0.623137    60A      0.637881    61A      0.648308  
      62A      0.656323    63A      0.657112    64A      0.674007  
      65A      0.676855    66A      0.681105    67A      0.692213  
      68A      0.699580    69A      0.705507    70A      0.713879  
      71A      0.722649    72A      0.737563    73A      0.749399  
      74A      0.765793    75A      0.802056    76A      0.836943  
      77A      0.851487    78A      0.877609    79A      0.898168  
      80A      0.908350    81A      0.934308    82A      0.963656  
      83A      0.984878    84A      1.001062    85A      1.010021  
      86A      1.018250    87A      1.039899    88A      1.046407  
      89A      1.095188    90A      1.099641    91A      1.111372  
      92A      1.148892    93A      1.160785    94A      1.185814  
      95A      1.200927    96A      1.219015    97A      1.241349  
      98A      1.257592    99A      1.268924   100A      1.277131  
     101A      1.289001   102A      1.292781   103A      1.307447  
     104A      1.322576   105A      1.326187   106A      1.335160  
     107A      1.340918   108A      1.358020   109A      1.385254  
     110A      1.399560   111A      1.418399   112A      1.420534  
     113A      1.447758   114A      1.450949   115A      1.461660  
     116A      1.482027   117A      1.493382   118A      1.498722  
     119A      1.509548   120A      1.520404   121A      1.528606  
     122A      1.545783   123A      1.565764   124A      1.577948  
     125A      1.588884   126A      1.605351   127A      1.622577  
     128A      1.628111   129A      1.651209   130A      1.669362  
     131A      1.700628   132A      1.715172   133A      1.730004  
     134A      1.741403   135A      1.761325   136A      1.787217  
     137A      1.798497   138A      1.818360   139A      1.821991  
     140A      1.850064   141A      1.870309   142A      1.887814  
     143A      1.908671   144A      1.940047   145A      1.972761  
     146A      1.998828   147A      2.066502   148A      2.091352  
     149A      2.127524   150A      2.520325   151A      2.537192  
     152A      2.597851   153A      2.633604   154A      2.665995  
     155A      2.681377   156A      2.700188   157A      2.707967  
     158A      2.728864   159A      2.759818   160A      2.774595  
     161A      2.789017   162A      2.813271   163A      2.830512  
     164A      2.845497   165A      2.855676   166A      2.877620  
     167A      2.896156   168A      2.913914   169A      2.941076  
     170A      2.965968   171A      2.977608   172A      3.018719  
     173A      3.034032   174A      3.044441   175A      3.049930  
     176A      3.078402   177A      3.092766   178A      3.112560  
     179A      3.122848   180A      3.147262   181A      3.174697  
     182A      3.186429   183A      3.203502   184A      3.226736  
     185A      3.234612   186A      3.262932   187A      3.287725  
     188A      3.308517   189A      3.320755   190A      3.334723  
     191A      3.355288   192A      3.357347   193A      3.373222  
     194A      3.387158   195A      3.392223   196A      3.406918  
     197A      3.414923   198A      3.419003   199A      3.431446  
     200A      3.442776   201A      3.448906   202A      3.458756  
     203A      3.475378   204A      3.488505   205A      3.517895  
     206A      3.522054   207A      3.532856   208A      3.551874  
     209A      3.556369   210A      3.566951   211A      3.578026  
     212A      3.590360   213A      3.628936   214A      3.632509  
     215A      3.641526   216A      3.657592   217A      3.668386  
     218A      3.715067   219A      3.738494   220A      3.757753  
     221A      3.763946   222A      3.772569   223A      3.787995  
     224A      3.816230   225A      3.825279   226A      3.845076  
     227A      3.846991   228A      3.866171   229A      3.878523  
     230A      3.893556   231A      3.902147   232A      3.913637  
     233A      3.930521   234A      3.948342   235A      3.963386  
     236A      3.972768   237A      4.013206   238A      4.038220  
     239A      4.053542   240A      4.078579   241A      4.085337  
     242A      4.103012   243A      4.129335   244A      4.133757  
     245A      4.145938   246A      4.150181   247A      4.157870  
     248A      4.163466   249A      4.176562   250A      4.189555  
     251A      4.197596   252A      4.218787   253A      4.231823  
     254A      4.258885   255A      4.267808   256A      4.287264  
     257A      4.292461   258A      4.311599   259A      4.313873  
     260A      4.324908   261A      4.348926   262A      4.367224  
     263A      4.380376   264A      4.396632   265A      4.406949  
     266A      4.413539   267A      4.416576   268A      4.447621  
     269A      4.456650   270A      4.475798   271A      4.481184  
     272A      4.495984   273A      4.513852   274A      4.544920  
     275A      4.555725   276A      4.567641   277A      4.579097  
     278A      4.599933   279A      4.608539   280A      4.629398  
     281A      4.642070   282A      4.662395   283A      4.675074  
     284A      4.682786   285A      4.709122   286A      4.724436  
     287A      4.739861   288A      4.766572   289A      4.780053  
     290A      4.790787   291A      4.821888   292A      4.850163  
     293A      4.864408   294A      4.923670   295A      4.957366  
     296A      4.999053   297A      5.032819   298A      5.044267  
     299A      5.055801   300A      5.078590   301A      5.104428  
     302A      5.115738   303A      5.161146   304A      5.193350  
     305A      5.210341   306A      5.229058   307A      5.252533  
     308A      5.258024   309A      5.272389   310A      5.306945  
     311A      5.327450   312A      5.343946   313A      5.357191  
     314A      5.388570   315A      5.418956   316A      5.424715  
     317A      5.454614   318A      5.473178   319A      5.521157  
     320A      5.545073   321A      5.555131   322A      5.586800  
     323A      5.633683   324A      5.642191   325A      5.654868  
     326A      5.702381   327A      5.734677   328A      5.740497  
     329A      5.752593   330A      5.781380   331A      5.823717  
     332A      5.841698   333A      5.864265   334A      5.871688  
     335A      5.890151   336A      5.919715   337A      5.950360  
     338A      5.960243   339A      5.972158   340A      6.024107  
     341A      6.033072   342A      6.065179   343A      6.094066  
     344A      6.148623   345A      6.262397   346A      6.295539  
     347A      6.323272   348A      6.329653   349A      6.357665  
     350A      6.389142   351A      6.409412   352A      6.477292  
     353A      6.501285   354A      6.610577   355A      6.719738  
     356A      7.373790   357A     12.984228   358A     13.318792  
     359A     13.487986   360A     13.819038   361A     14.084110  
     362A     14.219880  

    Final Occupation by Irrep:
              A 
    DOCC [    25 ]

  Energy converged.

  @DF-RHF Final Energy:  -251.44629870185130

   => Energetics <=

    Nuclear Repulsion Energy =            245.8481053841843789
    One-Electron Energy =                -826.0818818713121345
    Two-Electron Energy =                 328.7874777852762804
    DFT Exchange-Correlation Energy =       0.0000000000000000
    Empirical Dispersion Energy =           0.0000000000000000
    PCM Polarization Energy =               0.0000000000000000
    EFP Energy =                            0.0000000000000000
    Total Energy =                       -251.4462987018515037


  Saving occupied orbitals to File 180.

*** tstop() called on cx1-28-12-4 at Sat Sep 10 17:41:53 2016
Module time:
	user time   =      22.72 seconds =       0.38 minutes
	system time =       0.56 seconds =       0.01 minutes
	total time  =          7 seconds =       0.12 minutes
Total time:
	user time   =      85.90 seconds =       1.43 minutes
	system time =       2.15 seconds =       0.04 minutes
	total time  =         25 seconds =       0.42 minutes


Properties will be evaluated at   0.000000,   0.000000,   0.000000 Bohr

Properties computed using the SCF density matrix

  Nuclear Dipole Moment: (a.u.)
     X:    -3.5556      Y:     0.8478      Z:    -0.1613

  Electronic Dipole Moment: (a.u.)
     X:     3.5353      Y:    -0.4753      Z:     0.4395

  Dipole Moment: (a.u.)
     X:    -0.0203      Y:     0.3725      Z:     0.2782     Total:     0.4654

  Dipole Moment: (Debye)
     X:    -0.0516      Y:     0.9469      Z:     0.7071     Total:     1.1829


*** tstart() called on cx1-28-12-4
*** at Sat Sep 10 17:41:53 2016


         ------------------------------------------------------------
                                   SCF GRAD                          
                          Rob Parrish, Justin Turney,                
                       Andy Simmonett, and Alex Sokolov              
         ------------------------------------------------------------

  ==> Geometry <==

    Molecular point group: c1
    Full point group: C1

    Geometry (in Angstrom), charge = 0, multiplicity = 1:

       Center              X                  Y                   Z               Mass       
    ------------   -----------------  -----------------  -----------------  -----------------
           H          3.843787525017     0.387270614775     0.591034050905     1.007825032070
           N          3.024202624887    -0.180458015948     0.646361919983    14.003074004780
           C          1.851433427480     0.544621015091     0.182621760798    12.000000000000
           H          2.919296141865    -0.453417088472     1.601850682912     1.007825032070
           C          0.619348583150    -0.349932527519     0.192322736597    12.000000000000
           H          2.046344922359     0.875286428068    -0.832733746427     1.007825032070
           H          1.647314340793     1.441255939521     0.770536184453     1.007825032070
           C         -0.640874537221     0.352850176690    -0.303939764816    12.000000000000
           H          0.823882780147    -1.225583999894    -0.416801977138     1.007825032070
           H          0.449814148357    -0.711551226156     1.204933689498     1.007825032070
           C         -1.855130790871    -0.580617360598    -0.393858710553    12.000000000000
           H         -0.428415208380     0.754674131527    -1.291677532026     1.007825032070
           H         -0.864639333226     1.198378572469     0.342423307126     1.007825032070
           C         -3.186041024574     0.167751971889    -0.417121831914    12.000000000000
           H         -1.788242669464    -1.164752368594    -1.307443257088     1.007825032070
           H         -1.851636485104    -1.283150091003     0.435282640804     1.007825032070
           H         -3.215845079727     0.886506269181    -1.232975000428     1.007825032070
           H         -4.024630796394    -0.513605159498    -0.546362338783     1.007825032070
           H         -3.340386460148     0.712503240115     0.511919578249     1.007825032070

  Nuclear repulsion =  245.848105384184322

  ==> Basis Set <==

  Basis Set: CC-PVTZ
    Number of shells: 138
    Number of basis function: 362
    Number of Cartesian functions: 405
    Spherical Harmonics?: true
    Max angular momentum: 3

  ==> DFJKGrad: Density-Fitted SCF Gradients <==

    Gradient:                    1
    J tasked:                  Yes
    K tasked:                  Yes
    wK tasked:                  No
    OpenMP threads:              4
    Integrals threads:           4
    Memory (MB):              1430
    Schwarz Cutoff:          0E+00
    Fitting Condition:       1E-12

   => Auxiliary Basis Set <=

  Basis Set: 
    Number of shells: 280
    Number of basis function: 864
    Number of Cartesian functions: 1031
    Spherical Harmonics?: true
    Max angular momentum: 4


  -Total Gradient:
     Atom            X                  Y                   Z
    ------   -----------------  -----------------  -----------------
       1        0.000616431213     0.000324853266    -0.000031055609
       2       -0.000192610576    -0.000152929875    -0.000427461155
       3        0.000472235965    -0.000051671824    -0.000113168653
       4       -0.000091620766    -0.000139454418     0.000502593079
       5       -0.000601393787     0.000782760931    -0.000874216629
       6        0.000177618348     0.000157677445    -0.000409496335
       7       -0.000062723283     0.000146988023     0.000277123873
       8       -0.002228371914     0.003832723454     0.001509257689
       9        0.000205658463    -0.000439996361    -0.000232169335
      10       -0.000520050736     0.000228941654     0.000148429789
      11        0.002610355067    -0.003451531376     0.002907524109
      12        0.003175185915    -0.002812770571    -0.000648188448
      13        0.000267850716     0.000952519997     0.000210794190
      14        0.001422267638    -0.000992986767    -0.001211840848
      15       -0.002771913036     0.002487235579    -0.002284106645
      16       -0.000377510291    -0.000914778393     0.000462374959
      17        0.000065774827     0.001003703023    -0.001431356151
      18       -0.002425158127    -0.001498704348    -0.000448608777
      19        0.000257974365     0.000537420561     0.002093570895


*** tstop() called on cx1-28-12-4 at Sat Sep 10 17:42:02 2016
Module time:
	user time   =      31.58 seconds =       0.53 minutes
	system time =       0.73 seconds =       0.01 minutes
	total time  =          9 seconds =       0.15 minutes
Total time:
	user time   =     117.56 seconds =       1.96 minutes
	system time =       2.88 seconds =       0.05 minutes
	total time  =         34 seconds =       0.57 minutes

			-----------------------------------------
			 OPTKING 2.0: for geometry optimizations 
			  - R.A. King,  Bethel University        
			-----------------------------------------

	Previous internal coordinate definitions found.
	---Fragment 1 Geometry and Gradient---
	 H           7.2637057353        0.7318354012        1.1168924914
	 N           5.7149147314       -0.3410162286        1.2214470115
	 C           3.4987021312        1.0291845647        0.3451051138
	 H           5.5166702089       -0.8568341212        3.0270590965
	 C           1.1703992029       -0.6612766420        0.3634373013
	 H           3.8670314767        1.6540516369       -1.5736387224
	 H           3.1129729589        2.7235790131        1.4561023641
	 C          -1.2110773609        0.6667901999       -0.5743629164
	 H           1.5569128201       -2.3160181126       -0.7876415884
	 H           0.8500255511       -1.3446369470        2.2769946814
	 C          -3.5056891354       -1.0972077995       -0.7442850980
	 H          -0.8095874150        1.4261274282       -2.4409167875
	 H          -1.6339315435        2.2646073055        0.6470862720
	 C          -6.0207449846        0.3170052851       -0.7882460264
	 H          -3.3792889044       -2.2010629893       -2.4707096902
	 H          -3.4990858545       -2.4248022594        0.8225649815
	 H          -6.0770664865        1.6752540638       -2.3299850795
	 H          -7.6054499912       -0.9705730919       -1.0324751896
	 H          -6.3124155877        1.3464359926        0.9673878050
	             0.0006164312        0.0003248533       -0.0000310556
	            -0.0001926106       -0.0001529299       -0.0004274612
	             0.0004722360       -0.0000516718       -0.0001131687
	            -0.0000916208       -0.0001394544        0.0005025931
	            -0.0006013938        0.0007827609       -0.0008742166
	             0.0001776183        0.0001576774       -0.0004094963
	            -0.0000627233        0.0001469880        0.0002771239
	            -0.0022283719        0.0038327235        0.0015092577
	             0.0002056585       -0.0004399964       -0.0002321693
	            -0.0005200507        0.0002289417        0.0001484298
	             0.0026103551       -0.0034515314        0.0029075241
	             0.0031751859       -0.0028127706       -0.0006481884
	             0.0002678507        0.0009525200        0.0002107942
	             0.0014222676       -0.0009929868       -0.0012118408
	            -0.0027719130        0.0024872356       -0.0022841066
	            -0.0003775103       -0.0009147784        0.0004623750
	             0.0000657748        0.0010037030       -0.0014313562
	            -0.0024251581       -0.0014987043       -0.0004486088
	             0.0002579744        0.0005374206        0.0020935709

	---Fragment 1 Intrafragment Coordinates---
	 - Coordinate -           - BOHR/RAD -       - ANG/DEG -
	 R(1,2)           =         1.886981	       0.998547
	 R(2,3)           =         2.749004	       1.454710
	 R(2,4)           =         1.888281	       0.999235
	 R(3,5)           =         2.877323	       1.522614
	 R(3,6)           =         2.051269	       1.085485
	 R(3,7)           =         2.062541	       1.091450
	 R(5,8)           =         2.883515	       1.525891
	 R(5,9)           =         2.052448	       1.086109
	 R(5,10)          =         2.057018	       1.088527
	 R(8,11)          =         2.899277	       1.534231
	 R(8,12)          =         2.054704	       1.087303
	 R(8,13)          =         2.055180	       1.087554
	 R(11,14)         =         2.885730	       1.527063
	 R(11,15)         =         2.053050	       1.086427
	 R(11,16)         =         2.053672	       1.086757
	 R(14,17)         =         2.055473	       1.087710
	 R(14,18)         =         2.056404	       1.088202
	 R(14,19)         =         2.055979	       1.087977
	 B(1,2,3)         =         1.939760	     111.140078
	 B(1,2,4)         =         1.869691	     107.125419
	 B(2,3,5)         =         1.936377	     110.946227
	 B(2,3,6)         =         1.881013	     107.774107
	 B(2,3,7)         =         1.969826	     112.862689
	 B(3,2,4)         =         1.935151	     110.875986
	 B(3,5,8)         =         1.977563	     113.305993
	 B(3,5,9)         =         1.894110	     108.524480
	 B(3,5,10)        =         1.904064	     109.094820
	 B(5,3,6)         =         1.907343	     109.282728
	 B(5,3,7)         =         1.904857	     109.140264
	 B(5,8,11)        =         1.974127	     113.109156
	 B(5,8,12)        =         1.879975	     107.714615
	 B(5,8,13)        =         1.912096	     109.555016
	 B(6,3,7)         =         1.862081	     106.689411
	 B(8,5,9)         =         1.922458	     110.148755
	 B(8,5,10)        =         1.903841	     109.082072
	 B(8,11,14)       =         1.974146	     113.110256
	 B(8,11,15)       =         1.904652	     109.128502
	 B(8,11,16)       =         1.924161	     110.246324
	 B(9,5,10)        =         1.857938	     106.452006
	 B(11,8,12)       =         1.903137	     109.041746
	 B(11,8,13)       =         1.923056	     110.182993
	 B(11,14,17)      =         1.938148	     111.047674
	 B(11,14,18)      =         1.946141	     111.505677
	 B(11,14,19)      =         1.934794	     110.855519
	 B(12,8,13)       =         1.867940	     107.025073
	 B(14,11,15)      =         1.880045	     107.718642
	 B(14,11,16)      =         1.908404	     109.343515
	 B(15,11,16)      =         1.868995	     107.085525
	 B(17,14,18)      =         1.879210	     107.670819
	 B(17,14,19)      =         1.881516	     107.802954
	 B(18,14,19)      =         1.881361	     107.794047
	 D(1,2,3,5)       =         3.084016	     176.701118
	 D(1,2,3,6)       =         0.996501	      57.095324
	 D(1,2,3,7)       =        -1.055060	     -60.450488
	 D(2,3,5,8)       =        -3.127621	    -179.199458
	 D(2,3,5,9)       =        -0.986503	     -56.522483
	 D(2,3,5,10)      =         1.031084	      59.076736
	 D(3,5,8,11)      =         3.064923	     175.607147
	 D(3,5,8,12)      =         0.960473	      55.031063
	 D(3,5,8,13)      =        -1.065517	     -61.049622
	 D(4,2,3,5)       =        -1.121595	     -64.262659
	 D(4,2,3,6)       =         3.074075	     176.131547
	 D(4,2,3,7)       =         1.022514	      58.585735
	 D(5,8,11,14)     =         2.797719	     160.297475
	 D(5,8,11,15)     =        -1.393094	     -79.818410
	 D(5,8,11,16)     =         0.654997	      37.528551
	 D(6,3,5,8)       =        -1.055927	     -60.500141
	 D(6,3,5,9)       =         1.085190	      62.176834
	 D(6,3,5,10)      =         3.102777	     177.776053
	 D(7,3,5,8)       =         0.974347	      55.825966
	 D(7,3,5,9)       =         3.115464	     178.502941
	 D(7,3,5,10)      =        -1.150134	     -65.897840
	 D(8,11,14,17)    =         0.981089	      56.212235
	 D(8,11,14,18)    =         3.076886	     176.292566
	 D(8,11,14,19)    =        -1.110049	     -63.601117
	 D(9,5,8,11)      =         0.939588	      53.834454
	 D(9,5,8,12)      =        -1.164861	     -66.741629
	 D(9,5,8,13)      =         3.092334	     177.177686
	 D(10,5,8,11)     =        -1.093657	     -62.661912
	 D(10,5,8,12)     =         3.085079	     176.762004
	 D(10,5,8,13)     =         1.059089	      60.681319
	 D(12,8,11,14)    =        -1.394241	     -79.884119
	*D(12,8,11,15)    =         0.698132	      39.999997
	 D(12,8,11,16)    =         2.746222	     157.346958
	 D(13,8,11,14)    =         0.651033	      37.301449
	 D(13,8,11,15)    =         2.743406	     157.185564
	 D(13,8,11,16)    =        -1.491689	     -85.467474
	 D(15,11,14,17)   =        -1.125319	     -64.476049
	 D(15,11,14,18)   =         0.970478	      55.604282
	 D(15,11,14,19)   =         3.066728	     175.710599
	 D(16,11,14,17)   =         3.132537	     179.481168
	 D(16,11,14,18)   =        -1.054851	     -60.438501
	 D(16,11,14,19)   =         1.041400	      59.667816

	Current energy   :      -251.4462987019

	Energy change for the previous step:
		Projected    :        -0.0001769578
		Actual       :        -0.0001983045
	Energy ratio indicates good step: Trust radius increased to 1.000e+00.


	Performing BFGS update.
	Previous computed or guess Hessian on step 1.
	Steps to be used in Hessian update: 1
	Taking RFO optimization step.
	Going to follow RFO solution 1.
	Using RFO vector 1.
	Norm of target step-size    0.07609
	Projected energy change by RFO approximation:        -0.0004618353

	Back-transformation to cartesian coordinates...
	Successfully converged to displaced geometry.

	Back-transformation to cartesian coordinates to adjust frozen coordinates...
	Successfully converged to displaced geometry.

	--- Internal Coordinate Step in ANG or DEG, aJ/ANG or AJ/DEG ---
	 ---------------------------------------------------------------------------
	   Coordinate                Previous        Force       Change         New 
	   ----------                --------       ------       ------       ------
	    1 R(1,2)          =      0.998547    -0.005704    -0.000731     0.997816
	    2 R(2,3)          =      1.454710    -0.002189    -0.000314     1.454396
	    3 R(2,4)          =      0.999235    -0.004353    -0.000558     0.998677
	    4 R(3,5)          =      1.522614    -0.007521    -0.001443     1.521171
	    5 R(3,6)          =      1.085485    -0.003814    -0.000651     1.084834
	    6 R(3,7)          =      1.091450    -0.002321    -0.000452     1.090997
	    7 R(5,8)          =      1.525891     0.006335     0.000871     1.526762
	    8 R(5,9)          =      1.086109    -0.004314    -0.000699     1.085410
	    9 R(5,10)         =      1.088527    -0.001178    -0.000312     1.088215
	   10 R(8,11)         =      1.534231    -0.022085    -0.003340     1.530891
	   11 R(8,12)         =      1.087303    -0.001399    -0.000276     1.087027
	   12 R(8,13)         =      1.087554    -0.006679    -0.001006     1.086548
	   13 R(11,14)        =      1.527063    -0.001164    -0.000670     1.526392
	   14 R(11,15)        =      1.086427    -0.003401    -0.000607     1.085821
	   15 R(11,16)        =      1.086757    -0.007768    -0.001207     1.085550
	   16 R(14,17)        =      1.087710    -0.014295    -0.002433     1.085276
	   17 R(14,18)        =      1.088202    -0.023567    -0.004071     1.084131
	   18 R(14,19)        =      1.087977    -0.016644    -0.003005     1.084973
	   19 B(1,2,3)        =    111.140078    -0.000011    -0.050060   111.090018
	   20 B(1,2,4)        =    107.125419     0.000001    -0.007545   107.117874
	   21 B(2,3,5)        =    110.946227    -0.000018    -0.046473   110.899754
	   22 B(2,3,6)        =    107.774107     0.000010     0.027870   107.801977
	   23 B(2,3,7)        =    112.862689     0.000007     0.047798   112.910487
	   24 B(3,2,4)        =    110.875986     0.000006     0.016249   110.892235
	   25 B(3,5,8)        =    113.305993    -0.000033    -0.082364   113.223629
	   26 B(3,5,9)        =    108.524480     0.000022     0.032509   108.556989
	   27 B(3,5,10)       =    109.094820    -0.000016    -0.069136   109.025684
	   28 B(5,3,6)        =    109.282728    -0.000004    -0.041744   109.240984
	   29 B(5,3,7)        =    109.140264     0.000010     0.040585   109.180849
	   30 B(5,8,11)       =    113.109156    -0.000049    -0.137094   112.972061
	   31 B(5,8,12)       =    107.714615     0.000049     0.351069   108.065685
	   32 B(5,8,13)       =    109.555016     0.000015    -0.039712   109.515304
	   33 B(6,3,7)        =    106.689411    -0.000005    -0.030781   106.658630
	   34 B(8,5,9)        =    110.148755    -0.000005    -0.042134   110.106620
	   35 B(8,5,10)       =    109.082072     0.000043     0.214795   109.296867
	   36 B(8,11,14)      =    113.110256    -0.000075    -0.220217   112.890039
	   37 B(8,11,15)      =    109.128502    -0.000007    -0.054787   109.073715
	   38 B(8,11,16)      =    110.246324    -0.000001    -0.210754   110.035570
	   39 B(9,5,10)       =    106.452006    -0.000011    -0.054257   106.397749
	   40 B(11,8,12)      =    109.041746    -0.000014    -0.061540   108.980206
	   41 B(11,8,13)      =    110.182993    -0.000009    -0.251786   109.931208
	   42 B(11,14,17)     =    111.047674     0.000011     0.058845   111.106520
	   43 B(11,14,18)     =    111.505677    -0.000056    -0.226218   111.279459
	   44 B(11,14,19)     =    110.855519     0.000088     0.323737   111.179256
	   45 B(12,8,13)      =    107.025073     0.000014     0.168352   107.193424
	   46 B(14,11,15)     =    107.718642     0.000056     0.369615   108.088257
	   47 B(14,11,16)     =    109.343515     0.000025     0.015093   109.358608
	   48 B(15,11,16)     =    107.085525     0.000006     0.131407   107.216932
	   49 B(17,14,18)     =    107.670819     0.000015     0.011999   107.682818
	   50 B(17,14,19)     =    107.802954    -0.000047    -0.169110   107.633844
	   51 B(18,14,19)     =    107.794047    -0.000013    -0.008638   107.785409
	   52 D(1,2,3,5)      =    176.701118    -0.000001     0.011542   176.712660
	   53 D(1,2,3,6)      =     57.095324     0.000001     0.072388    57.167712
	   54 D(1,2,3,7)      =    -60.450488     0.000000     0.064544   -60.385944
	   55 D(2,3,5,8)      =   -179.199458     0.000003    -0.265989  -179.465447
	   56 D(2,3,5,9)      =    -56.522483    -0.000000    -0.351823   -56.874306
	   57 D(2,3,5,10)     =     59.076736    -0.000002    -0.435658    58.641078
	   58 D(3,5,8,11)     =    175.607147     0.000004     1.104544   176.711691
	   59 D(3,5,8,12)     =     55.031063     0.000007     1.027112    56.058175
	   60 D(3,5,8,13)     =    -61.049622    -0.000005     0.653460   -60.396162
	   61 D(4,2,3,5)      =    -64.262659    -0.000001    -0.019871   -64.282530
	   62 D(4,2,3,6)      =    176.131547     0.000001     0.040975   176.172522
	   63 D(4,2,3,7)      =     58.585735    -0.000000     0.033131    58.618866
	   64 D(5,8,11,14)    =    160.297475    -0.000009    -0.599790   159.697685
	   65 D(5,8,11,15)    =    -79.818410    -0.000005    -0.312691   -80.131102
	   66 D(5,8,11,16)    =     37.528551    -0.000004    -0.307930    37.220621
	   67 D(6,3,5,8)      =    -60.500141     0.000002    -0.286093   -60.786234
	   68 D(6,3,5,9)      =     62.176834    -0.000000    -0.371927    61.804907
	   69 D(6,3,5,10)     =    177.776053    -0.000003    -0.455763   177.320291
	   70 D(7,3,5,8)      =     55.825966     0.000002    -0.323581    55.502385
	   71 D(7,3,5,9)      =    178.502941    -0.000001    -0.409415   178.093526
	   72 D(7,3,5,10)     =    -65.897840    -0.000003    -0.493250   -66.391090
	   73 D(8,11,14,17)   =     56.212235     0.000004     1.071408    57.283643
	   74 D(8,11,14,18)   =    176.292566     0.000001     0.974409   177.266974
	   75 D(8,11,14,19)   =    -63.601117     0.000002     1.030369   -62.570748
	   76 D(9,5,8,11)     =     53.834454     0.000003     1.150793    54.985248
	   77 D(9,5,8,12)     =    -66.741629     0.000007     1.073362   -65.668268
	   78 D(9,5,8,13)     =    177.177686    -0.000005     0.699710   177.877396
	   79 D(10,5,8,11)    =    -62.661912     0.000001     1.115203   -61.546709
	   80 D(10,5,8,12)    =    176.762004     0.000005     1.037771   177.799775
	   81 D(10,5,8,13)    =     60.681319    -0.000007     0.664120    61.345439
	   82 D(12,8,11,14)   =    -79.884119    -0.000004    -0.287099   -80.171217
	   83 *D(12,8,11,15)  =     39.999997     0.000000     0.000000    39.999997
	   84 D(12,8,11,16)   =    157.346958     0.000001     0.004761   157.351719
	   85 D(13,8,11,14)   =     37.301449    -0.000004    -0.264335    37.037114
[...]
	 R(3,6)           =         2.050094	       1.084863
	 R(3,7)           =         2.061715	       1.091013
	 R(5,8)           =         2.885902	       1.527153
	 R(5,9)           =         2.051097	       1.085394
	 R(5,10)          =         2.056433	       1.088217
	 R(8,11)          =         2.893277	       1.531056
	 R(8,12)          =         2.053935	       1.086896
	 R(8,13)          =         2.052871	       1.086332
	 R(11,14)         =         2.885182	       1.526773
	 R(11,15)         =         2.051672	       1.085698
	 R(11,16)         =         2.051036	       1.085362
	 R(14,17)         =         2.050881	       1.085280
	 R(14,18)         =         2.048749	       1.084151
	 R(14,19)         =         2.050197	       1.084918
	 B(1,2,3)         =         1.939600	     111.130907
	 B(1,2,4)         =         1.869761	     107.129428
	 B(2,3,5)         =         1.936197	     110.935905
	 B(2,3,6)         =         1.881144	     107.781615
	 B(2,3,7)         =         1.970257	     112.887397
	 B(3,2,4)         =         1.935493	     110.895592
	 B(3,5,8)         =         1.976664	     113.254482
	 B(3,5,9)         =         1.895066	     108.579264
	 B(3,5,10)        =         1.903099	     109.039549
	 B(5,3,6)         =         1.906878	     109.256045
	 B(5,3,7)         =         1.905667	     109.186670
	 B(5,8,11)        =         1.972163	     112.996597
	 B(5,8,12)        =         1.885875	     108.052672
	 B(5,8,13)        =         1.910940	     109.488798
	 B(6,3,7)         =         1.861285	     106.643796
	 B(8,5,9)         =         1.921043	     110.067668
	 B(8,5,10)        =         1.907192	     109.274031
	 B(8,11,14)       =         1.970896	     112.924007
	 B(8,11,15)       =         1.904083	     109.095920
	 B(8,11,16)       =         1.919777	     109.995140
	 B(9,5,10)        =         1.856871	     106.390894
	 B(11,8,12)       =         1.902343	     108.996220
	 B(11,8,13)       =         1.918228	     109.906375
	 B(11,14,17)      =         1.938684	     111.078390
	 B(11,14,18)      =         1.942868	     111.318122
	 B(11,14,19)      =         1.940249	     111.168055
	 B(12,8,13)       =         1.871308	     107.218073
	 B(14,11,15)      =         1.886323	     108.078367
	 B(14,11,16)      =         1.908354	     109.340655
	 B(15,11,16)      =         1.871498	     107.228929
	 B(17,14,18)      =         1.879656	     107.696382
	 B(17,14,19)      =         1.878202	     107.613058
	 B(18,14,19)      =         1.881345	     107.793156
	 D(1,2,3,5)       =         3.083876	     176.693075
	 D(1,2,3,6)       =         0.996954	      57.121228
	 D(1,2,3,7)       =        -1.053963	     -60.387612
	 D(2,3,5,8)       =        -3.130337	    -179.355107
	 D(2,3,5,9)       =        -0.990944	     -56.776909
	 D(2,3,5,10)      =         1.025379	      58.749875
	 D(3,5,8,11)      =         3.086706	     176.855249
	 D(3,5,8,12)      =         0.980440	      56.175080
	 D(3,5,8,13)      =        -1.052207	     -60.287018
	 D(4,2,3,5)       =        -1.121528	     -64.258821
	 D(4,2,3,6)       =         3.074735	     176.169332
	 D(4,2,3,7)       =         1.023819	      58.660491
	 D(5,8,11,14)     =         2.786636	     159.662488
	 D(5,8,11,15)     =        -1.398733	     -80.141525
	 D(5,8,11,16)     =         0.649515	      37.214441
	 D(6,3,5,8)       =        -1.058884	     -60.669567
	 D(6,3,5,9)       =         1.080509	      61.908632
	 D(6,3,5,10)      =         3.096832	     177.435415
	 D(7,3,5,8)       =         0.970630	      55.612985
	 D(7,3,5,9)       =         3.110023	     178.191184
	 D(7,3,5,10)      =        -1.156840	     -66.282033
	 D(8,11,14,17)    =         1.002234	      57.423756
	 D(8,11,14,18)    =         3.096759	     177.431247
	 D(8,11,14,19)    =        -1.088704	     -62.378139
	 D(9,5,8,11)      =         0.961800	      55.107053
	 D(9,5,8,12)      =        -1.144467	     -65.573116
	 D(9,5,8,13)      =         3.106071	     177.964786
	 D(10,5,8,11)     =        -1.071300	     -61.380960
	 D(10,5,8,12)     =         3.105619	     177.938872
	 D(10,5,8,13)     =         1.072972	      61.476773
	 D(12,8,11,14)    =        -1.399684	     -80.195990
	*D(12,8,11,15)    =         0.698132	      39.999997
	 D(12,8,11,16)    =         2.746380	     157.355962
	 D(13,8,11,14)    =         0.646422	      37.037247
	 D(13,8,11,15)    =         2.744238	     157.233234
	 D(13,8,11,16)    =        -1.490700	     -85.410801
	 D(15,11,14,17)   =        -1.105727	     -63.353475
	 D(15,11,14,18)   =         0.988799	      56.654015
	 D(15,11,14,19)   =         3.086521	     176.844629
	 D(16,11,14,17)   =        -3.137454	    -179.762846
	 D(16,11,14,18)   =        -1.042928	     -59.755356
	 D(16,11,14,19)   =         1.054794	      60.435259

	Current energy   :      -251.4463724344

	Energy change for the previous step:
		Projected    :         0.0000009707
		Actual       :        -0.0000006940

	Performing BFGS update.
	Previous computed or guess Hessian on step 1.
	Steps to be used in Hessian update: 3 2
	Taking RFO optimization step.
	Going to follow RFO solution 1.
	Using RFO vector 1.
	Norm of target step-size    0.00354
	Projected energy change by RFO approximation:         0.0000000574

	Back-transformation to cartesian coordinates...
	Successfully converged to displaced geometry.

	Back-transformation to cartesian coordinates to adjust frozen coordinates...
	Successfully converged to displaced geometry.

	--- Internal Coordinate Step in ANG or DEG, aJ/ANG or AJ/DEG ---
	 ---------------------------------------------------------------------------
	   Coordinate                Previous        Force       Change         New 
	   ----------                --------       ------       ------       ------
	    1 R(1,2)          =      0.997851    -0.000200    -0.000019     0.997832
	    2 R(2,3)          =      1.454476    -0.000314    -0.000038     1.454438
	    3 R(2,4)          =      0.998684    -0.000057    -0.000006     0.998678
	    4 R(3,5)          =      1.521365    -0.000735    -0.000113     1.521252
	    5 R(3,6)          =      1.084863     0.000053     0.000010     1.084873
	    6 R(3,7)          =      1.091013     0.000016     0.000003     1.091016
	    7 R(5,8)          =      1.527153    -0.000005     0.000016     1.527169
	    8 R(5,9)          =      1.085394     0.000061     0.000008     1.085402
	    9 R(5,10)         =      1.088217     0.000031     0.000005     1.088222
	   10 R(8,11)         =      1.531056    -0.000476    -0.000074     1.530982
	   11 R(8,12)         =      1.086896    -0.000043    -0.000012     1.086884
	   12 R(8,13)         =      1.086332     0.000110     0.000008     1.086341
	   13 R(11,14)        =      1.526773    -0.000088     0.000003     1.526776
	   14 R(11,15)        =      1.085698    -0.000012    -0.000007     1.085691
	   15 R(11,16)        =      1.085362     0.000144     0.000015     1.085376
	   16 R(14,17)        =      1.085280     0.000149     0.000024     1.085303
	   17 R(14,18)        =      1.084151    -0.000058    -0.000003     1.084148
	   18 R(14,19)        =      1.084918     0.000153     0.000022     1.084939
	   19 B(1,2,3)        =    111.130907    -0.000004    -0.011629   111.119278
	   20 B(1,2,4)        =    107.129428     0.000001     0.003122   107.132550
	   21 B(2,3,5)        =    110.935905    -0.000005    -0.012376   110.923528
	   22 B(2,3,6)        =    107.781615     0.000002     0.007908   107.789524
	   23 B(2,3,7)        =    112.887397     0.000002     0.004454   112.891851
	   24 B(3,2,4)        =    110.895592     0.000001     0.004670   110.900262
	   25 B(3,5,8)        =    113.254482    -0.000005    -0.014126   113.240356
	   26 B(3,5,9)        =    108.579264     0.000001     0.002475   108.581739
	   27 B(3,5,10)       =    109.039549     0.000001     0.002912   109.042461
	   28 B(5,3,6)        =    109.256045     0.000001     0.002446   109.258491
	   29 B(5,3,7)        =    109.186670     0.000000    -0.004644   109.182025
	   30 B(5,8,11)       =    112.996597    -0.000005    -0.011940   112.984656
	   31 B(5,8,12)       =    108.052672     0.000001     0.005391   108.058063
	   32 B(5,8,13)       =    109.488798     0.000002     0.006259   109.495057
	   33 B(6,3,7)        =    106.643796    -0.000000     0.003075   106.646871
	   34 B(8,5,9)        =    110.067668     0.000002     0.003712   110.071380
	   35 B(8,5,10)       =    109.274031     0.000001    -0.000316   109.273716
	   36 B(8,11,14)      =    112.924007    -0.000004    -0.008676   112.915331
	   37 B(8,11,15)      =    109.095920     0.000001     0.002611   109.098531
	   38 B(8,11,16)      =    109.995140     0.000001    -0.001195   109.993945
	   39 B(9,5,10)       =    106.390894    -0.000000     0.006644   106.397537
	   40 B(11,8,12)      =    108.996220     0.000002     0.007673   109.003893
	   41 B(11,8,13)      =    109.906375     0.000001    -0.003838   109.902537
	   42 B(11,14,17)     =    111.078390     0.000001     0.002328   111.080718
	   43 B(11,14,18)     =    111.318122    -0.000003    -0.012630   111.305491
	   44 B(11,14,19)     =    111.168055    -0.000000    -0.001108   111.166948
	   45 B(12,8,13)      =    107.218073    -0.000001    -0.002970   107.215102
	   46 B(14,11,15)     =    108.078367     0.000002     0.005419   108.083786
	   47 B(14,11,16)     =    109.340655     0.000002     0.005211   109.345867
	   48 B(15,11,16)     =    107.228929    -0.000001    -0.003032   107.225897
	   49 B(17,14,18)     =    107.696382     0.000001     0.004162   107.700543
	   50 B(17,14,19)     =    107.613058     0.000000     0.004314   107.617372
	   51 B(18,14,19)     =    107.793156     0.000002     0.003664   107.796820
	   52 D(1,2,3,5)      =    176.693075     0.000000     0.006356   176.699431
	   53 D(1,2,3,6)      =     57.121228     0.000000     0.005704    57.126933
	   54 D(1,2,3,7)      =    -60.387612    -0.000000    -0.005758   -60.393370
	   55 D(2,3,5,8)      =   -179.355107    -0.000000    -0.008603  -179.363710
	   56 D(2,3,5,9)      =    -56.776909    -0.000000    -0.011571   -56.788480
	   57 D(2,3,5,10)     =     58.749875     0.000000    -0.000779    58.749095
	   58 D(3,5,8,11)     =    176.855249     0.000000    -0.010868   176.844381
	   59 D(3,5,8,12)     =     56.175080     0.000000    -0.016677    56.158404
	   60 D(3,5,8,13)     =    -60.287018    -0.000000    -0.019529   -60.306547
	   61 D(4,2,3,5)      =    -64.258821     0.000000     0.005752   -64.253070
	   62 D(4,2,3,6)      =    176.169332     0.000000     0.005100   176.174432
	   63 D(4,2,3,7)      =     58.660491    -0.000000    -0.006362    58.654129
	   64 D(5,8,11,14)    =    159.662488     0.000000    -0.007453   159.655035
	   65 D(5,8,11,15)    =    -80.141525     0.000000    -0.004412   -80.145937
	   66 D(5,8,11,16)    =     37.214441     0.000000    -0.007237    37.207204
	   67 D(6,3,5,8)      =    -60.669567    -0.000000    -0.004853   -60.674420
	   68 D(6,3,5,9)      =     61.908632    -0.000000    -0.007821    61.900811
	   69 D(6,3,5,10)     =    177.435415     0.000000     0.002971   177.438386
	   70 D(7,3,5,8)      =     55.612985    -0.000000    -0.002405    55.610580
	   71 D(7,3,5,9)      =    178.191184    -0.000000    -0.005373   178.185811
	   72 D(7,3,5,10)     =    -66.282033     0.000000     0.005419   -66.276614
	   73 D(8,11,14,17)   =     57.423756     0.000000    -0.058857    57.364900
	   74 D(8,11,14,18)   =    177.431247    -0.000000    -0.060490   177.370757
	   75 D(8,11,14,19)   =    -62.378139    -0.000000    -0.065118   -62.443257
	   76 D(9,5,8,11)     =     55.107053     0.000000    -0.006956    55.100097
	   77 D(9,5,8,12)     =    -65.573116     0.000000    -0.012764   -65.585880
	   78 D(9,5,8,13)     =    177.964786     0.000000    -0.015616   177.949169
	   79 D(10,5,8,11)    =    -61.380960    -0.000000    -0.016930   -61.397890
	   80 D(10,5,8,12)    =    177.938872    -0.000000    -0.022739   177.916133
	   81 D(10,5,8,13)    =     61.476773    -0.000000    -0.025591    61.451182
	   82 D(12,8,11,14)   =    -80.195990     0.000000    -0.003041   -80.199031
	   83 *D(12,8,11,15)  =     39.999997     0.000000    -0.000000    39.999997
	   84 D(12,8,11,16)   =    157.355962    -0.000000    -0.002825   157.353137
	   85 D(13,8,11,14)   =     37.037247     0.000000    -0.004347    37.032899
	   86 D(13,8,11,15)   =    157.233234     0.000000    -0.001306   157.231927
	   87 D(13,8,11,16)   =    -85.410801    -0.000000    -0.004131   -85.414932
	   88 D(15,11,14,17)  =    -63.353475     0.000000    -0.060375   -63.413851
	   89 D(15,11,14,18)  =     56.654015     0.000000    -0.062009    56.592007
	   90 D(15,11,14,19)  =    176.844629    -0.000000    -0.066637   176.777993
	   91 D(16,11,14,17)  =   -179.762846    -0.000000    -0.062582  -179.825428
	   92 D(16,11,14,18)  =    -59.755356    -0.000000    -0.064215   -59.819570
	   93 D(16,11,14,19)  =     60.435259    -0.000000    -0.068843    60.366416
	 ---------------------------------------------------------------------------
	Successfully symmetrized geometry.

  ==> Convergence Check <==

  Measures of convergence in internal coordinates in au.
  Criteria marked as inactive (o), active & met (*), and active & unmet ( ).
  ---------------------------------------------------------------------------------------------
   Step     Total Energy     Delta E     MAX Force     RMS Force      MAX Disp      RMS Disp   
  ---------------------------------------------------------------------------------------------
    Convergence Criteria    1.00e-06 *    3.00e-04 *             o    1.20e-03 *             o
  ---------------------------------------------------------------------------------------------
      4    -251.44637243   -6.94e-07 *    8.92e-05 *    2.18e-05 o    1.20e-03      3.67e-04 o  ~
  ---------------------------------------------------------------------------------------------


  **** Optimization is complete! (in 4 steps) ****

  ==> Optimization Summary <==

  Measures of convergence in internal coordinates in au.
  --------------------------------------------------------------------------------------------------------------- ~
   Step         Total Energy             Delta E       MAX Force       RMS Force        MAX Disp        RMS Disp  ~
  --------------------------------------------------------------------------------------------------------------- ~
      1    -251.446100397354   -251.446100397354      0.00413950      0.00057543      0.07732528      0.02991189  ~
      2    -251.446298701851     -0.000198304498      0.00286054      0.00061320      0.02008513      0.00788748  ~
      3    -251.446371740426     -0.000073038575      0.00022105      0.00005794      0.00336165      0.00122333  ~
      4    -251.446372434425     -0.000000693999      0.00008925      0.00002177      0.00120153      0.00036712  ~
  --------------------------------------------------------------------------------------------------------------- ~

	Writing optimization data to binary file.
	Final energy is   -251.4463724344251
	Final (previous) structure:
	Cartesian Geometry (in Angstrom)
	    H     3.8388617930   0.4035943682   0.5881504713
	    N     3.0240680144  -0.1704470329   0.6360497378
	    C     1.8470647151   0.5504566461   0.1772873625
	    H     2.9195590895  -0.4539885592   1.5879175011
	    C     0.6228469610  -0.3527813612   0.1752803181
	    H     2.0411374001   0.8922847381  -0.8338592731
	    H     1.6354428350   1.4398944383   0.7726237134
	    C    -0.6428315573   0.3481953625  -0.3134801652
	    H     0.8325959716  -1.2181764291  -0.4453457895
	    H     0.4583294587  -0.7299796934   1.1826890510
	    C    -1.8538575666  -0.5857784397  -0.3858825224
	    H    -0.4449236486   0.7483684360  -1.3044576492
	    H    -0.8639476307   1.1909437137   0.3353658091
	    C    -3.1839185450   0.1638690729  -0.3847941628
	    H    -1.7974005556  -1.1704555709  -1.2989574426
	    H    -1.8341532744  -1.2841083794   0.4447539540
	    H    -3.2354614314   0.8685523521  -1.2085639283
	    H    -4.0209257530  -0.5183244696  -0.4818259531
	    H    -3.3173673401   0.7236601008   0.5349186018
	Saving final (previous) structure.
			--------------------------
			 OPTKING Finished Execution 
			--------------------------

    Final optimized geometry and variables:
    Molecular point group: c1
    Full point group: C1

    Geometry (in Angstrom), charge = 0, multiplicity = 1:

    H            3.838861792963     0.403594368213     0.588150471346
    N            3.024068014448    -0.170447032925     0.636049737826
    C            1.847064715123     0.550456646097     0.177287362537
    H            2.919559089508    -0.453988559205     1.587917501110
    C            0.622846960971    -0.352781361184     0.175280318079
    H            2.041137400098     0.892284738097    -0.833859273075
    H            1.635442835002     1.439894438339     0.772623713435
    C           -0.642831557332     0.348195362511    -0.313480165165
    H            0.832595971576    -1.218176429126    -0.445345789467
    H            0.458329458651    -0.729979693387     1.182689050970
    C           -1.853857566565    -0.585778439676    -0.385882522400
    H           -0.444923648596     0.748368435964    -1.304457649209
    H           -0.863947630664     1.190943713693     0.335365809132
    C           -3.183918545021     0.163869072904    -0.384794162828
    H           -1.797400555643    -1.170455570939    -1.298957442588
    H           -1.834153274436    -1.284108379362     0.444753953960
    H           -3.235461431395     0.868552352073    -1.208563928295
    H           -4.020925753049    -0.518324469646    -0.481825953145
    H           -3.317367340051     0.723660100815     0.534918601766

	Cleaning optimization helper files.


Properties will be evaluated at   0.000000,   0.000000,   0.000000 Bohr

Properties computed using the  density matrix

  Nuclear Dipole Moment: (a.u.)
     X:    -3.5602      Y:     0.8370      Z:    -0.1205

  Electronic Dipole Moment: (a.u.)
     X:     3.5337      Y:    -0.4672      Z:     0.4026

  Dipole Moment: (a.u.)
     X:    -0.0265      Y:     0.3698      Z:     0.2821     Total:     0.4658

  Dipole Moment: (Debye)
     X:    -0.0674      Y:     0.9399      Z:     0.7170     Total:     1.1841

  Quadrupole Moment: (Debye Ang)
    XX:   -41.4822     YY:   -42.1948     ZZ:   -38.4990
    XY:     4.0624     XZ:     2.3670     YZ:    -0.2744

  Traceless Quadrupole Moment: (Debye Ang)
    XX:    -0.7569     YY:    -1.4694     ZZ:     2.2263
    XY:     4.0624     XZ:     2.3670     YZ:    -0.2744

  Mulliken Charges: (a.u.)
   Center  Symbol    Alpha    Beta     Spin     Total
       1     H     0.43024  0.43024  0.00000  0.13951
       2     N     3.68905  3.68905  0.00000 -0.37810
       3     C     3.02733  3.02733  0.00000 -0.05466
       4     H     0.43100  0.43100  0.00000  0.13800
       5     C     3.08188  3.08188  0.00000 -0.16376
       6     H     0.45715  0.45715  0.00000  0.08570
       7     H     0.46870  0.46870  0.00000  0.06260
       8     C     3.09401  3.09401  0.00000 -0.18802
       9     H     0.44885  0.44885  0.00000  0.10230
      10     H     0.46043  0.46043  0.00000  0.07914
      11     C     3.08344  3.08344  0.00000 -0.16689
      12     H     0.45417  0.45417  0.00000  0.09166
      13     H     0.45661  0.45661  0.00000  0.08678
      14     C     3.14911  3.14911  0.00000 -0.29823
      15     H     0.45304  0.45304  0.00000  0.09392
      16     H     0.45465  0.45465  0.00000  0.09069
      17     H     0.45500  0.45500  0.00000  0.09000
      18     H     0.44917  0.44917  0.00000  0.10166
      19     H     0.45615  0.45615  0.00000  0.08769

   Total alpha = 25.00000, Total beta = 25.00000, Total charge =  0.00000


*** Psi4 exiting successfully. Buy a developer a beer!
