    -----------------------------------------------------------------------
          Psi4: An Open-Source Ab Initio Electronic Structure Package
                              Psi4 (no tag) Driver

                          Git: Rev {detached?}  

    J. M. Turney, A. C. Simmonett, R. M. Parrish, E. G. Hohenstein,
    F. A. Evangelista, J. T. Fermann, B. J. Mintz, L. A. Burns, J. J. Wilke,
    M. L. Abrams, N. J. Russ, M. L. Leininger, C. L. Janssen, E. T. Seidl,
    W. D. Allen, H. F. Schaefer, R. A. King, E. F. Valeev, C. D. Sherrill,
    and T. D. Crawford, WIREs Comput. Mol. Sci. 2, 556-565 (2012)
    (doi: 10.1002/wcms.93)

                         Additional Contributions by
    A. E. DePrince, M. Saitow, U. Bozkaya, A. Yu. Sokolov
    -----------------------------------------------------------------------


    Psi4 started on: Fri Sep  2 13:59:28 2016

    Process ID:  25515
    PSI4DATADIR: /export131/home/mjharvey/miniconda3/share
    Memory level set to 256.000 MB

  ==> Input File <==

--------------------------------------------------------------------------
set {
	reference rhf
	basis 6-31G*
}


set_num_threads( 4 )
memory 2 gb

molecule MOL {
0 1

H	 3.463771	 0.168298	 -0.756243
C	 2.752674	 -0.045734	 0.033351
C	 1.322923	 0.120767	 -0.479465
H	 2.934561	 -1.059086	 0.377456
H	 2.958358	 0.631174	 0.856809
C	 0.306652	 -0.176050	 0.621399
H	 1.144658	 -0.551717	 -1.312180
H	 1.166477	 1.131798	 -0.836680
N	 -1.068537	 -0.011044	 0.085269
H	 0.372515	 -1.192590	 0.973735
H	 0.391664	 0.520566	 1.441230
O	 -1.179439	 0.309845	 -1.057580
O	 -1.970499	 -0.180736	 0.847958

	symmetry c1
}
set optking {
	frozen_dihedral = ("
		12 9 6 3
	")
}

ee = optimize('scf')
oeprop('DIPOLE', 'QUADRUPOLE', 'MULLIKEN_CHARGES')
f=open( 'psi4out.xyz', 'w' )
f.write( "13  " )
f.write( str(ee) + "\n" )
f.write( MOL.save_string_xyz() )
f.close()
--------------------------------------------------------------------------

  Memory set to   2.000 GiB by Python script.
gradient() will perform analytic gradient computation.

*** tstart() called on cx1-3-1-2.cx1.hpc.ic.ac.uk
*** at Fri Sep  2 13:59:29 2016


         ---------------------------------------------------------
                                   SCF
            by Justin Turney, Rob Parrish, and Andy Simmonett
                              RHF Reference
                        4 Threads,   2000 MiB Core
         ---------------------------------------------------------

  ==> Geometry <==

    Molecular point group: c1
    Full point group: C1

    Geometry (in Angstrom), charge = 0, multiplicity = 1:

       Center              X                  Y                   Z               Mass       
    ------------   -----------------  -----------------  -----------------  -----------------
           H          3.466348486900     0.164435737183    -0.764042326771     1.007825032070
           C          2.755251486900    -0.049596262817     0.025551673229    12.000000000000
           C          1.325500486900     0.116904737183    -0.487264326771    12.000000000000
           H          2.937138486900    -1.062948262817     0.369656673229     1.007825032070
           H          2.960935486900     0.627311737183     0.849009673229     1.007825032070
           C          0.309229486900    -0.179912262817     0.613599673229    12.000000000000
           H          1.147235486900    -0.555579262817    -1.319979326771     1.007825032070
           H          1.169054486900     1.127935737183    -0.844479326771     1.007825032070
           N         -1.065959513100    -0.014906262817     0.077469673229    14.003074004780
           H          0.375092486900    -1.196452262817     0.965935673229     1.007825032070
           H          0.394241486900     0.516703737183     1.433430673229     1.007825032070
           O         -1.176861513100     0.305982737183    -1.065379326771    15.994914619560
           O         -1.967921513100    -0.184598262817     0.840158673229    15.994914619560

  Running in c1 symmetry.

  Rotational constants: A =      0.33362  B =      0.06703  C =      0.05761 [cm^-1]
  Rotational constants: A =  10001.63359  B =   2009.63432  C =   1727.06497 [MHz]
  Nuclear repulsion =  248.285528233385804

  Charge       = 0
  Multiplicity = 1
  Electrons    = 48
  Nalpha       = 24
  Nbeta        = 24

  ==> Algorithm <==

  SCF Algorithm Type is DF.
  DIIS enabled.
  MOM disabled.
  Fractional occupation disabled.
  Guess Type is CORE.
  Energy threshold   = 1.00e-08
  Density threshold  = 1.00e-08
  Integral threshold = 0.00e+00

  ==> Primary Basis <==

  Basis Set: 6-31G*
    Number of shells: 50
    Number of basis function: 104
    Number of Cartesian functions: 104
    Spherical Harmonics?: false
    Max angular momentum: 2

  ==> Pre-Iterations <==

   -------------------------------------------------------
    Irrep   Nso     Nmo     Nalpha   Nbeta   Ndocc  Nsocc
   -------------------------------------------------------
     A        104     104       0       0       0       0
   -------------------------------------------------------
    Total     104     104      24      24      24       0
   -------------------------------------------------------

 OEINTS: Overlap, kinetic, potential, dipole, and quadrupole integrals
         stored in file 35.

  ==> Integral Setup <==

  ==> DFJK: Density-Fitted J/K Matrices <==

    J tasked:                  Yes
    K tasked:                  Yes
    wK tasked:                  No
    OpenMP threads:              4
    Integrals threads:           4
    Memory (MB):              1430
    Algorithm:                Core
    Integral Cache:           NONE
    Schwarz Cutoff:          1E-12
    Fitting Condition:       1E-12

   => Auxiliary Basis Set <=

  Basis Set: 
    Number of shells: 207
    Number of basis function: 661
    Number of Cartesian functions: 661
    Spherical Harmonics?: false
    Max angular momentum: 3

  Minimum eigenvalue in the overlap matrix is 2.9853491558E-03.
  Using Symmetric Orthogonalization.
  SCF Guess: Core (One-Electron) Hamiltonian.

  ==> Iterations <==

                           Total Energy        Delta E     RMS |[F,P]|

   @DF-RHF iter   1:  -244.98166344199873   -2.44982e+02   8.24095e-02 
   @DF-RHF iter   2:  -142.12068183838366    1.02861e+02   1.05696e-01 DIIS
   @DF-RHF iter   3:  -307.88115318152086   -1.65760e+02   2.95221e-02 DIIS
   @DF-RHF iter   4:  -289.87596237549519    1.80052e+01   5.85466e-02 DIIS
   @DF-RHF iter   5:  -306.88488256107428   -1.70089e+01   3.86139e-02 DIIS
   @DF-RHF iter   6:  -321.07103165916294   -1.41861e+01   1.05157e-02 DIIS
   @DF-RHF iter   7:  -321.63372794713416   -5.62696e-01   3.89555e-03 DIIS
   @DF-RHF iter   8:  -321.70441185694483   -7.06839e-02   2.14806e-03 DIIS
   @DF-RHF iter   9:  -321.73060392864454   -2.61921e-02   5.37940e-04 DIIS
   @DF-RHF iter  10:  -321.73274067440775   -2.13675e-03   2.14357e-04 DIIS
   @DF-RHF iter  11:  -321.73299330154350   -2.52627e-04   7.68153e-05 DIIS
   @DF-RHF iter  12:  -321.73305087676272   -5.75752e-05   2.35503e-05 DIIS
   @DF-RHF iter  13:  -321.73305494168449   -4.06492e-06   6.57578e-06 DIIS
   @DF-RHF iter  14:  -321.73305539574062   -4.54056e-07   2.21583e-06 DIIS
   @DF-RHF iter  15:  -321.73305547049870   -7.47581e-08   1.02534e-06 DIIS
   @DF-RHF iter  16:  -321.73305548859651   -1.80978e-08   3.55311e-07 DIIS
   @DF-RHF iter  17:  -321.73305549069664   -2.10014e-09   1.20042e-07 DIIS
   @DF-RHF iter  18:  -321.73305549091799   -2.21348e-10   2.92643e-08 DIIS
   @DF-RHF iter  19:  -321.73305549092959   -1.15961e-11   6.80319e-09 DIIS

  ==> Post-Iterations <==

    Orbital Energies (a.u.)
    -----------------------

    Doubly Occupied:                                                      

       1A    -20.603998     2A    -20.599362     3A    -15.848944  
       4A    -11.300791     5A    -11.246602     6A    -11.234586  
       7A     -1.632236     8A     -1.418033     9A     -1.133549  
      10A     -1.025539    11A     -0.882564    12A     -0.822517  
      13A     -0.762140    14A     -0.752765    15A     -0.726693  
      16A     -0.654824    17A     -0.604846    18A     -0.579409  
      19A     -0.551206    20A     -0.518334    21A     -0.509792  
      22A     -0.485417    23A     -0.472458    24A     -0.448387  

    Virtual:                                                              

      25A      0.118541    26A      0.207560    27A      0.250569  
      28A      0.272790    29A      0.289613    30A      0.306927  
      31A      0.323031    32A      0.331538    33A      0.347663  
      34A      0.385018    35A      0.416323    36A      0.532211  
      37A      0.598932    38A      0.698788    39A      0.714768  
      40A      0.716721    41A      0.762609    42A      0.766788  
      43A      0.822112    44A      0.889899    45A      0.919721  
      46A      0.921394    47A      0.997181    48A      1.032788  
      49A      1.058673    50A      1.089188    51A      1.110316  
      52A      1.119062    53A      1.137249    54A      1.142247  
      55A      1.161012    56A      1.196055    57A      1.208804  
      58A      1.210037    59A      1.240873    60A      1.254326  
      61A      1.304304    62A      1.336156    63A      1.347534  
      64A      1.406768    65A      1.585426    66A      1.622201  
      67A      1.686973    68A      1.706944    69A      1.767870  
      70A      1.855877    71A      1.909875    72A      2.003546  
      73A      2.091183    74A      2.095939    75A      2.107931  
      76A      2.123515    77A      2.196289    78A      2.212173  
      79A      2.256525    80A      2.257427    81A      2.350442  
      82A      2.374427    83A      2.396427    84A      2.410061  
      85A      2.515605    86A      2.536518    87A      2.667426  
      88A      2.673920    89A      2.689291    90A      2.834171  
      91A      2.860674    92A      2.921618    93A      2.991416  
      94A      3.071235    95A      3.224441    96A      3.284357  
      97A      3.330793    98A      3.508612    99A      4.126736  
     100A      4.215619   101A      4.285199   102A      4.586784  
     103A      4.722861   104A      4.919923  

    Final Occupation by Irrep:
              A 
    DOCC [    24 ]

  Energy converged.

  @DF-RHF Final Energy:  -321.73305549092959

   => Energetics <=

    Nuclear Repulsion Energy =            248.2855282333858042
    One-Electron Energy =                -930.4071825223907126
    Two-Electron Energy =                 360.3885987980754635
    DFT Exchange-Correlation Energy =       0.0000000000000000
    Empirical Dispersion Energy =           0.0000000000000000
    PCM Polarization Energy =               0.0000000000000000
    EFP Energy =                            0.0000000000000000
    Total Energy =                       -321.7330554909294733

    Alert: EFP and PCM quantities not currently incorporated into SCF psivars.

Properties will be evaluated at   0.000000,   0.000000,   0.000000 Bohr
  ==> Properties <==


Properties computed using the SCF density matrix

  Nuclear Dipole Moment: (a.u.)
     X:    11.6595      Y:    -0.3543      Z:     0.6451

  Electronic Dipole Moment: (a.u.)
     X:   -10.0910      Y:     0.2012      Z:    -0.2327

  Dipole Moment: (a.u.)
     X:     1.5685      Y:    -0.1531      Z:     0.4124     Total:     1.6290

  Dipole Moment: (Debye)
     X:     3.9867      Y:    -0.3891      Z:     1.0482     Total:     4.1405


  Saving occupied orbitals to File 180.

*** tstop() called on cx1-3-1-2.cx1.hpc.ic.ac.uk at Fri Sep  2 13:59:33 2016
Module time:
	user time   =      12.12 seconds =       0.20 minutes
	system time =       0.18 seconds =       0.00 minutes
	total time  =          4 seconds =       0.07 minutes
Total time:
	user time   =      12.12 seconds =       0.20 minutes
	system time =       0.18 seconds =       0.00 minutes
	total time  =          4 seconds =       0.07 minutes

*** tstart() called on cx1-3-1-2.cx1.hpc.ic.ac.uk
*** at Fri Sep  2 13:59:33 2016


         ------------------------------------------------------------
                                   SCF GRAD                          
                          Rob Parrish, Justin Turney,                
                       Andy Simmonett, and Alex Sokolov              
         ------------------------------------------------------------

  ==> Geometry <==

    Molecular point group: c1
    Full point group: C1

    Geometry (in Angstrom), charge = 0, multiplicity = 1:

       Center              X                  Y                   Z               Mass       
    ------------   -----------------  -----------------  -----------------  -----------------
           H          3.466348486900     0.164435737183    -0.764042326771     1.007825032070
           C          2.755251486900    -0.049596262817     0.025551673229    12.000000000000
           C          1.325500486900     0.116904737183    -0.487264326771    12.000000000000
           H          2.937138486900    -1.062948262817     0.369656673229     1.007825032070
           H          2.960935486900     0.627311737183     0.849009673229     1.007825032070
           C          0.309229486900    -0.179912262817     0.613599673229    12.000000000000
           H          1.147235486900    -0.555579262817    -1.319979326771     1.007825032070
           H          1.169054486900     1.127935737183    -0.844479326771     1.007825032070
           N         -1.065959513100    -0.014906262817     0.077469673229    14.003074004780
           H          0.375092486900    -1.196452262817     0.965935673229     1.007825032070
           H          0.394241486900     0.516703737183     1.433430673229     1.007825032070
           O         -1.176861513100     0.305982737183    -1.065379326771    15.994914619560
           O         -1.967921513100    -0.184598262817     0.840158673229    15.994914619560

  Nuclear repulsion =  248.285528233385804

  ==> Basis Set <==

  Basis Set: 6-31G*
    Number of shells: 50
    Number of basis function: 104
    Number of Cartesian functions: 104
    Spherical Harmonics?: false
    Max angular momentum: 2

  ==> DFJKGrad: Density-Fitted SCF Gradients <==

    Gradient:                    1
    J tasked:                  Yes
    K tasked:                  Yes
    wK tasked:                  No
    OpenMP threads:              4
    Integrals threads:           4
    Memory (MB):              1430
    Schwarz Cutoff:          0E+00
    Fitting Condition:       1E-12

   => Auxiliary Basis Set <=

  Basis Set: 
    Number of shells: 207
    Number of basis function: 661
    Number of Cartesian functions: 661
    Spherical Harmonics?: false
    Max angular momentum: 3


  -Total Gradient:
     Atom            X                  Y                   Z
    ------   -----------------  -----------------  -----------------
       1       -0.000157153381     0.000035225667    -0.000119914713
       2        0.000509526244    -0.000329584830    -0.000423251656
       3       -0.004025724049     0.003298554841    -0.004438359801
       4       -0.000589676133     0.000194575733    -0.000310053687
       5       -0.000760896247     0.000081393807    -0.000382814994
       6       -0.008518873504    -0.004566142703     0.016233913318
       7       -0.001060330413    -0.002538610349    -0.000922804068
       8       -0.001044724461     0.001699162293     0.000723199306
       9        0.004797653788    -0.005503731020    -0.002200403904
      10        0.001835638528     0.000512991049    -0.004074748396
      11        0.002572230416     0.002590201996    -0.003320575833
      12        0.007619644404     0.002461250578    -0.001642420150
      13       -0.001177315189     0.002064712936     0.000878234579


*** tstop() called on cx1-3-1-2.cx1.hpc.ic.ac.uk at Fri Sep  2 13:59:37 2016
Module time:
	user time   =      13.76 seconds =       0.23 minutes
	system time =       0.19 seconds =       0.00 minutes
	total time  =          4 seconds =       0.07 minutes
Total time:
	user time   =      25.91 seconds =       0.43 minutes
	system time =       0.37 seconds =       0.01 minutes
	total time  =          8 seconds =       0.13 minutes
CURRENT ENERGY: -321.7330554909

			-----------------------------------------
			 OPTKING 2.0: for geometry optimizations 
			  - R.A. King,  Bethel University        
			-----------------------------------------

	Internal coordinates to be generated automatically.
	Detected frag with atoms:  1 2 3 4 5 6 7 8 9 10 11 12 13
	---Fragment 1 Bond Connectivity---
	 1 : 2
	 2 : 1 3 4 5
	 3 : 2 6 7 8
	 4 : 2
	 5 : 2
	 6 : 3 9 10 11
	 7 : 3
	 8 : 3
	 9 : 6 12 13
	 10 : 6
	 11 : 6
	 12 : 9
	 13 : 9

	Assuming in current code that numbering for constraints corresponds to unified fragment.
	Frozen dihedral atom list: 
	    12     9     6     3
	---Fragment 1 Geometry and Gradient---
	 H           6.5504493214        0.3107385097       -1.4438307515
	 C           5.2066707375       -0.0937233539        0.0482856646
	 C           2.5048329092        0.2209179369       -0.9207961319
	 H           5.5503873546       -2.0086811102        0.6985498756
	 H           5.5953571674        1.1854473832        1.6043957666
	 C           0.5843590425       -0.3399849047        1.1595353376
	 H           2.1679608802       -1.0498926518       -2.4943994287
	 H           2.2091928147        2.1314896388       -1.5958346525
	 N          -2.0143715485       -0.0281687544        0.1463964660
	 H           0.7088220747       -2.2609671078        1.8253538844
	 H           0.7450084405        0.9764285551        2.7087914029
	 O          -2.2239459561        0.5782235747       -2.0132751552
	 O          -3.7188327108       -0.3488401613        1.5876698006
	            -0.0001571534        0.0000352257       -0.0001199147
	             0.0005095262       -0.0003295848       -0.0004232517
	            -0.0040257240        0.0032985548       -0.0044383598
	            -0.0005896761        0.0001945757       -0.0003100537
	            -0.0007608962        0.0000813938       -0.0003828150
	            -0.0085188735       -0.0045661427        0.0162339133
	            -0.0010603304       -0.0025386103       -0.0009228041
	            -0.0010447245        0.0016991623        0.0007231993
	             0.0047976538       -0.0055037310       -0.0022004039
	             0.0018356385        0.0005129910       -0.0040747484
	             0.0025722304        0.0025902020       -0.0033205758
	             0.0076196444        0.0024612506       -0.0016424202
	            -0.0011773152        0.0020647129        0.0008782346

	Previous optimization step data not found.  Starting new optimization.

	---Fragment 1 Intrafragment Coordinates---
	 - Coordinate -           - BOHR/RAD -       - ANG/DEG -
	 R(1,2)           =         2.048351	       1.083941
	 R(2,3)           =         2.887568	       1.528035
	 R(2,4)           =         2.051353	       1.085529
	 R(2,5)           =         2.051544	       1.085631
	 R(3,6)           =         2.886280	       1.527354
	 R(3,7)           =         2.050529	       1.085093
	 R(3,8)           =         2.047771	       1.083634
	 R(6,9)           =         2.806614	       1.485196
	 R(6,10)          =         2.036904	       1.077883
	 R(6,11)          =         2.039350	       1.079177
	 R(9,12)          =         2.252957	       1.192214
	 R(9,13)          =         2.255058	       1.193325
	 B(1,2,3)         =         1.926070	     110.355683
	 B(1,2,4)         =         1.881070	     107.777376
	 B(1,2,5)         =         1.880864	     107.765565
	 B(2,3,6)         =         1.938544	     111.070403
	 B(2,3,7)         =         1.921689	     110.104649
	 B(2,3,8)         =         1.925572	     110.327144
	 B(3,2,4)         =         1.944303	     111.400336
	 B(3,2,5)         =         1.943239	     111.339406
	 B(3,6,9)         =         1.911682	     109.531299
	 B(3,6,10)        =         1.958668	     112.223426
	 B(3,6,11)        =         1.949475	     111.696693
	 B(4,2,5)         =         1.885855	     108.051507
	 B(6,3,7)         =         1.900090	     108.867138
	 B(6,3,8)         =         1.899535	     108.835315
	 B(6,9,12)        =         2.051125	     117.520823
	 B(6,9,13)        =         2.041307	     116.958291
	 B(7,3,8)         =         1.877096	     107.549673
	 B(9,6,10)        =         1.853917	     106.221592
	 B(9,6,11)        =         1.849860	     105.989178
	 B(10,6,11)       =         1.934388	     110.832295
	 B(12,9,13)       =         2.190298	     125.494859
	 D(1,2,3,6)       =        -3.140764	    -179.952498
	 D(1,2,3,7)       =         1.036374	      59.379857
	 D(1,2,3,8)       =        -1.032824	     -59.176455
	 D(2,3,6,9)       =        -3.136582	    -179.712893
	 D(2,3,6,10)      =        -1.082007	     -61.994441
	 D(2,3,6,11)      =         1.102648	      63.177084
	*D(3,6,9,12)      =        -0.000000	      -0.000000
	 D(3,6,9,13)      =        -3.111004	    -178.247391
	 D(4,2,3,6)       =         1.053590	      60.366287
	 D(4,2,3,7)       =        -1.052457	     -60.301357
	 D(4,2,3,8)       =        -3.121655	    -178.857669
	 D(5,2,3,6)       =        -1.052882	     -60.325693
	 D(5,2,3,7)       =         3.124256	     179.006662
	 D(5,2,3,8)       =         1.055058	      60.450351
	 D(7,3,6,9)       =        -1.017830	     -58.317380
	 D(7,3,6,10)      =         1.036744	      59.401072
	 D(7,3,6,11)      =        -3.061786	    -175.427402
	 D(8,3,6,9)       =         1.023379	      58.635279
	 D(8,3,6,10)      =         3.077953	     176.353731
	 D(8,3,6,11)      =        -1.020577	     -58.474744
	 D(10,6,9,12)     =        -2.119000	    -121.409760
	 D(10,6,9,13)     =         1.053181	      60.342852
	 D(11,6,9,12)     =         2.105628	     120.643581
	 D(11,6,9,13)     =        -1.005376	     -57.603806

	Current energy   :      -321.7330554909

	Generating empirical Hessian (Schlegel '84) for each fragment.
	Taking RFO optimization step.
	Going to follow RFO solution 1.
	Using RFO vector 1.
	Norm of target step-size    0.41479
	Projected energy change by RFO approximation:        -0.0030948597

	Back-transformation to cartesian coordinates...
	Successfully converged to displaced geometry.

	Back-transformation to cartesian coordinates to adjust frozen coordinates...
	Successfully converged to displaced geometry.

	--- Internal Coordinate Step in ANG or DEG, aJ/ANG or AJ/DEG ---
	 ---------------------------------------------------------------------------
	   Coordinate                Previous        Force       Change         New 
	   ----------                --------       ------       ------       ------
	    1 R(1,2)          =      1.083941     0.000072     0.000013     1.083954
	    2 R(2,3)          =      1.528035     0.011096     0.002352     1.530387
	    3 R(2,4)          =      1.085529     0.003120     0.000556     1.086085
	    4 R(2,5)          =      1.085631     0.003162     0.000564     1.086194
	    5 R(3,6)          =      1.527354     0.000292     0.000062     1.527415
	    6 R(3,7)          =      1.085093    -0.020232    -0.003601     1.081492
	    7 R(3,8)          =      1.083634    -0.012340    -0.002186     1.081448
	    8 R(6,9)          =      1.485196     0.077822     0.014414     1.499610
	    9 R(6,10)         =      1.077883     0.014035     0.002440     1.080323
	   10 R(6,11)         =      1.079177     0.005338     0.000932     1.080109
	   11 R(9,12)         =      1.192214    -0.012589    -0.000738     1.191475
	   12 R(9,13)         =      1.193325    -0.009537    -0.000562     1.192763
	   13 B(1,2,3)        =    110.355683    -0.000002    -0.027267   110.328416
	   14 B(1,2,4)        =    107.777376    -0.000028    -0.158058   107.619317
	   15 B(1,2,5)        =    107.765565    -0.000035    -0.161209   107.604357
	   16 B(2,3,6)        =    111.070403    -0.000154    -0.415050   110.655352
	   17 B(2,3,7)        =    110.104649     0.000023    -0.027615   110.077034
	   18 B(2,3,8)        =    110.327144     0.000002    -0.262009   110.065134
	   19 B(3,2,4)        =    111.400336     0.000045     0.205306   111.605642
	   20 B(3,2,5)        =    111.339406     0.000070     0.332638   111.672044
	   21 B(3,6,9)        =    109.531299     0.001821     6.803334   116.334634
	   22 B(3,6,10)       =    112.223426    -0.000306    -0.671735   111.551691
	   23 B(3,6,11)       =    111.696693    -0.000157     0.810832   112.507525
	   24 B(4,2,5)        =    108.051507    -0.000057    -0.223087   107.828420
	   25 B(6,3,7)        =    108.867138     0.000100     0.667331   109.534468
	   26 B(6,3,8)        =    108.835315     0.000104     0.579486   109.414801
	   27 B(6,9,12)       =    117.520823     0.000921     2.381276   119.902100
	   28 B(6,9,13)       =    116.958291    -0.000504    -1.794597   115.163693
	   29 B(7,3,8)        =    107.549673    -0.000069    -0.529765   107.019908
	   30 B(9,6,10)       =    106.221592    -0.000679    -2.307595   103.913996
	   31 B(9,6,11)       =    105.989178    -0.000710    -2.080522   103.908656
	   32 B(10,6,11)      =    110.832295     0.000029    -2.983976   107.848319
	   33 B(12,9,13)      =    125.494859    -0.000412    -1.534432   123.960427
	   34 D(1,2,3,6)      =   -179.952498     0.000000     0.076362  -179.876136
	   35 D(1,2,3,7)      =     59.379857    -0.000009    -0.470763    58.909094
	   36 D(1,2,3,8)      =    -59.176455     0.000007     0.357248   -58.819207
	   37 D(2,3,6,9)      =   -179.712893    -0.000000     0.178743  -179.534150
	   38 D(2,3,6,10)     =    -61.994441     0.000034     1.405601   -60.588840
	   39 D(2,3,6,11)     =     63.177084    -0.000040    -2.409279    60.767805
	   40 *D(3,6,9,12)    =      0.000000     0.000000     0.000000     0.000000
	   41 D(3,6,9,13)     =   -178.247391    -0.000038   -12.598951  -190.846342
	   42 D(4,2,3,6)      =     60.366287     0.000002     0.159467    60.525754
	   43 D(4,2,3,7)      =    -60.301357    -0.000007    -0.387657   -60.689015
	   44 D(4,2,3,8)      =   -178.857669     0.000009     0.440353  -178.417317
	   45 D(5,2,3,6)      =    -60.325693     0.000000     0.072115   -60.253577
	   46 D(5,2,3,7)      =    179.006662    -0.000009    -0.475009   178.531654
	   47 D(5,2,3,8)      =     60.450351     0.000007     0.353001    60.803352
	   48 D(7,3,6,9)      =    -58.317380    -0.000001     0.318427   -57.998953
	   49 D(7,3,6,10)     =     59.401072     0.000033     1.545285    60.946357
	   50 D(7,3,6,11)     =   -175.427402    -0.000041    -2.269596  -177.696998
	   51 D(8,3,6,9)      =     58.635279     0.000006     0.389054    59.024333
	   52 D(8,3,6,10)     =    176.353731     0.000040     1.615912   177.969643
	   53 D(8,3,6,11)     =    -58.474744    -0.000034    -2.198968   -60.673712
	   54 D(10,6,9,12)    =   -121.409760    -0.000056    -1.608162  -123.017923
	   55 D(10,6,9,13)    =     60.342852    -0.000094   -14.206537    46.136315
	   56 D(11,6,9,12)    =    120.643581     0.000089     3.592354   124.235936
	   57 D(11,6,9,13)    =    -57.603806     0.000052    -9.006020   -66.609826
	 ---------------------------------------------------------------------------

  ==> Convergence Check <==

  Measures of convergence in internal coordinates in au.
  Criteria marked as inactive (o), active & met (*), and active & unmet ( ).
  --------------------------------------------------------------------------------------------- ~
   Step     Total Energy     Delta E     MAX Force     RMS Force      MAX Disp      RMS Disp    ~
  --------------------------------------------------------------------------------------------- ~
    Convergence Criteria    1.00e-06 *    3.00e-04 *             o    1.20e-03 *             o  ~
  --------------------------------------------------------------------------------------------- ~
      1    -321.73305549   -3.22e+02      2.39e-02      4.60e-03 o    2.48e-01      5.48e-02 o  ~
  ---------------------------------------------------------------------------------------------

	Writing optimization data to binary file.
	Structure for next step:
	Cartesian Geometry (in Angstrom)
	    H     3.5185002345   0.1145445891  -0.7133261249
	    C     2.7703549842  -0.0675024714   0.0496240042
	    C     1.3658914568   0.1319272731  -0.5246532947
	    H     2.9129628188  -1.0803446706   0.4148570247
	    H     2.9677252593   0.6135912297   0.8724086098
	    C     0.3054807114  -0.1198578115   0.5454545039
	    H     1.2063041770  -0.5398740204  -1.3570232433
	    H     1.2602808957   1.1385479941  -0.9055599269
	    N    -1.1230597063   0.0306086374   0.1148001851
	    H     0.3572268866  -1.1297846893   0.9255442278
	    H     0.3962095298   0.5545900520   1.3842183218
	    O    -1.3758005929   0.3314911944  -1.0100131541
	    O    -1.9327903607  -0.3626557526   0.8973366716
			--------------------------
			 OPTKING Finished Execution 
			--------------------------

    Structure for next step:
    Molecular point group: c1
    Full point group: C1

    Geometry (in Angstrom), charge = 0, multiplicity = 1:

    H            3.548014900818     0.126519707894    -0.727659811838
    C            2.799869707606    -0.055527338711     0.035290258980
    C            1.395406287514     0.143902390511    -0.538986996098
    H            2.942477531332    -1.068369460529     0.400523251611
    H            2.997239967643     0.625566310415     0.858074801777
    C            0.334995623056    -0.107882674821     0.531120720863
    H            1.235819019906    -0.527898851671    -1.371356881092
    H            1.289795734442     1.150523034694    -0.919893599127
    N           -1.093544685587     0.042583762569     0.100466434888
    H            0.386741794331    -1.117809475467     0.911210415731
    H            0.425724434522     0.566565137147     1.369884474664
    O           -1.346285552882     0.343466296559    -1.024346818376
    O           -1.903275278083    -0.350680597425     0.883002861616

gradient() will perform analytic gradient computation.

*** tstart() called on cx1-3-1-2.cx1.hpc.ic.ac.uk
*** at Fri Sep  2 13:59:38 2016


         ---------------------------------------------------------
                                   SCF
            by Justin Turney, Rob Parrish, and Andy Simmonett
                              RHF Reference
                        4 Threads,   2000 MiB Core
         ---------------------------------------------------------

  ==> Geometry <==

    Molecular point group: c1
    Full point group: C1

    Geometry (in Angstrom), charge = 0, multiplicity = 1:

       Center              X                  Y                   Z               Mass       
    ------------   -----------------  -----------------  -----------------  -----------------
           H          3.548014900818     0.126519707894    -0.727659811838     1.007825032070
           C          2.799869707606    -0.055527338711     0.035290258980    12.000000000000
           C          1.395406287514     0.143902390511    -0.538986996098    12.000000000000
           H          2.942477531332    -1.068369460529     0.400523251611     1.007825032070
           H          2.997239967643     0.625566310415     0.858074801777     1.007825032070
           C          0.334995623056    -0.107882674821     0.531120720863    12.000000000000
           H          1.235819019906    -0.527898851671    -1.371356881092     1.007825032070
           H          1.289795734442     1.150523034694    -0.919893599127     1.007825032070
           N         -1.093544685587     0.042583762569     0.100466434888    14.003074004780
           H          0.386741794331    -1.117809475467     0.911210415731     1.007825032070
           H          0.425724434522     0.566565137147     1.369884474664     1.007825032070
           O         -1.346285552882     0.343466296559    -1.024346818376    15.994914619560
           O         -1.903275278083    -0.350680597425     0.883002861616    15.994914619560

  Running in c1 symmetry.

  Rotational constants: A =      0.32770  B =      0.06431  C =      0.05547 [cm^-1]
  Rotational constants: A =   9824.10428  B =   1928.03161  C =   1662.94896 [MHz]
  Nuclear repulsion =  245.908401621885218

  Charge       = 0
  Multiplicity = 1
  Electrons    = 48
  Nalpha       = 24
  Nbeta        = 24

  ==> Algorithm <==

  SCF Algorithm Type is DF.
  DIIS enabled.
  MOM disabled.
  Fractional occupation disabled.
  Guess Type is READ.
  Energy threshold   = 1.00e-08
  Density threshold  = 1.00e-08
  Integral threshold = 0.00e+00

  ==> Primary Basis <==

  Basis Set: 6-31G*
    Number of shells: 50
    Number of basis function: 104
    Number of Cartesian functions: 104
    Spherical Harmonics?: false
    Max angular momentum: 2

  ==> Pre-Iterations <==

   -------------------------------------------------------
    Irrep   Nso     Nmo     Nalpha   Nbeta   Ndocc  Nsocc
   -------------------------------------------------------
     A        104     104       0       0       0       0
   -------------------------------------------------------
    Total     104     104      24      24      24       0
   -------------------------------------------------------

 OEINTS: Overlap, kinetic, potential, dipole, and quadrupole integrals
         stored in file 35.

  ==> Integral Setup <==

  ==> DFJK: Density-Fitted J/K Matrices <==

    J tasked:                  Yes
    K tasked:                  Yes
    wK tasked:                  No
    OpenMP threads:              4
    Integrals threads:           4
    Memory (MB):              1430
    Algorithm:                Core
    Integral Cache:           NONE
    Schwarz Cutoff:          1E-12
    Fitting Condition:       1E-12

   => Auxiliary Basis Set <=

  Basis Set: 
    Number of shells: 207
    Number of basis function: 661
    Number of Cartesian functions: 661
    Spherical Harmonics?: false
    Max angular momentum: 3

  Minimum eigenvalue in the overlap matrix is 3.1187374397E-03.
  Using Symmetric Orthogonalization.
  SCF Guess: Reading in previously saved MOs, projecting if necessary.

  Using orbitals from previous SCF, no projection.
  Recomputing DOCC and SOCC from number of alpha and beta electrons from previous calculation.
              A 
    DOCC [    24 ]

  ==> Iterations <==

                           Total Energy        Delta E     RMS |[F,P]|

   @DF-RHF iter   0:  -321.66685961838095   -3.21667e+02   5.20745e-03 
   @DF-RHF iter   1:  -321.72553615834295   -5.86765e-02   7.92332e-04 
   @DF-RHF iter   2:  -321.73031229856144   -4.77614e-03   4.00282e-04 DIIS
   @DF-RHF iter   3:  -321.73119088627141   -8.78588e-04   1.93929e-04 DIIS
   @DF-RHF iter   4:  -321.73151204190856   -3.21156e-04   6.09726e-05 DIIS
   @DF-RHF iter   5:  -321.73155938637819   -4.73445e-05   2.79627e-05 DIIS
   @DF-RHF iter   6:  -321.73158338961377   -2.40032e-05   1.43675e-05 DIIS
   @DF-RHF iter   7:  -321.73158881107929   -5.42147e-06   6.36156e-06 DIIS
   @DF-RHF iter   8:  -321.73158980629921   -9.95220e-07   1.91691e-06 DIIS
   @DF-RHF iter   9:  -321.73158987235411   -6.60549e-08   6.50126e-07 DIIS
   @DF-RHF iter  10:  -321.73158987899808   -6.64397e-09   1.77298e-07 DIIS
   @DF-RHF iter  11:  -321.73158987969134   -6.93262e-10   6.06110e-08 DIIS
   @DF-RHF iter  12:  -321.73158987979662   -1.05274e-10   2.94984e-08 DIIS
   @DF-RHF iter  13:  -321.73158987982663   -3.00133e-11   1.28559e-08 DIIS
   @DF-RHF iter  14:  -321.73158987983254   -5.91172e-12   4.23076e-09 DIIS

  ==> Post-Iterations <==

    Orbital Energies (a.u.)
    -----------------------

    Doubly Occupied:                                                      

       1A    -20.603454     2A    -20.596426     3A    -15.848297  
       4A    -11.303061     5A    -11.252304     6A    -11.239267  
       7A     -1.631625     8A     -1.413771     9A     -1.130158  
      10A     -1.028041    11A     -0.885875    12A     -0.825996  
      13A     -0.757508    14A     -0.748817    15A     -0.723937  
      16A     -0.657203    17A     -0.606882    18A     -0.577020  
      19A     -0.555285    20A     -0.522940    21A     -0.511371  
      22A     -0.483611    23A     -0.473046    24A     -0.446678  

    Virtual:                                                              

      25A      0.117604    26A      0.207899    27A      0.248530  
      28A      0.269746    29A      0.285535    30A      0.303288  
      31A      0.321002    32A      0.327832    33A      0.353777  
      34A      0.373123    35A      0.409744    36A      0.540115  
      37A      0.593516    38A      0.704748    39A      0.709252  
      40A      0.714097    41A      0.758612    42A      0.761395  
      43A      0.824442    44A      0.889216    45A      0.904826  
      46A      0.915928    47A      0.984871    48A      1.041738  
      49A      1.053833    50A      1.090866    51A      1.115421  
      52A      1.116720    53A      1.138064    54A      1.140110  
      55A      1.156804    56A      1.190164    57A      1.200409  
      58A      1.206104    59A      1.237968    60A      1.258937  
      61A      1.304323    62A      1.323921    63A      1.365390  
      64A      1.384414    65A      1.576093    66A      1.609573  
      67A      1.678777    68A      1.713607    69A      1.747193  
      70A      1.828374    71A      1.862734    72A      1.991160  
      73A      2.076992    74A      2.098798    75A      2.106524  
      76A      2.126084    77A      2.171970    78A      2.215096  
      79A      2.241859    80A      2.254573    81A      2.300069  
      82A      2.359325    83A      2.403309    84A      2.430510  
      85A      2.511676    86A      2.552344    87A      2.662692  
      88A      2.671100    89A      2.698777    90A      2.815914  
      91A      2.872175    92A      2.922570    93A      2.971943  
      94A      3.061380    95A      3.219305    96A      3.277275  
      97A      3.314469    98A      3.492320    99A      4.094177  
     100A      4.210844   101A      4.255569   102A      4.581375  
     103A      4.717498   104A      4.905863  

    Final Occupation by Irrep:
              A 
    DOCC [    24 ]

  Energy converged.

  @DF-RHF Final Energy:  -321.73158987983254

   => Energetics <=

    Nuclear Repulsion Energy =            245.9084016218852184
    One-Electron Energy =                -925.6348395779125440
    Two-Electron Energy =                 357.9948480761949554
    DFT Exchange-Correlation Energy =       0.0000000000000000
    Empirical Dispersion Energy =           0.0000000000000000
    PCM Polarization Energy =               0.0000000000000000
    EFP Energy =                            0.0000000000000000
    Total Energy =                       -321.7315898798323701

    Alert: EFP and PCM quantities not currently incorporated into SCF psivars.

Properties will be evaluated at   0.000000,   0.000000,   0.000000 Bohr
  ==> Properties <==


Properties computed using the SCF density matrix

  Nuclear Dipole Moment: (a.u.)
     X:    12.0114      Y:    -0.2297      Z:     0.4872

  Electronic Dipole Moment: (a.u.)
     X:   -10.3174      Y:     0.2250      Z:    -0.1473

  Dipole Moment: (a.u.)
     X:     1.6939      Y:    -0.0048      Z:     0.3399     Total:     1.7277

  Dipole Moment: (Debye)
     X:     4.3056      Y:    -0.0122      Z:     0.8639     Total:     4.3914


  Saving occupied orbitals to File 180.

*** tstop() called on cx1-3-1-2.cx1.hpc.ic.ac.uk at Fri Sep  2 13:59:42 2016
Module time:
	user time   =      13.40 seconds =       0.22 minutes
	system time =       0.22 seconds =       0.00 minutes
	total time  =          4 seconds =       0.07 minutes
Total time:
	user time   =      40.32 seconds =       0.67 minutes
	system time =       0.65 seconds =       0.01 minutes
	total time  =         13 seconds =       0.22 minutes

*** tstart() called on cx1-3-1-2.cx1.hpc.ic.ac.uk
*** at Fri Sep  2 13:59:42 2016


         ------------------------------------------------------------
                                   SCF GRAD                          
                          Rob Parrish, Justin Turney,                
                       Andy Simmonett, and Alex Sokolov              
         ------------------------------------------------------------

  ==> Geometry <==

    Molecular point group: c1
    Full point group: C1

    Geometry (in Angstrom), charge = 0, multiplicity = 1:

       Center              X                  Y                   Z               Mass       
    ------------   -----------------  -----------------  -----------------  -----------------
           H          3.548014900818     0.126519707894    -0.727659811838     1.007825032070
           C          2.799869707606    -0.055527338711     0.035290258980    12.000000000000
           C          1.395406287514     0.143902390511    -0.538986996098    12.000000000000
           H          2.942477531332    -1.068369460529     0.400523251611     1.007825032070
           H          2.997239967643     0.625566310415     0.858074801777     1.007825032070
           C          0.334995623056    -0.107882674821     0.531120720863    12.000000000000
           H          1.235819019906    -0.527898851671    -1.371356881092     1.007825032070
           H          1.289795734442     1.150523034694    -0.919893599127     1.007825032070
           N         -1.093544685587     0.042583762569     0.100466434888    14.003074004780
           H          0.386741794331    -1.117809475467     0.911210415731     1.007825032070
           H          0.425724434522     0.566565137147     1.369884474664     1.007825032070
           O         -1.346285552882     0.343466296559    -1.024346818376    15.994914619560
           O         -1.903275278083    -0.350680597425     0.883002861616    15.994914619560

  Nuclear repulsion =  245.908401621885218

  ==> Basis Set <==

  Basis Set: 6-31G*
    Number of shells: 50
    Number of basis function: 104
    Number of Cartesian functions: 104
    Spherical Harmonics?: false
    Max angular momentum: 2

  ==> DFJKGrad: Density-Fitted SCF Gradients <==

    Gradient:                    1
    J tasked:                  Yes
    K tasked:                  Yes
    wK tasked:                  No
    OpenMP threads:              4
    Integrals threads:           4
    Memory (MB):              1430
    Schwarz Cutoff:          0E+00
    Fitting Condition:       1E-12

   => Auxiliary Basis Set <=

  Basis Set: 
    Number of shells: 207
    Number of basis function: 661
    Number of Cartesian functions: 661
    Spherical Harmonics?: false
    Max angular momentum: 3


  -Total Gradient:
     Atom            X                  Y                   Z
    ------   -----------------  -----------------  -----------------
       1        0.000451581427    -0.000025223185     0.000298012184
       2        0.000618208389     0.000330821646    -0.001424853818
       3        0.007272675062    -0.002379999833    -0.001413603086
       4        0.000202384260    -0.000096711046     0.000069942224
       5        0.000338822526     0.000063990266     0.000212264347
       6       -0.003148379558    -0.007246810915    -0.002962362548
       7        0.000696365226     0.000748044361     0.000982601214
       8        0.000100884089    -0.001225027866     0.001122949528
       9       -0.000058047206     0.035917459699     0.016081388792
      10        0.002075048092    -0.000573529192    -0.000221458740
      11       -0.002157508732    -0.000327085979    -0.001432639545
      12       -0.006991871231    -0.013716598204    -0.001454866446
      13        0.000599837662    -0.011469329752    -0.009857374107


*** tstop() called on cx1-3-1-2.cx1.hpc.ic.ac.uk at Fri Sep  2 13:59:46 2016
Module time:
	user time   =      13.50 seconds =       0.23 minutes
	system time =       0.22 seconds =       0.00 minutes
	total time  =          4 seconds =       0.07 minutes
Total time:
	user time   =      53.84 seconds =       0.90 minutes
	system time =       0.87 seconds =       0.01 minutes
	total time  =         17 seconds =       0.28 minutes
CURRENT ENERGY: -321.7315898798

			-----------------------------------------
			 OPTKING 2.0: for geometry optimizations 
			  - R.A. King,  Bethel University        
			-----------------------------------------

	Previous internal coordinate definitions found.
	---Fragment 1 Geometry and Gradient---
	 H           6.7047764779        0.2390875983       -1.3750777623
	 C           5.2909869551       -0.1049314631        0.0666889246
	 C           2.6369357275        0.2719361079       -1.0185378118
	 H           5.5604766864       -2.0189256891        0.7568792554
	 H           5.6639626934        1.1821490046        1.6215263769
	 C           0.6330499833       -0.2038687099        1.0036727059
	 H           2.3353594974       -0.9975842555       -2.5914889357
	 H           2.4373607055        2.1741734451       -1.7383469737
	 N          -2.0664999698        0.0804716490        0.1898540475
	 H           0.7308360754       -2.1123537774        1.7219381352
	 H           0.8045025893        1.0706529456        2.5887064908
	 O          -2.5441109916        0.6490572364       -1.9357349518
	 O          -3.5966690311       -0.6626902892        1.6686335830
	             0.0004515814       -0.0000252232        0.0002980122
	             0.0006182084        0.0003308216       -0.0014248538
	             0.0072726751       -0.0023799998       -0.0014136031
	             0.0002023843       -0.0000967110        0.0000699422
	             0.0003388225        0.0000639903        0.0002122643
	            -0.0031483796       -0.0072468109       -0.0029623625
	             0.0006963652        0.0007480444        0.0009826012
	             0.0001008841       -0.0012250279        0.0011229495
	            -0.0000580472        0.0359174597        0.0160813888
	             0.0020750481       -0.0005735292       -0.0002214587
	            -0.0021575087       -0.0003270860       -0.0014326395
	            -0.0069918712       -0.0137165982       -0.0014548664
	             0.0005998377       -0.0114693298       -0.0098573741

	---Fragment 1 Intrafragment Coordinates---
	 - Coordinate -           - BOHR/RAD -       - ANG/DEG -
	 R(1,2)           =         2.048375	       1.083954
	 R(2,3)           =         2.892012	       1.530387
	 R(2,4)           =         2.052404	       1.086085
	 R(2,5)           =         2.052610	       1.086194
	 R(3,6)           =         2.886396	       1.527415
	 R(3,7)           =         2.043723	       1.081492
	 R(3,8)           =         2.043639	       1.081448
	 R(6,9)           =         2.833853	       1.499610
	 R(6,10)          =         2.041515	       1.080323
	 R(6,11)          =         2.041111	       1.080109
	 R(9,12)          =         2.251562	       1.191475
	 R(9,13)          =         2.253996	       1.192763
	 B(1,2,3)         =         1.925594	     110.328416
	 B(1,2,4)         =         1.878311	     107.619317
	 B(1,2,5)         =         1.878050	     107.604357
	 B(2,3,6)         =         1.931300	     110.655352
	 B(2,3,7)         =         1.921207	     110.077034
	 B(2,3,8)         =         1.920999	     110.065134
	 B(3,2,4)         =         1.947886	     111.605642
	 B(3,2,5)         =         1.949045	     111.672044
	 B(3,6,9)         =         2.030422	     116.334634
	 B(3,6,10)        =         1.946944	     111.551691
	 B(3,6,11)        =         1.963627	     112.507525
	 B(4,2,5)         =         1.881961	     107.828420
	 B(6,3,7)         =         1.911737	     109.534468
	 B(6,3,8)         =         1.909649	     109.414801
	 B(6,9,12)        =         2.092686	     119.902100
	 B(6,9,13)        =         2.009986	     115.163693
	 B(7,3,8)         =         1.867850	     107.019908
	 B(9,6,10)        =         1.813641	     103.913996
	 B(9,6,11)        =         1.813548	     103.908656
	 B(10,6,11)       =         1.882308	     107.848319
	 B(12,9,13)       =         2.163518	     123.960427
	 D(1,2,3,6)       =        -3.139431	    -179.876136
	 D(1,2,3,7)       =         1.028158	      58.909094
	 D(1,2,3,8)       =        -1.026589	     -58.819207
	 D(2,3,6,9)       =        -3.133462	    -179.534150
	 D(2,3,6,10)      =        -1.057475	     -60.588840
	 D(2,3,6,11)      =         1.060598	      60.767805
	*D(3,6,9,12)      =        -0.000000	      -0.000000
	 D(3,6,9,13)      =         2.952288	     169.153658
	 D(4,2,3,6)       =         1.056374	      60.525754
	 D(4,2,3,7)       =        -1.059223	     -60.689015
	 D(4,2,3,8)       =        -3.113970	    -178.417317
	 D(5,2,3,6)       =        -1.051623	     -60.253577
	 D(5,2,3,7)       =         3.115965	     178.531654
	 D(5,2,3,8)       =         1.061219	      60.803352
	 D(7,3,6,9)       =        -1.012273	     -57.998953
	 D(7,3,6,10)      =         1.063715	      60.946357
	 D(7,3,6,11)      =        -3.101398	    -177.696998
	 D(8,3,6,9)       =         1.030169	      59.024333
	 D(8,3,6,10)      =         3.106156	     177.969643
	 D(8,3,6,11)      =        -1.058956	     -60.673712
	 D(10,6,9,12)     =        -2.147068	    -123.017923
	 D(10,6,9,13)     =         0.805231	      46.136315
	 D(11,6,9,12)     =         2.168326	     124.235936
	 D(11,6,9,13)     =        -1.162561	     -66.609826

	Current energy   :      -321.7315898798

	Energy change for the previous step:
		Projected    :        -0.0030948597
		Actual       :         0.0014656111

	Performing BFGS update.
	Previous computed or guess Hessian on step 1.
	Steps to be used in Hessian update: 1
	Taking RFO optimization step.
	Going to follow RFO solution 1.
	Using RFO vector 1.

	Determining step-restricting scale parameter for RS-RFO.
	Maximum step size allowed    0.50000

	 Iter      |step|        alpha        rfo_root  
	------------------------------------------------
	    0     0.81318       1.00000           1
	    1     0.60580       1.71025           1
	    2     0.52017       2.24921           1
	    3     0.50102       2.40549           1
	    4     0.50000       2.41425           1
	------------------------------------------------
	Norm of target step-size    0.50000
	Projected energy change by RFO approximation:        -0.0085264602

	Back-transformation to cartesian coordinates...
	Successfully converged to displaced geometry.

	Back-transformation to cartesian coordinates to adjust frozen coordinates...
	Successfully converged to displaced geometry.

	--- Internal Coordinate Step in ANG or DEG, aJ/ANG or AJ/DEG ---
	 ---------------------------------------------------------------------------
	   Coordinate                Previous        Force       Change         New 
	   ----------                --------       ------       ------       ------
	    1 R(1,2)          =      1.083954    -0.000805    -0.000075     1.083879
	    2 R(2,3)          =      1.530387    -0.009276     0.000667     1.531054
	    3 R(2,4)          =      1.086085    -0.001156     0.000314     1.086399
	    4 R(2,5)          =      1.086194    -0.002163     0.000213     1.086407
	    5 R(3,6)          =      1.527415    -0.052744    -0.006556     1.520859
	    6 R(3,7)          =      1.081492     0.010905    -0.001669     1.079823
	    7 R(3,8)          =      1.081448     0.012734    -0.000372     1.081076
	    8 R(6,9)          =      1.499610    -0.048209     0.005978     1.505588
	    9 R(6,10)         =      1.080323    -0.004594     0.001440     1.081763
	   10 R(6,11)         =      1.080109     0.012342     0.002015     1.082125
	   11 R(9,12)         =      1.191475     0.005003    -0.000417     1.191058
	   12 R(9,13)         =      1.192763     0.025481     0.000460     1.193223
	   13 B(1,2,3)        =    110.328416    -0.000049    -0.151254   110.177162
	   14 B(1,2,4)        =    107.619317     0.000027    -0.048264   107.571053
	   15 B(1,2,5)        =    107.604357     0.000035    -0.034619   107.569738
	   16 B(2,3,6)        =    110.655352    -0.000186    -0.704888   109.950464
	   17 B(2,3,7)        =    110.077034     0.000081     0.138020   110.215054
	   18 B(2,3,8)        =    110.065134     0.000051    -0.023030   110.042104
	   19 B(3,2,4)        =    111.605642    -0.000005     0.141670   111.747312
	   20 B(3,2,5)        =    111.672044    -0.000020     0.196267   111.868311
	   21 B(3,6,9)        =    116.334634    -0.000961     3.042539   119.377172
	   22 B(3,6,10)       =    111.551691     0.000599     1.885179   113.436870
	   23 B(3,6,11)       =    112.507525    -0.000117    -0.932971   111.574554
	   24 B(4,2,5)        =    107.828420     0.000018    -0.117332   107.711088
	   25 B(6,3,7)        =    109.534468     0.000021     0.383003   109.917471
	   26 B(6,3,8)        =    109.414801     0.000084     0.640387   110.055188
	   27 B(6,9,12)       =    119.902100    -0.000590     1.189810   121.091910
	   28 B(6,9,13)       =    115.163693     0.000139    -0.777334   114.386360
	   29 B(7,3,8)        =    107.019908    -0.000044    -0.411785   106.608123
	   30 B(9,6,10)       =    103.913996     0.000166    -1.459876   102.454120
	   31 B(9,6,11)       =    103.908656     0.000493    -1.312654   102.596001
	   32 B(10,6,11)      =    107.848319    -0.000142    -1.850706   105.997612
	   33 B(12,9,13)      =    123.960427     0.000610     0.233434   124.193861
	   34 D(1,2,3,6)      =   -179.876136    -0.000005    -0.114079  -179.990215
	   35 D(1,2,3,7)      =     58.909094     0.000005    -0.222710    58.686384
	   36 D(1,2,3,8)      =    -58.819207    -0.000001     0.211973   -58.607234
	   37 D(2,3,6,9)      =   -179.534150    -0.000012    -0.812481  -180.346631
	   38 D(2,3,6,10)     =    -60.588840    -0.000013     1.157741   -59.431098
	   39 D(2,3,6,11)     =     60.767805     0.000025    -0.567247    60.200558
	   40 *D(3,6,9,12)    =      0.000000    -0.000000     0.000000     0.000000
	   41 D(3,6,9,13)     =    169.153658     0.000217    17.156104   186.309762
	   42 D(4,2,3,6)      =     60.525754    -0.000004    -0.044674    60.481080
	   43 D(4,2,3,7)      =    -60.689015     0.000005    -0.153305   -60.842320
	   44 D(4,2,3,8)      =   -178.417317    -0.000000     0.281378  -178.135938
	   45 D(5,2,3,6)      =    -60.253577    -0.000005    -0.130999   -60.384577
	   46 D(5,2,3,7)      =    178.531654     0.000004    -0.239631   178.292023
	   47 D(5,2,3,8)      =     60.803352    -0.000001     0.195053    60.998404
	   48 D(7,3,6,9)      =    -57.998953    -0.000013    -0.846283   -58.845236
	   49 D(7,3,6,10)     =     60.946357    -0.000015     1.123939    62.070296
	   50 D(7,3,6,11)     =   -177.696998     0.000024    -0.601049  -178.298047
	   51 D(8,3,6,9)      =     59.024333    -0.000011    -0.746117    58.278216
	   52 D(8,3,6,10)     =    177.969643    -0.000013     1.224106   179.193749
	   53 D(8,3,6,11)     =    -60.673712     0.000025    -0.500882   -61.174594
	   54 D(10,6,9,12)    =   -123.017923    -0.000068    -3.263599  -126.281521
	   55 D(10,6,9,13)    =     46.136315     0.000149    13.891472    60.027788
	   56 D(11,6,9,12)    =    124.235936    -0.000088    -0.306001   123.929934
	   57 D(11,6,9,13)    =    -66.609826     0.000128    16.849070   -49.760757
	 ---------------------------------------------------------------------------

  ==> Convergence Check <==

  Measures of convergence in internal coordinates in au.
  Criteria marked as inactive (o), active & met (*), and active & unmet ( ).
  ---------------------------------------------------------------------------------------------
   Step     Total Energy     Delta E     MAX Force     RMS Force      MAX Disp      RMS Disp   
  ---------------------------------------------------------------------------------------------
    Convergence Criteria    1.00e-06 *    3.00e-04 *             o    1.20e-03 *             o
  ---------------------------------------------------------------------------------------------
      2    -321.73158988    1.47e-03      1.26e-02      3.83e-03 o    2.99e-01      6.60e-02 o  ~
  ---------------------------------------------------------------------------------------------

	Writing optimization data to binary file.
	Structure for next step:
	Cartesian Geometry (in Angstrom)
	    H     3.5683271775   0.1647407635  -0.6810000666
	    C     2.8002442986  -0.0447467064   0.0544974893
	    C     1.4120693151   0.1416439548  -0.5638505955
	    H     2.9511770751  -1.0616375155   0.4058024069
	    H     2.9612989949   0.6230268630   0.8961744031
	    C     0.3385787266  -0.1532722769   0.4723223053
	    H     1.2916966360  -0.5123469100  -1.4146288927
	    H     1.3034937894   1.1519513733  -0.9329239161
	    N    -1.1120281674  -0.0266066415   0.0895803922
	    H     0.3882291941  -1.1583734308   0.8692072128
	    H     0.4162605371   0.5082933351   1.3251352952
	    O    -1.4316894967   0.3004071779  -1.0101917201
	    O    -1.8746776020  -0.1621217628   0.9972048384
			--------------------------
			 OPTKING Finished Execution 
			--------------------------

    Structure for next step:
    Molecular point group: c1
    Full point group: C1

    Geometry (in Angstrom), charge = 0, multiplicity = 1:

    H            3.578039571707     0.154900879621    -0.693057980131
    C            2.809956751421    -0.054586574245     0.042439519664
    C            1.421781873936     0.131804072693    -0.575908517929
    H            2.960889516403    -1.071477305765     0.393744410354
    H            2.971011435391     0.613186944159     0.884116369136
    C            0.348291367435    -0.163112136454     0.460264303756
    H            1.301409204079    -0.522186742183    -1.426686750198
    H            1.313206356551     1.142111414075    -0.944981810341
    N           -1.102315415782    -0.036446510777     0.077522419854
    H            0.397941831179    -1.168213213583     0.857149180956
    H            0.425973172010     0.498453424952     1.313077228493
    O           -1.421976720717     0.290567283669    -1.022249608485
    O           -1.864964792196    -0.171961621723     0.985146796754

gradient() will perform analytic gradient computation.

*** tstart() called on cx1-3-1-2.cx1.hpc.ic.ac.uk
*** at Fri Sep  2 13:59:46 2016


         ---------------------------------------------------------
                                   SCF
            by Justin Turney, Rob Parrish, and Andy Simmonett
                              RHF Reference
                        4 Threads,   2000 MiB Core
         ---------------------------------------------------------

  ==> Geometry <==

    Molecular point group: c1
    Full point group: C1

    Geometry (in Angstrom), charge = 0, multiplicity = 1:

       Center              X                  Y                   Z               Mass       
    ------------   -----------------  -----------------  -----------------  -----------------
           H          3.578039571707     0.154900879621    -0.693057980131     1.007825032070
           C          2.809956751421    -0.054586574245     0.042439519664    12.000000000000
           C          1.421781873936     0.131804072693    -0.575908517929    12.000000000000
           H          2.960889516403    -1.071477305765     0.393744410354     1.007825032070
           H          2.971011435391     0.613186944159     0.884116369136     1.007825032070
           C          0.348291367435    -0.163112136454     0.460264303756    12.000000000000
           H          1.301409204079    -0.522186742183    -1.426686750198     1.007825032070
           H          1.313206356551     1.142111414075    -0.944981810341     1.007825032070
           N         -1.102315415782    -0.036446510777     0.077522419854    14.003074004780
           H          0.397941831179    -1.168213213583     0.857149180956     1.007825032070
           H          0.425973172010     0.498453424952     1.313077228493     1.007825032070
           O         -1.421976720717     0.290567283669    -1.022249608485    15.994914619560
           O         -1.864964792196    -0.171961621723     0.985146796754    15.994914619560

  Running in c1 symmetry.

  Rotational constants: A =      0.32482  B =      0.06349  C =      0.05471 [cm^-1]
  Rotational constants: A =   9737.84501  B =   1903.35574  C =   1640.10657 [MHz]
  Nuclear repulsion =  245.128169695863107

  Charge       = 0
  Multiplicity = 1
  Electrons    = 48
  Nalpha       = 24
  Nbeta        = 24

  ==> Algorithm <==

  SCF Algorithm Type is DF.
  DIIS enabled.
  MOM disabled.
  Fractional occupation disabled.
  Guess Type is READ.
  Energy threshold   = 1.00e-08
  Density threshold  = 1.00e-08
  Integral threshold = 0.00e+00

  ==> Primary Basis <==

  Basis Set: 6-31G*
    Number of shells: 50
    Number of basis function: 104
    Number of Cartesian functions: 104
    Spherical Harmonics?: false
    Max angular momentum: 2

  ==> Pre-Iterations <==

   -------------------------------------------------------
    Irrep   Nso     Nmo     Nalpha   Nbeta   Ndocc  Nsocc
   -------------------------------------------------------
     A        104     104       0       0       0       0
   -------------------------------------------------------
    Total     104     104      24      24      24       0
   -------------------------------------------------------

 OEINTS: Overlap, kinetic, potential, dipole, and quadrupole integrals
         stored in file 35.

  ==> Integral Setup <==

  ==> DFJK: Density-Fitted J/K Matrices <==

    J tasked:                  Yes
    K tasked:                  Yes
    wK tasked:                  No
    OpenMP threads:              4
    Integrals threads:           4
    Memory (MB):              1430
    Algorithm:                Core
    Integral Cache:           NONE
    Schwarz Cutoff:          1E-12
    Fitting Condition:       1E-12

   => Auxiliary Basis Set <=

  Basis Set: 
    Number of shells: 207
    Number of basis function: 661
    Number of Cartesian functions: 661
    Spherical Harmonics?: false
    Max angular momentum: 3

  Minimum eigenvalue in the overlap matrix is 3.0919862729E-03.
  Using Symmetric Orthogonalization.
  SCF Guess: Reading in previously saved MOs, projecting if necessary.

  Using orbitals from previous SCF, no projection.
  Recomputing DOCC and SOCC from number of alpha and beta electrons from previous calculation.
              A 
    DOCC [    24 ]

  ==> Iterations <==

                           Total Energy        Delta E     RMS |[F,P]|

   @DF-RHF iter   0:  -321.63962381570138   -3.21640e+02   5.18895e-03 
   @DF-RHF iter   1:  -321.72276673041449   -8.31429e-02   9.75733e-04 
   @DF-RHF iter   2:  -321.72925793700449   -6.49121e-03   5.86983e-04 DIIS
   @DF-RHF iter   3:  -321.73094125285456   -1.68332e-03   2.18298e-04 DIIS
   @DF-RHF iter   4:  -321.73147599014078   -5.34737e-04   7.73016e-05 DIIS
   @DF-RHF iter   5:  -321.73157027753336   -9.42874e-05   3.81227e-05 DIIS
   @DF-RHF iter   6:  -321.73161637832663   -4.61008e-05   2.08255e-05 DIIS
   @DF-RHF iter   7:  -321.73162791681193   -1.15385e-05   7.09139e-06 DIIS
   @DF-RHF iter   8:  -321.73162903850994   -1.12170e-06   1.79241e-06 DIIS
   @DF-RHF iter   9:  -321.73162908077370   -4.22638e-08   6.45295e-07 DIIS
   @DF-RHF iter  10:  -321.73162908729887   -6.52517e-09   2.16958e-07 DIIS
   @DF-RHF iter  11:  -321.73162908847485   -1.17598e-09   8.21157e-08 DIIS
   @DF-RHF iter  12:  -321.73162908868699   -2.12140e-10   3.76523e-08 DIIS
   @DF-RHF iter  13:  -321.73162908873655   -4.95675e-11   1.51635e-08 DIIS
   @DF-RHF iter  14:  -321.73162908874315   -6.59384e-12   5.08819e-09 DIIS

  ==> Post-Iterations <==

    Orbital Energies (a.u.)
    -----------------------

    Doubly Occupied:                                                      

       1A    -20.603954     2A    -20.595527     3A    -15.848662  
       4A    -11.303354     5A    -11.254119     6A    -11.240834  
       7A     -1.630661     8A     -1.413697     9A     -1.130030  
      10A     -1.028866    11A     -0.887507    12A     -0.827432  
      13A     -0.755757    14A     -0.747393    15A     -0.723457  
      16A     -0.657775    17A     -0.608448    18A     -0.574243  
      19A     -0.557438    20A     -0.526837    21A     -0.511671  
      22A     -0.482855    23A     -0.472961    24A     -0.446941  

    Virtual:                                                              

      25A      0.120334    26A      0.207816    27A      0.246911  
      28A      0.268399    29A      0.283269    30A      0.301785  
      31A      0.320304    32A      0.328576    33A      0.352350  
      34A      0.373581    35A      0.408335    36A      0.539262  
      37A      0.591647    38A      0.704863    39A      0.707475  
      40A      0.715961    41A      0.756276    42A      0.762401  
      43A      0.826405    44A      0.889089    45A      0.903908  
      46A      0.914184    47A      0.984504    48A      1.046115  
      49A      1.052786    50A      1.091851    51A      1.113491  
      52A      1.119939    53A      1.137350    54A      1.140532  
      55A      1.154688    56A      1.190840    57A      1.202478  
      58A      1.206348    59A      1.238577    60A      1.255380  
      61A      1.302990    62A      1.324532    63A      1.364884  
      64A      1.376002    65A      1.577415    66A      1.607538  
      67A      1.684635    68A      1.697668    69A      1.749684  
      70A      1.816698    71A      1.865943    72A      1.984197  
      73A      2.083212    74A      2.093576    75A      2.109118  
      76A      2.122139    77A      2.160608    78A      2.221727  
      79A      2.236076    80A      2.250115    81A      2.284420  
      82A      2.364897    83A      2.396457    84A      2.432718  
      85A      2.518063    86A      2.543214    87A      2.663862  
      88A      2.671132    89A      2.705349    90A      2.827333  
      91A      2.866803    92A      2.912477    93A      2.964126  
      94A      3.063963    95A      3.219364    96A      3.282945  
      97A      3.317569    98A      3.494191    99A      4.096346  
     100A      4.204500   101A      4.256914   102A      4.581541  
     103A      4.715841   104A      4.903082  

    Final Occupation by Irrep:
              A 
    DOCC [    24 ]

  Energy converged.

  @DF-RHF Final Energy:  -321.73162908874315

   => Energetics <=

    Nuclear Repulsion Energy =            245.1281696958631073
    One-Electron Energy =                -924.0587597039095726
    Two-Electron Energy =                 357.1989609193032038
    DFT Exchange-Correlation Energy =       0.0000000000000000
    Empirical Dispersion Energy =           0.0000000000000000
    PCM Polarization Energy =               0.0000000000000000
    EFP Energy =                            0.0000000000000000
    Total Energy =                       -321.7316290887432615

    Alert: EFP and PCM quantities not currently incorporated into SCF psivars.

Properties will be evaluated at   0.000000,   0.000000,   0.000000 Bohr
  ==> Properties <==


Properties computed using the SCF density matrix

  Nuclear Dipole Moment: (a.u.)
     X:    12.1262      Y:    -0.3305      Z:     0.3590

  Electronic Dipole Moment: (a.u.)
     X:   -10.3867      Y:     0.1731      Z:    -0.1336

  Dipole Moment: (a.u.)
     X:     1.7395      Y:    -0.1573      Z:     0.2254     Total:     1.7611

  Dipole Moment: (Debye)
     X:     4.4213      Y:    -0.3999      Z:     0.5728     Total:     4.4762


  Saving occupied orbitals to File 180.

*** tstop() called on cx1-3-1-2.cx1.hpc.ic.ac.uk at Fri Sep  2 13:59:51 2016
Module time:
	user time   =      12.90 seconds =       0.22 minutes
	system time =       0.21 seconds =       0.00 minutes
	total time  =          5 seconds =       0.08 minutes
Total time:
	user time   =      67.36 seconds =       1.12 minutes
	system time =       1.09 seconds =       0.02 minutes
	total time  =         22 seconds =       0.37 minutes

*** tstart() called on cx1-3-1-2.cx1.hpc.ic.ac.uk
*** at Fri Sep  2 13:59:51 2016


         ------------------------------------------------------------
                                   SCF GRAD                          
                          Rob Parrish, Justin Turney,                
                       Andy Simmonett, and Alex Sokolov              
         ------------------------------------------------------------

  ==> Geometry <==

    Molecular point group: c1
    Full point group: C1

    Geometry (in Angstrom), charge = 0, multiplicity = 1:

       Center              X                  Y                   Z               Mass       
    ------------   -----------------  -----------------  -----------------  -----------------
           H          3.578039571707     0.154900879621    -0.693057980131     1.007825032070
           C          2.809956751421    -0.054586574245     0.042439519664    12.000000000000
           C          1.421781873936     0.131804072693    -0.575908517929    12.000000000000
           H          2.960889516403    -1.071477305765     0.393744410354     1.007825032070
           H          2.971011435391     0.613186944159     0.884116369136     1.007825032070
           C          0.348291367435    -0.163112136454     0.460264303756    12.000000000000
           H          1.301409204079    -0.522186742183    -1.426686750198     1.007825032070
           H          1.313206356551     1.142111414075    -0.944981810341     1.007825032070
           N         -1.102315415782    -0.036446510777     0.077522419854    14.003074004780
           H          0.397941831179    -1.168213213583     0.857149180956     1.007825032070
           H          0.425973172010     0.498453424952     1.313077228493     1.007825032070
           O         -1.421976720717     0.290567283669    -1.022249608485    15.994914619560
           O         -1.864964792196    -0.171961621723     0.985146796754    15.994914619560

  Nuclear repulsion =  245.128169695863107

  ==> Basis Set <==

  Basis Set: 6-31G*
    Number of shells: 50
    Number of basis function: 104
    Number of Cartesian functions: 104
    Spherical Harmonics?: false
    Max angular momentum: 2

  ==> DFJKGrad: Density-Fitted SCF Gradients <==

    Gradient:                    1
    J tasked:                  Yes
    K tasked:                  Yes
    wK tasked:                  No
    OpenMP threads:              4
    Integrals threads:           4
    Memory (MB):              1430
    Schwarz Cutoff:          0E+00
    Fitting Condition:       1E-12

   => Auxiliary Basis Set <=

  Basis Set: 
    Number of shells: 207
    Number of basis function: 661
    Number of Cartesian functions: 661
    Spherical Harmonics?: false
    Max angular momentum: 3


  -Total Gradient:
     Atom            X                  Y                   Z
    ------   -----------------  -----------------  -----------------
       1        0.000247957612    -0.000112133636     0.000231757341
       2       -0.000354202857     0.000612424734    -0.000627405713
       3        0.008124176410     0.001284837228     0.002295587654
       4        0.000654750892    -0.000300060516     0.000394134065
       5        0.000851461055    -0.000049420386     0.000521007158
       6        0.004267383675     0.005266496928    -0.010071363655
       7        0.000119205563     0.002152245137     0.002251204182
       8        0.001099969176    -0.002059910329    -0.000161119590
       9       -0.001144247524    -0.023382613185    -0.001436586495
      10       -0.003682971998     0.000922624707     0.002244368425
      11        0.000197466404    -0.000519716573     0.001570874345
      12       -0.010098194737     0.007284437262     0.003961846058
      13       -0.000282753666     0.008900788629    -0.001174303772


*** tstop() called on cx1-3-1-2.cx1.hpc.ic.ac.uk at Fri Sep  2 13:59:55 2016
Module time:
	user time   =      14.56 seconds =       0.24 minutes
	system time =       0.19 seconds =       0.00 minutes
	total time  =          4 seconds =       0.07 minutes
Total time:
	user time   =      81.94 seconds =       1.37 minutes
	system time =       1.28 seconds =       0.02 minutes
	total time  =         26 seconds =       0.43 minutes
CURRENT ENERGY: -321.7316290887

			-----------------------------------------
			 OPTKING 2.0: for geometry optimizations 
			  - R.A. King,  Bethel University        
			-----------------------------------------

	Previous internal coordinate definitions found.
	---Fragment 1 Geometry and Gradient---
	 H           6.7615148832        0.2927202402       -1.3096897767
	 C           5.3100487054       -0.1031536759        0.0801990694
	 C           2.6867783624        0.2490736006       -1.0883093765
	 H           5.5952702957       -2.0247986655        0.7440691019
	 H           5.6143979506        1.1587553927        1.6707378073
	 C           0.6581752989       -0.3082372668        0.8697734828
	 H           2.4593069825       -0.9867899329       -2.6960472353
	 H           2.4816003698        2.1582777858       -1.7857568221
	 N          -2.0830742479       -0.0688739239        0.1464961427
	 H           0.7520010777       -2.2076030385        1.6197772070
	 H           0.8049726351        0.9419404632        2.4813563532
	 O          -2.6871465695        0.5490925893       -1.9317717995
	 O          -3.5242727047       -0.3249603704        1.8616576466
	             0.0002479576       -0.0001121336        0.0002317573
	            -0.0003542029        0.0006124247       -0.0006274057
	             0.0081241764        0.0012848372        0.0022955877
	             0.0006547509       -0.0003000605        0.0003941341
	             0.0008514611       -0.0000494204        0.0005210072
	             0.0042673837        0.0052664969       -0.0100713637
	             0.0001192056        0.0021522451        0.0022512042
	             0.0010999692       -0.0020599103       -0.0001611196
	            -0.0011442475       -0.0233826132       -0.0014365865
	            -0.0036829720        0.0009226247        0.0022443684
	             0.0001974664       -0.0005197166        0.0015708743
	            -0.0100981947        0.0072844373        0.0039618461
	            -0.0002827537        0.0089007886       -0.0011743038

	---Fragment 1 Intrafragment Coordinates---
	 - Coordinate -           - BOHR/RAD -       - ANG/DEG -
	 R(1,2)           =         2.048234	       1.083879
	 R(2,3)           =         2.893272	       1.531054
	 R(2,4)           =         2.052996	       1.086399
	 R(2,5)           =         2.053012	       1.086407
	 R(3,6)           =         2.874007	       1.520859
	 R(3,7)           =         2.040569	       1.079823
	 R(3,8)           =         2.042937	       1.081076
	 R(6,9)           =         2.845149	       1.505588
	 R(6,10)          =         2.044236	       1.081763
	 R(6,11)          =         2.044919	       1.082125
	 R(9,12)          =         2.250774	       1.191058
	 R(9,13)          =         2.254864	       1.193223
	 B(1,2,3)         =         1.922954	     110.177162
	 B(1,2,4)         =         1.877469	     107.571053
	 B(1,2,5)         =         1.877446	     107.569738
	 B(2,3,6)         =         1.918998	     109.950464
	 B(2,3,7)         =         1.923616	     110.215054
	 B(2,3,8)         =         1.920597	     110.042104
	 B(3,2,4)         =         1.950359	     111.747312
	 B(3,2,5)         =         1.952470	     111.868311
	 B(3,6,9)         =         2.083525	     119.377172
	 B(3,6,10)        =         1.979847	     113.436870
	 B(3,6,11)        =         1.947343	     111.574554
	 B(4,2,5)         =         1.879913	     107.711088
	 B(6,3,7)         =         1.918422	     109.917471
	 B(6,3,8)         =         1.920825	     110.055188
	 B(6,9,12)        =         2.113453	     121.091910
	 B(6,9,13)        =         1.996419	     114.386360
	 B(7,3,8)         =         1.860663	     106.608123
	 B(9,6,10)        =         1.788162	     102.454120
	 B(9,6,11)        =         1.790638	     102.596001
	 B(10,6,11)       =         1.850007	     105.997612
	 B(12,9,13)       =         2.167592	     124.193861
	 D(1,2,3,6)       =        -3.141422	    -179.990215
	 D(1,2,3,7)       =         1.024271	      58.686384
	 D(1,2,3,8)       =        -1.022889	     -58.607234
	 D(2,3,6,9)       =         3.135543	     179.653369
	 D(2,3,6,10)      =        -1.037268	     -59.431098
	 D(2,3,6,11)      =         1.050698	      60.200558
	*D(3,6,9,12)      =         0.000000	       0.000000
	 D(3,6,9,13)      =        -3.031467	    -173.690238
	 D(4,2,3,6)       =         1.055594	      60.481080
	 D(4,2,3,7)       =        -1.061899	     -60.842320
	 D(4,2,3,8)       =        -3.109059	    -178.135938
	 D(5,2,3,6)       =        -1.053910	     -60.384577
	 D(5,2,3,7)       =         3.111783	     178.292023
	 D(5,2,3,8)       =         1.064623	      60.998404
	 D(7,3,6,9)       =        -1.027043	     -58.845236
	 D(7,3,6,10)      =         1.083331	      62.070296
	 D(7,3,6,11)      =        -3.111888	    -178.298047
	 D(8,3,6,9)       =         1.017147	      58.278216
	 D(8,3,6,10)      =         3.127521	     179.193749
	 D(8,3,6,11)      =        -1.067698	     -61.174594
	 D(10,6,9,12)     =        -2.204028	    -126.281521
	 D(10,6,9,13)     =         1.047683	      60.027788
	 D(11,6,9,12)     =         2.162985	     123.929934
	 D(11,6,9,13)     =        -0.868489	     -49.760757

	Current energy   :      -321.7316290887

	Energy change for the previous step:
		Projected    :        -0.0085264602
		Actual       :        -0.0000392089
	Energy ratio indicates iffy step: Trust radius decreased to 1.250e-01.


	Performing BFGS update.
	Previous computed or guess Hessian on step 1.
	Steps to be used in Hessian update: 2 1
	Taking RFO optimization step.
	Going to follow RFO solution 1.
	Using RFO vector 1.

	Determining step-restricting scale parameter for RS-RFO.
	Maximum step size allowed    0.12500

	 Iter      |step|        alpha        rfo_root  
	------------------------------------------------
	    0     0.31090       1.00000           1
	    1     0.21539       3.78069           1
	    2     0.16232       8.64577           1
	    3     0.13601      14.30335           1
	    4     0.12649      17.61445           1
	    5     0.12503      18.21397           1
	    6     0.12500      18.22842           1
	------------------------------------------------
	Norm of target step-size    0.12500
	Projected energy change by RFO approximation:        -0.0030089057

	Back-transformation to cartesian coordinates...
	Successfully converged to displaced geometry.

	Back-transformation to cartesian coordinates to adjust frozen coordinates...
	Successfully converged to displaced geometry.

	--- Internal Coordinate Step in ANG or DEG, aJ/ANG or AJ/DEG ---
	 ---------------------------------------------------------------------------
	   Coordinate                Previous        Force       Change         New 
	   ----------                --------       ------       ------       ------
	    1 R(1,2)          =      1.083879     0.000027     0.000038     1.083917
	    2 R(2,3)          =      1.531054    -0.012035    -0.001348     1.529706
	    3 R(2,4)          =      1.086399    -0.004113    -0.000465     1.085934
	    4 R(2,5)          =      1.086407    -0.004115    -0.000417     1.085990
	    5 R(3,6)          =      1.520859    -0.037383    -0.000747     1.520112
	    6 R(3,7)          =      1.079823     0.025462     0.002738     1.082561
	    7 R(3,8)          =      1.081076     0.016317     0.001429     1.082505
	    8 R(6,9)          =      1.505588    -0.083667    -0.009283     1.496306
	    9 R(6,10)         =      1.081763     0.001671    -0.000372     1.081391
[...]
           C          0.328890773042    -0.159435090107     0.546740109553    12.000000000000
           H          1.208060661456    -0.538254615647    -1.366658100501     1.007825032070
           H          1.234717261139     1.135943072288    -0.895476920012     1.007825032070
           N         -1.080493066602    -0.005988002644     0.082034205997    14.003074004780
           H          0.382391566503    -1.172686713441     0.919964028706     1.007825032070
           H          0.408891579594     0.508529530422     1.392966128580     1.007825032070
           O         -1.281695140336     0.315265149485    -1.046724370953    15.994914619560
           O         -1.923542198288    -0.221945226227     0.898252750157    15.994914619560

  Nuclear repulsion =  247.036598763444005

  ==> Basis Set <==

  Basis Set: 6-31G*
    Number of shells: 50
    Number of basis function: 104
    Number of Cartesian functions: 104
    Spherical Harmonics?: false
    Max angular momentum: 2

  ==> DFJKGrad: Density-Fitted SCF Gradients <==

    Gradient:                    1
    J tasked:                  Yes
    K tasked:                  Yes
    wK tasked:                  No
    OpenMP threads:              4
    Integrals threads:           4
    Memory (MB):              1430
    Schwarz Cutoff:          0E+00
    Fitting Condition:       1E-12

   => Auxiliary Basis Set <=

  Basis Set: 
    Number of shells: 207
    Number of basis function: 661
    Number of Cartesian functions: 661
    Spherical Harmonics?: false
    Max angular momentum: 3


  -Total Gradient:
     Atom            X                  Y                   Z
    ------   -----------------  -----------------  -----------------
       1       -0.000007340640     0.000001575457    -0.000007764527
       2       -0.000008141871    -0.000009223651     0.000025868696
       3        0.000001914999     0.000026517661     0.000027342371
       4       -0.000002215952     0.000001309428     0.000002102287
       5       -0.000000978248    -0.000001609642    -0.000003989475
       6        0.000014028939    -0.000007481782    -0.000043305465
       7       -0.000014268180    -0.000005891964     0.000021178611
       8        0.000002092399     0.000015066538    -0.000008250521
       9        0.000161956142    -0.000052215564    -0.000018006255
      10        0.000045849259    -0.000013967924     0.000040491052
      11        0.000015050627    -0.000023980686    -0.000024993509
      12       -0.000139362389     0.000003537441     0.000102331674
      13       -0.000068585084     0.000066364689    -0.000113004940


*** tstop() called on cx1-3-1-2.cx1.hpc.ic.ac.uk at Fri Sep  2 14:00:29 2016
Module time:
	user time   =      11.22 seconds =       0.19 minutes
	system time =       0.15 seconds =       0.00 minutes
	total time  =          3 seconds =       0.05 minutes
Total time:
	user time   =     189.93 seconds =       3.17 minutes
	system time =       2.65 seconds =       0.04 minutes
	total time  =         60 seconds =       1.00 minutes
CURRENT ENERGY: -321.7349875503

			-----------------------------------------
			 OPTKING 2.0: for geometry optimizations 
			  - R.A. King,  Bethel University        
			-----------------------------------------

	Previous internal coordinate definitions found.
	---Fragment 1 Geometry and Gradient---
	 H           6.6415637982        0.2837334291       -1.3863802043
	 C           5.2474396328       -0.1016994205        0.0638939487
	 C           2.5787219834        0.2385497098       -0.9938365357
	 H           5.5549917796       -2.0177718750        0.7309745263
	 H           5.6062337601        1.1760215378        1.6290066956
	 C           0.6215134887       -0.3012886563        1.0331890729
	 H           2.2829038021       -1.0171538133       -2.5826095272
	 H           2.3332774751        2.1466213092       -1.6922061371
	 N          -2.0418359844       -0.0113156851        0.1550221829
	 H           0.7226153362       -2.2160567281        1.7384800664
	 H           0.7726931035        0.9609815430        2.6323244954
	 O          -2.4220528011        0.5957647918       -1.9780223977
	 O          -3.6349679598       -0.4194156941        1.6974516959
	            -0.0000073406        0.0000015755       -0.0000077645
	            -0.0000081419       -0.0000092237        0.0000258687
	             0.0000019150        0.0000265177        0.0000273424
	            -0.0000022160        0.0000013094        0.0000021023
	            -0.0000009782       -0.0000016096       -0.0000039895
	             0.0000140289       -0.0000074818       -0.0000433055
	            -0.0000142682       -0.0000058920        0.0000211786
	             0.0000020924        0.0000150665       -0.0000082505
	             0.0001619561       -0.0000522156       -0.0000180063
	             0.0000458493       -0.0000139679        0.0000404911
	             0.0000150506       -0.0000239807       -0.0000249935
	            -0.0001393624        0.0000035374        0.0001023317
	            -0.0000685851        0.0000663647       -0.0001130049

	---Fragment 1 Intrafragment Coordinates---
	 - Coordinate -           - BOHR/RAD -       - ANG/DEG -
	 R(1,2)           =         2.048276	       1.083901
	 R(2,3)           =         2.890781	       1.529736
	 R(2,4)           =         2.052052	       1.085899
	 R(2,5)           =         2.052043	       1.085895
	 R(3,6)           =         2.868959	       1.518188
	 R(3,7)           =         2.046582	       1.083005
	 R(3,8)           =         2.046631	       1.083031
	 R(6,9)           =         2.819342	       1.491932
	 R(6,10)          =         2.043035	       1.081128
	 R(6,11)          =         2.042894	       1.081053
	 R(9,12)          =         2.250109	       1.190707
	 R(9,13)          =         2.254707	       1.193140
	 B(1,2,3)         =         1.925302	     110.311701
	 B(1,2,4)         =         1.879544	     107.689962
	 B(1,2,5)         =         1.879536	     107.689501
	 B(2,3,6)         =         1.927438	     110.434035
	 B(2,3,7)         =         1.923323	     110.198307
	 B(2,3,8)         =         1.923356	     110.200193
	 B(3,2,4)         =         1.946804	     111.543663
	 B(3,2,5)         =         1.946795	     111.543147
	 B(3,6,9)         =         1.987809	     113.893074
	 B(3,6,10)        =         1.967631	     112.736956
	 B(3,6,11)        =         1.967428	     112.725326
	 B(4,2,5)         =         1.883099	     107.893618
	 B(6,3,7)         =         1.911797	     109.537911
	 B(6,3,8)         =         1.912087	     109.554492
	 B(6,9,12)        =         2.074476	     118.858701
	 B(6,9,13)        =         2.021711	     115.835500
	 B(7,3,8)         =         1.864804	     106.845387
	 B(9,6,10)        =         1.824169	     104.517167
	 B(9,6,11)        =         1.823660	     104.488026
	 B(10,6,11)       =         1.880945	     107.770192
	 B(12,9,13)       =         2.186999	     125.305792
	 D(1,2,3,6)       =         3.141140	     179.974073
	 D(1,2,3,7)       =         1.026603	      58.820014
	 D(1,2,3,8)       =        -1.027124	     -58.849862
	 D(2,3,6,9)       =         3.141450	     179.991835
	 D(2,3,6,10)      =        -1.066963	     -61.132503
	 D(2,3,6,11)      =         1.067495	      61.162936
	*D(3,6,9,12)      =        -0.000000	      -0.000000
	 D(3,6,9,13)      =        -3.141108	    -179.972239
	 D(4,2,3,6)       =         1.053108	      60.338623
	 D(4,2,3,7)       =        -1.061430	     -60.815436
	 D(4,2,3,8)       =        -3.115156	    -178.485311
	 D(5,2,3,6)       =        -1.054029	     -60.391392
	 D(5,2,3,7)       =         3.114619	     178.454549
	 D(5,2,3,8)       =         1.060893	      60.784674
	 D(7,3,6,9)       =        -1.020361	     -58.462371
	 D(7,3,6,10)      =         1.054411	      60.413291
	 D(7,3,6,11)      =        -3.094316	    -177.291270
	 D(8,3,6,9)       =         1.019845	      58.432824
	 D(8,3,6,10)      =         3.094617	     177.308486
	 D(8,3,6,11)      =        -1.054110	     -60.396075
	 D(10,6,9,12)     =        -2.154823	    -123.462282
	 D(10,6,9,13)     =         0.987267	      56.566229
	 D(11,6,9,12)     =         2.154187	     123.425810
	 D(11,6,9,13)     =        -0.986908	     -56.545680

	Current energy   :      -321.7349875503

	Energy change for the previous step:
		Projected    :        -0.0000051652
		Actual       :        -0.0000013828

	Performing BFGS update.
	Previous computed or guess Hessian on step 1.
	Steps to be used in Hessian update: 7 6
	Taking RFO optimization step.
	Going to follow RFO solution 1.
	Using RFO vector 1.
	Norm of target step-size    0.00243
	Projected energy change by RFO approximation:        -0.0000010497

	Back-transformation to cartesian coordinates...
	Successfully converged to displaced geometry.

	Back-transformation to cartesian coordinates to adjust frozen coordinates...
	Successfully converged to displaced geometry.

	--- Internal Coordinate Step in ANG or DEG, aJ/ANG or AJ/DEG ---
	 ---------------------------------------------------------------------------
	   Coordinate                Previous        Force       Change         New 
	   ----------                --------       ------       ------       ------
	    1 R(1,2)          =      1.083901    -0.000007     0.000001     1.083902
	    2 R(2,3)          =      1.529736     0.000085     0.000019     1.529755
	    3 R(2,4)          =      1.085899     0.000007     0.000001     1.085900
	    4 R(2,5)          =      1.085895     0.000035     0.000005     1.085899
	    5 R(3,6)          =      1.518188     0.000449     0.000082     1.518269
	    6 R(3,7)          =      1.083005     0.000089     0.000012     1.083017
	    7 R(3,8)          =      1.083031    -0.000137    -0.000024     1.083006
	    8 R(6,9)          =      1.491932    -0.000447    -0.000048     1.491884
	    9 R(6,10)         =      1.081128    -0.000242    -0.000041     1.081087
	   10 R(6,11)         =      1.081053     0.000274     0.000039     1.081092
	   11 R(9,12)         =      1.190707     0.000597     0.000022     1.190729
	   12 R(9,13)         =      1.193140     0.000337     0.000008     1.193148
	   13 B(1,2,3)        =    110.311701     0.000001     0.006338   110.318039
	   14 B(1,2,4)        =    107.689962    -0.000001    -0.002067   107.687895
	   15 B(1,2,5)        =    107.689501    -0.000000    -0.001362   107.688140
	   16 B(2,3,6)        =    110.434035     0.000002     0.009655   110.443690
	   17 B(2,3,7)        =    110.198307    -0.000001    -0.001920   110.196387
	   18 B(2,3,8)        =    110.200193    -0.000000    -0.004981   110.195212
	   19 B(3,2,4)        =    111.543663    -0.000000    -0.000630   111.543033
	   20 B(3,2,5)        =    111.543147    -0.000000    -0.001306   111.541842
	   21 B(3,6,9)        =    113.893074    -0.000001    -0.004995   113.888079
	   22 B(3,6,10)       =    112.736956     0.000001    -0.000503   112.736452
	   23 B(3,6,11)       =    112.725326     0.000002     0.013453   112.738778
	   24 B(4,2,5)        =    107.893618    -0.000000    -0.001185   107.892433
	   25 B(6,3,7)        =    109.537911     0.000001     0.011438   109.549348
	   26 B(6,3,8)        =    109.554492    -0.000001    -0.010022   109.544471
	   27 B(6,9,12)       =    118.858701    -0.000010    -0.018774   118.839928
	   28 B(6,9,13)       =    115.835500    -0.000007    -0.011960   115.823540
	   29 B(7,3,8)        =    106.845387     0.000000    -0.004637   106.840750
	   30 B(9,6,10)       =    104.517167    -0.000002    -0.023835   104.493332
	   31 B(9,6,11)       =    104.488026     0.000000     0.001511   104.489538
	   32 B(10,6,11)      =    107.770192     0.000001     0.012906   107.783098
	   33 B(12,9,13)      =    125.305792     0.000017     0.030740   125.336532
	   34 D(1,2,3,6)      =    179.974073     0.000000     0.045939   180.020012
	   35 D(1,2,3,7)      =     58.820014    -0.000000     0.026552    58.846566
	   36 D(1,2,3,8)      =    -58.849862     0.000000     0.036438   -58.813424
	   37 D(2,3,6,9)      =    179.991835     0.000000     0.011875   180.003709
	   38 D(2,3,6,10)     =    -61.132503    -0.000000    -0.023349   -61.155852
	   39 D(2,3,6,11)     =     61.162936     0.000000     0.003596    61.166531
	   40 *D(3,6,9,12)    =      0.000000    -0.000000     0.000000     0.000000
	   41 D(3,6,9,13)     =   -179.972239    -0.000001    -0.026064  -179.998303
	   42 D(4,2,3,6)      =     60.338623     0.000000     0.044732    60.383356
	   43 D(4,2,3,7)      =    -60.815436    -0.000000     0.025346   -60.790090
	   44 D(4,2,3,8)      =   -178.485311     0.000000     0.035231  -178.450080
	   45 D(5,2,3,6)      =    -60.391392     0.000000     0.047592   -60.343800
	   46 D(5,2,3,7)      =    178.454549    -0.000000     0.028205   178.482754
	   47 D(5,2,3,8)      =     60.784674     0.000000     0.038091    60.822764
	   48 D(7,3,6,9)      =    -58.462371     0.000000     0.023206   -58.439165
	   49 D(7,3,6,10)     =     60.413291    -0.000000    -0.012018    60.401273
	   50 D(7,3,6,11)     =   -177.291270     0.000000     0.014927  -177.276343
	   51 D(8,3,6,9)      =     58.432824     0.000000     0.018422    58.451246
	   52 D(8,3,6,10)     =    177.308486    -0.000000    -0.016802   177.291684
	   53 D(8,3,6,11)     =    -60.396075     0.000000     0.010143   -60.385932
	   54 D(10,6,9,12)    =   -123.462282     0.000000     0.020369  -123.441913
	   55 D(10,6,9,13)    =     56.566229    -0.000000    -0.005697    56.560532
	   56 D(11,6,9,12)    =    123.425810     0.000000     0.014850   123.440660
	   57 D(11,6,9,13)    =    -56.545680    -0.000000    -0.011215   -56.556895
	 ---------------------------------------------------------------------------

  ==> Convergence Check <==

  Measures of convergence in internal coordinates in au.
  Criteria marked as inactive (o), active & met (*), and active & unmet ( ).
  ---------------------------------------------------------------------------------------------
   Step     Total Energy     Delta E     MAX Force     RMS Force      MAX Disp      RMS Disp   
  ---------------------------------------------------------------------------------------------
    Convergence Criteria    1.00e-06 *    3.00e-04 *             o    1.20e-03 *             o
  ---------------------------------------------------------------------------------------------
      8    -321.73498755   -1.38e-06      2.20e-04 *    4.14e-05 o    8.31e-04 *    3.21e-04 o  ~
  ---------------------------------------------------------------------------------------------


  **** Optimization is complete! (in 8 steps) ****

  ==> Optimization Summary <==

  Measures of convergence in internal coordinates in au.
  --------------------------------------------------------------------------------------------------------------- ~
   Step         Total Energy             Delta E       MAX Force       RMS Force        MAX Disp        RMS Disp  ~
  --------------------------------------------------------------------------------------------------------------- ~
      1    -321.733055490930   -321.733055490930      0.02393046      0.00459610      0.24795084      0.05484494  ~
      2    -321.731589879833      0.001465611097      0.01263540      0.00383007      0.29943051      0.06598207  ~
      3    -321.731629088743     -0.000039208911      0.02259520      0.00487241      0.05951554      0.01655112  ~
      4    -321.734415844683     -0.002786755939      0.00885927      0.00190400      0.15109959      0.03629889  ~
      5    -321.733645189766      0.000770654917      0.01182474      0.00359471      0.10186518      0.03250365  ~
      6    -321.734737420305     -0.001092230539      0.00670804      0.00145656      0.03137516      0.00856075  ~
      7    -321.734986167515     -0.000248747210      0.00037359      0.00010465      0.00314010      0.00103584  ~
      8    -321.734987550274     -0.000001382759      0.00021980      0.00004141      0.00083063      0.00032126  ~
  --------------------------------------------------------------------------------------------------------------- ~

	Writing optimization data to binary file.
	Final energy is   -321.7349875502745
	Final (previous) structure:
	Cartesian Geometry (in Angstrom)
	    H     3.5145644598   0.1501452755  -0.7336408626
	    C     2.7768256692  -0.0538170196   0.0338112240
	    C     1.3646010051   0.1262350792  -0.5259156839
	    H     2.9395752681  -1.0677589699   0.3868150889
	    H     2.9666913584   0.6223238421   0.8620332818
	    C     0.3288907982  -0.1594351023   0.5467401513
	    H     1.2080607537  -0.5382546568  -1.3666582049
	    H     1.2347173554   1.1359431590  -0.8954769884
	    N    -1.0804931491  -0.0059880031   0.0820342123
	    H     0.3823915957  -1.1726868030   0.9199640990
	    H     0.4088916108   0.5085295693   1.3929662350
	    O    -1.2816952382   0.3152651736  -1.0467244509
	    O    -1.9235423452  -0.2219452432   0.8982528188
	Saving final (previous) structure.
			--------------------------
			 OPTKING Finished Execution 
			--------------------------

    Final optimized geometry and variables:
    Molecular point group: c1
    Full point group: C1

    Geometry (in Angstrom), charge = 0, multiplicity = 1:

    H            3.514564191415     0.150145264011    -0.733640806532
    C            2.776825457130    -0.053817015474     0.033811221408
    C            1.364600900914     0.126235069562    -0.525915643759
    H            2.939575043654    -1.067758888361     0.386815059382
    H            2.966691131883     0.622323794611     0.862033215970
    C            0.328890773042    -0.159435090107     0.546740109553
    H            1.208060661456    -0.538254615647    -1.366658100501
    H            1.234717261139     1.135943072288    -0.895476920012
    N           -1.080493066602    -0.005988002644     0.082034205997
    H            0.382391566503    -1.172686713441     0.919964028706
    H            0.408891579594     0.508529530422     1.392966128580
    O           -1.281695140336     0.315265149485    -1.046724370953
    O           -1.923542198288    -0.221945226227     0.898252750157

	Cleaning optimization helper files.


Properties will be evaluated at   0.000000,   0.000000,   0.000000 Bohr

Properties computed using the  density matrix

  Nuclear Dipole Moment: (a.u.)
     X:    11.8513      Y:    -0.3387      Z:     0.5297

  Electronic Dipole Moment: (a.u.)
     X:   -10.2096      Y:     0.2169      Z:    -0.1918

  Dipole Moment: (a.u.)
     X:     1.6417      Y:    -0.1217      Z:     0.3378     Total:     1.6805

  Dipole Moment: (Debye)
     X:     4.1727      Y:    -0.3094      Z:     0.8587     Total:     4.2714

  Quadrupole Moment: (Debye Ang)
    XX:   -42.0653     YY:   -34.6223     ZZ:   -38.5913
    XY:     0.0072     XZ:     0.4211     YZ:     1.2053

  Traceless Quadrupole Moment: (Debye Ang)
    XX:    -3.6390     YY:     3.8040     ZZ:    -0.1650
    XY:     0.0072     XZ:     0.4211     YZ:     1.2053

  Mulliken Charges: (a.u.)
   Center  Symbol    Alpha    Beta     Spin     Total
       1     H     0.40757  0.40757  0.00000  0.18487
       2     C     3.25023  3.25023  0.00000 -0.50047
       3     C     3.16456  3.16456  0.00000 -0.32911
       4     H     0.41647  0.41647  0.00000  0.16706
       5     H     0.41646  0.41646  0.00000  0.16707
       6     C     3.08860  3.08860  0.00000 -0.17721
       7     H     0.40157  0.40157  0.00000  0.19686
       8     H     0.40156  0.40156  0.00000  0.19689
       9     N     3.22505  3.22505  0.00000  0.54989
      10     H     0.38552  0.38552  0.00000  0.22896
      11     H     0.38552  0.38552  0.00000  0.22896
      12     O     4.22755  4.22755  0.00000 -0.45511
      13     O     4.22933  4.22933  0.00000 -0.45866

   Total alpha = 24.00000, Total beta = 24.00000, Total charge =  0.00000


*** PSI4 exiting successfully. Buy a developer a beer!
