    -----------------------------------------------------------------------
          Psi4: An Open-Source Ab Initio Electronic Structure Package
                              Psi4 1.0.54 Driver

                          Git: Rev {master} 8d4cec3 dirty

    J. M. Turney, A. C. Simmonett, R. M. Parrish, E. G. Hohenstein,
    F. A. Evangelista, J. T. Fermann, B. J. Mintz, L. A. Burns, J. J. Wilke,
    M. L. Abrams, N. J. Russ, M. L. Leininger, C. L. Janssen, E. T. Seidl,
    W. D. Allen, H. F. Schaefer, R. A. King, E. F. Valeev, C. D. Sherrill,
    and T. D. Crawford, WIREs Comput. Mol. Sci. 2, 556-565 (2012)
    (doi: 10.1002/wcms.93)

                         Additional Contributions by
    A. E. DePrince, U. Bozkaya, A. Yu. Sokolov, D. G. A. Smith, R. Di Remigio,
    R. M. Richard, J. F. Gonthier, H. R. McAlexander, M. Saitow, and
    B. P. Pritchard
    -----------------------------------------------------------------------


    Psi4 started on: Sat Sep 10 16:56:33 2016

    Process ID:  36533
    PSI4DATADIR: /export131/home/mjharvey/miniconda3/share/psi4
    Memory level set to 256.000 MB

  ==> Input File <==

--------------------------------------------------------------------------
set {
	reference rhf
	basis cc-pvtz
}


set_num_threads( 4 )
memory 2 gb

molecule MOL {
0 1

O	 3.219313	 0.959291	 -0.614106
C	 2.698710	 0.058177	 -0.050237
C	 1.246364	 -0.005813	 0.348416
O	 3.344101	 -1.038700	 0.312317
C	 0.453207	 1.232821	 -0.049003
H	 0.839270	 -0.907818	 -0.092281
H	 1.216683	 -0.160521	 1.422434
C	 -0.998367	 1.217982	 0.432195
H	 0.481498	 1.345443	 -1.127236
H	 0.951413	 2.105557	 0.354893
C	 -1.882951	 0.151251	 -0.211235
H	 -1.429490	 2.193659	 0.228843
H	 -1.019755	 1.099323	 1.513279
C	 -3.342450	 0.243269	 0.226009
H	 -1.826223	 0.246578	 -1.293162
H	 -1.508033	 -0.839650	 0.027695
C	 -4.234517	 -0.821434	 -0.405970
H	 -3.730149	 1.228245	 -0.022691
H	 -3.398860	 0.159952	 1.308941
C	 -5.719497	 -0.482911	 -0.328410
H	 -3.950176	 -0.956281	 -1.446012
H	 -4.057183	 -1.775218	 0.083626
H	 -6.323842	 -1.258216	 -0.785197
H	 -5.935593	 0.449076	 -0.840085
H	 -6.043136	 -0.375355	 0.701588
C	 4.720529	 -1.114346	 0.001449
H	 4.874321	 -1.055557	 -1.065852
H	 5.057824	 -2.067950	 0.373977
H	 5.264321	 -0.313596	 0.480350

	symmetry c1
}
set optking {
	frozen_dihedral = ("
		21 17 14 11
	")
}

ee,wfn = optimize('scf', return_wfn=True)
oeprop( wfn, 'DIPOLE', 'QUADRUPOLE', 'MULLIKEN_CHARGES')
f=open( 'psi4out.xyz', 'w' )
f.write( "29  " )
f.write( str(ee) + "\n" )
f.write( MOL.save_string_xyz() )
f.close()
--------------------------------------------------------------------------

  Memory set to   2.000 GiB by Python script.
gradient() will perform analytic gradient computation.

*** tstart() called on cx1-27-3-2
*** at Sat Sep 10 16:56:34 2016


         ---------------------------------------------------------
                                   SCF
            by Justin Turney, Rob Parrish, and Andy Simmonett
                              RHF Reference
                        4 Threads,   2000 MiB Core
         ---------------------------------------------------------

  ==> Geometry <==

    Molecular point group: c1
    Full point group: C1

    Geometry (in Angstrom), charge = 0, multiplicity = 1:

       Center              X                  Y                   Z               Mass       
    ------------   -----------------  -----------------  -----------------  -----------------
           O          3.221995787439     0.936597247109    -0.579661099969    15.994914619560
           C          2.701392787439     0.035483247109    -0.015792099969    12.000000000000
           C          1.249046787439    -0.028506752891     0.382860900031    12.000000000000
           O          3.346783787439    -1.061393752891     0.346761900031    15.994914619560
           C          0.455889787439     1.210127247109    -0.014558099969    12.000000000000
           H          0.841952787439    -0.930511752891    -0.057836099969     1.007825032070
           H          1.219365787439    -0.183214752891     1.456878900031     1.007825032070
           C         -0.995684212561     1.195288247109     0.466639900031    12.000000000000
           H          0.484180787439     1.322749247109    -1.092791099969     1.007825032070
           H          0.954095787439     2.082863247109     0.389337900031     1.007825032070
           C         -1.880268212561     0.128557247109    -0.176790099969    12.000000000000
           H         -1.426807212561     2.170965247109     0.263287900031     1.007825032070
           H         -1.017072212561     1.076629247109     1.547723900031     1.007825032070
           C         -3.339767212561     0.220575247109     0.260453900031    12.000000000000
           H         -1.823540212561     0.223884247109    -1.258717099969     1.007825032070
           H         -1.505350212561    -0.862343752891     0.062139900031     1.007825032070
           C         -4.231834212561    -0.844127752891    -0.371525099969    12.000000000000
           H         -3.727466212561     1.205551247109     0.011753900031     1.007825032070
           H         -3.396177212561     0.137258247109     1.343385900031     1.007825032070
           C         -5.716814212561    -0.505604752891    -0.293965099969    12.000000000000
           H         -3.947493212561    -0.978974752891    -1.411567099969     1.007825032070
           H         -4.054500212561    -1.797911752891     0.118070900031     1.007825032070
           H         -6.321159212561    -1.280909752891    -0.750752099969     1.007825032070
           H         -5.932910212561     0.426382247109    -0.805640099969     1.007825032070
           H         -6.040453212561    -0.398048752891     0.736032900031     1.007825032070
           C          4.723211787439    -1.137039752891     0.035893900031    12.000000000000
           H          4.877003787439    -1.078250752891    -1.031407099969     1.007825032070
           H          5.060506787439    -2.090643752891     0.408421900031     1.007825032070
           H          5.267003787439    -0.336289752891     0.514794900031     1.007825032070

  Running in c1 symmetry.

  Rotational constants: A =      0.11135  B =      0.00933  C =      0.00887 [cm^-1]
  Rotational constants: A =   3338.18902  B =    279.57050  C =    266.04725 [MHz]
  Nuclear repulsion =  611.240165692793425

  Charge       = 0
  Multiplicity = 1
  Electrons    = 88
  Nalpha       = 44
  Nbeta        = 44

  ==> Algorithm <==

  SCF Algorithm Type is DF.
  DIIS enabled.
  MOM disabled.
  Fractional occupation disabled.
  Guess Type is SAD.
  Energy threshold   = 1.00e-08
  Density threshold  = 1.00e-08
  Integral threshold = 0.00e+00

  ==> Primary Basis <==

  Basis Set: CC-PVTZ
    Number of shells: 218
    Number of basis function: 582
    Number of Cartesian functions: 655
    Spherical Harmonics?: true
    Max angular momentum: 3

  ==> Pre-Iterations <==

   -------------------------------------------------------
    Irrep   Nso     Nmo     Nalpha   Nbeta   Ndocc  Nsocc
   -------------------------------------------------------
     A        582     582       0       0       0       0
   -------------------------------------------------------
    Total     582     582      44      44      44       0
   -------------------------------------------------------

  ==> Integral Setup <==

  ==> DFJK: Density-Fitted J/K Matrices <==

    J tasked:                  Yes
    K tasked:                  Yes
    wK tasked:                  No
    OpenMP threads:              4
    Integrals threads:           4
    Memory (MB):              1430
    Algorithm:                Core
    Integral Cache:           NONE
    Schwarz Cutoff:          1E-12
    Fitting Condition:       1E-12

   => Auxiliary Basis Set <=

  Basis Set: 
    Number of shells: 455
    Number of basis function: 1409
    Number of Cartesian functions: 1686
    Spherical Harmonics?: true
    Max angular momentum: 4

  Minimum eigenvalue in the overlap matrix is 2.0113983120E-04.
  Using Symmetric Orthogonalization.
  SCF Guess: Superposition of Atomic Densities via on-the-fly atomic UHF.

  ==> Iterations <==

                           Total Energy        Delta E     RMS |[F,P]|

   @DF-RHF iter   0:  -506.68668866971507   -5.06687e+02   1.14464e-02 
   @DF-RHF iter   1:  -500.87019302800059    5.81650e+00   1.23720e-03 
   @DF-RHF iter   2:  -501.14316274293310   -2.72970e-01   7.44847e-04 DIIS
   @DF-RHF iter   3:  -501.21181129787465   -6.86486e-02   2.11661e-04 DIIS
   @DF-RHF iter   4:  -501.22247570698778   -1.06644e-02   6.25088e-05 DIIS
   @DF-RHF iter   5:  -501.22358972067877   -1.11401e-03   2.15867e-05 DIIS
   @DF-RHF iter   6:  -501.22376868586480   -1.78965e-04   8.74597e-06 DIIS
   @DF-RHF iter   7:  -501.22379452517521   -2.58393e-05   3.54652e-06 DIIS
   @DF-RHF iter   8:  -501.22379935215349   -4.82698e-06   1.03236e-06 DIIS
   @DF-RHF iter   9:  -501.22379995200504   -5.99852e-07   3.12675e-07 DIIS
   @DF-RHF iter  10:  -501.22380000559315   -5.35881e-08   1.12681e-07 DIIS
   @DF-RHF iter  11:  -501.22380001298166   -7.38851e-09   4.00947e-08 DIIS
   @DF-RHF iter  12:  -501.22380001413626   -1.15460e-09   1.50584e-08 DIIS
   @DF-RHF iter  13:  -501.22380001430315   -1.66892e-10   6.05143e-09 DIIS

  ==> Post-Iterations <==

    Orbital Energies (a.u.)
    -----------------------

    Doubly Occupied:                                                      

       1A    -20.595995     2A    -20.533839     3A    -11.364247  
       4A    -11.278250     5A    -11.232921     6A    -11.217030  
       7A    -11.215447     8A    -11.213814     9A    -11.213569  
      10A    -11.211971    11A    -11.207147    12A     -1.471885  
      13A     -1.365484    14A     -1.099380    15A     -1.068050  
      16A     -1.020571    17A     -0.978118    18A     -0.929181  
      19A     -0.862316    20A     -0.799789    21A     -0.790987  
      22A     -0.765685    23A     -0.702942    24A     -0.685451  
      25A     -0.676103    26A     -0.650479    27A     -0.630768  
      28A     -0.605339    29A     -0.596507    30A     -0.581951  
      31A     -0.568213    32A     -0.550775    33A     -0.532151  
      34A     -0.530320    35A     -0.517007    36A     -0.515599  
      37A     -0.495649    38A     -0.478471    39A     -0.470906  
      40A     -0.462314    41A     -0.460143    42A     -0.457685  
      43A     -0.443678    44A     -0.437379  

    Virtual:                                                              

      45A      0.138615    46A      0.146103    47A      0.156632  
      48A      0.160541    49A      0.162749    50A      0.179523  
      51A      0.188366    52A      0.192151    53A      0.202315  
      54A      0.212225    55A      0.219508    56A      0.222848  
      57A      0.229855    58A      0.235371    59A      0.245052  
      60A      0.252122    61A      0.259514    62A      0.265449  
      63A      0.272862    64A      0.282399    65A      0.317274  
      66A      0.332128    67A      0.350775    68A      0.351616  
      69A      0.365398    70A      0.372339    71A      0.378383  
      72A      0.383899    73A      0.391269    74A      0.406743  
      75A      0.411771    76A      0.427546    77A      0.435569  
      78A      0.456835    79A      0.459257    80A      0.473259  
      81A      0.478876    82A      0.485547    83A      0.505667  
      84A      0.517131    85A      0.529209    86A      0.540728  
      87A      0.546880    88A      0.561920    89A      0.563733  
      90A      0.566653    91A      0.580494    92A      0.590642  
      93A      0.601554    94A      0.606992    95A      0.618683  
      96A      0.623285    97A      0.626915    98A      0.629772  
      99A      0.635264   100A      0.637793   101A      0.639861  
     102A      0.648650   103A      0.652374   104A      0.657946  
     105A      0.661838   106A      0.663507   107A      0.671503  
     108A      0.681107   109A      0.687760   110A      0.690793  
     111A      0.699623   112A      0.718188   113A      0.724735  
     114A      0.726069   115A      0.731989   116A      0.740830  
     117A      0.761681   118A      0.767058   119A      0.775744  
     120A      0.780842   121A      0.810385   122A      0.828374  
     123A      0.839509   124A      0.848900   125A      0.865383  
     126A      0.868385   127A      0.876801   128A      0.890155  
     129A      0.901531   130A      0.905461   131A      0.928437  
     132A      0.938983   133A      0.959872   134A      0.970975  
     135A      0.980139   136A      0.992369   137A      0.999053  
     138A      1.000886   139A      1.016136   140A      1.021932  
     141A      1.038756   142A      1.055293   143A      1.066876  
     144A      1.080787   145A      1.081692   146A      1.096750  
     147A      1.110969   148A      1.118152   149A      1.124231  
     150A      1.133910   151A      1.149496   152A      1.168035  
     153A      1.170921   154A      1.179969   155A      1.190515  
     156A      1.213307   157A      1.228548   158A      1.238925  
     159A      1.248909   160A      1.257688   161A      1.263677  
     162A      1.271683   163A      1.285632   164A      1.287853  
     165A      1.299428   166A      1.302360   167A      1.313770  
     168A      1.314338   169A      1.329450   170A      1.331176  
     171A      1.336525   172A      1.342845   173A      1.357085  
     174A      1.363345   175A      1.384192   176A      1.384768  
     177A      1.388686   178A      1.398533   179A      1.419982  
     180A      1.427857   181A      1.432758   182A      1.443679  
     183A      1.446134   184A      1.456114   185A      1.465030  
     186A      1.471726   187A      1.486667   188A      1.494032  
     189A      1.498983   190A      1.501575   191A      1.514684  
     192A      1.516810   193A      1.525482   194A      1.530686  
     195A      1.531938   196A      1.537778   197A      1.545949  
     198A      1.557249   199A      1.566830   200A      1.575330  
     201A      1.590254   202A      1.600661   203A      1.613609  
     204A      1.623886   205A      1.635597   206A      1.636014  
     207A      1.648097   208A      1.651660   209A      1.682445  
     210A      1.697886   211A      1.711055   212A      1.731452  
     213A      1.741142   214A      1.749483   215A      1.757498  
     216A      1.768770   217A      1.777496   218A      1.796515  
     219A      1.808496   220A      1.823759   221A      1.831232  
     222A      1.834100   223A      1.842851   224A      1.845050  
     225A      1.849627   226A      1.876901   227A      1.887311  
     228A      1.906526   229A      1.933272   230A      1.954761  
     231A      1.968556   232A      2.007105   233A      2.025289  
     234A      2.049917   235A      2.081292   236A      2.096411  
     237A      2.155697   238A      2.259521   239A      2.305249  
     240A      2.333278   241A      2.342558   242A      2.453544  
     243A      2.474898   244A      2.495660   245A      2.522737  
     246A      2.534108   247A      2.556296   248A      2.596405  
     249A      2.615154   250A      2.625670   251A      2.651493  
     252A      2.666661   253A      2.672331   254A      2.687455  
     255A      2.701302   256A      2.715498   257A      2.721333  
     258A      2.742262   259A      2.751722   260A      2.776657  
     261A      2.792779   262A      2.804895   263A      2.810673  
     264A      2.817431   265A      2.825529   266A      2.835556  
     267A      2.851847   268A      2.857902   269A      2.871573  
     270A      2.896644   271A      2.911016   272A      2.920264  
     273A      2.928863   274A      2.948620   275A      2.956031  
     276A      2.963265   277A      2.974579   278A      2.980072  
     279A      2.995019   280A      3.006181   281A      3.021495  
     282A      3.025985   283A      3.027626   284A      3.036747  
     285A      3.043614   286A      3.065670   287A      3.070562  
     288A      3.076527   289A      3.095714   290A      3.102146  
     291A      3.117099   292A      3.135816   293A      3.140020  
     294A      3.143100   295A      3.151218   296A      3.173602  
     297A      3.189413   298A      3.204567   299A      3.219041  
     300A      3.245934   301A      3.255009   302A      3.263049  
     303A      3.270661   304A      3.274348   305A      3.281564  
     306A      3.285499   307A      3.298824   308A      3.316614  
     309A      3.325391   310A      3.335617   311A      3.341343  
     312A      3.346341   313A      3.356843   314A      3.366116  
     315A      3.374612   316A      3.382199   317A      3.385921  
     318A      3.399581   319A      3.405627   320A      3.412495  
     321A      3.415263   322A      3.426609   323A      3.431956  
     324A      3.434342   325A      3.450299   326A      3.458382  
     327A      3.461852   328A      3.474062   329A      3.475389  
     330A      3.481292   331A      3.485616   332A      3.493222  
     333A      3.498152   334A      3.511471   335A      3.519132  
     336A      3.529079   337A      3.531184   338A      3.546655  
     339A      3.563814   340A      3.572695   341A      3.578866  
     342A      3.586977   343A      3.594665   344A      3.600183  
     345A      3.606394   346A      3.627942   347A      3.629202  
     348A      3.638317   349A      3.648496   350A      3.662628  
     351A      3.675347   352A      3.680040   353A      3.683297  
     354A      3.703151   355A      3.723586   356A      3.744370  
     357A      3.747650   358A      3.757541   359A      3.765853  
     360A      3.769984   361A      3.795492   362A      3.803128  
     363A      3.822599   364A      3.832607   365A      3.835476  
     366A      3.848287   367A      3.857323   368A      3.865953  
     369A      3.867870   370A      3.874010   371A      3.885079  
     372A      3.895118   373A      3.922848   374A      3.933218  
     375A      3.942948   376A      3.947341   377A      3.956758  
     378A      3.957427   379A      3.977388   380A      3.982466  
     381A      4.000558   382A      4.010601   383A      4.032000  
     384A      4.047348   385A      4.074859   386A      4.080183  
     387A      4.086017   388A      4.095858   389A      4.106375  
     390A      4.112261   391A      4.117472   392A      4.129189  
     393A      4.139843   394A      4.156371   395A      4.165823  
     396A      4.168319   397A      4.173436   398A      4.175048  
     399A      4.184669   400A      4.191601   401A      4.197631  
     402A      4.202031   403A      4.206750   404A      4.221813  
     405A      4.235614   406A      4.241370   407A      4.249265  
     408A      4.255143   409A      4.274761   410A      4.284663  
     411A      4.289490   412A      4.328840   413A      4.332310  
     414A      4.337271   415A      4.344702   416A      4.360969  
     417A      4.367085   418A      4.375807   419A      4.389809  
     420A      4.394248   421A      4.397547   422A      4.401915  
     423A      4.410701   424A      4.420583   425A      4.427491  
     426A      4.441404   427A      4.447956   428A      4.456367  
     429A      4.471875   430A      4.481209   431A      4.496671  
     432A      4.502887   433A      4.517494   434A      4.539536  
     435A      4.545199   436A      4.550301   437A      4.557338  
     438A      4.573913   439A      4.589351   440A      4.593280  
     441A      4.602426   442A      4.611629   443A      4.621445  
     444A      4.633904   445A      4.642328   446A      4.653606  
     447A      4.664633   448A      4.679207   449A      4.688472  
     450A      4.699677   451A      4.703224   452A      4.721579  
     453A      4.729506   454A      4.736363   455A      4.765912  
     456A      4.769384   457A      4.784304   458A      4.790416  
     459A      4.805783   460A      4.823131   461A      4.845802  
     462A      4.867687   463A      4.907031   464A      4.929568  
     465A      4.968728   466A      4.994293   467A      5.004398  
     468A      5.015124   469A      5.021262   470A      5.041313  
     471A      5.051246   472A      5.059752   473A      5.073658  
     474A      5.087834   475A      5.097436   476A      5.119790  
     477A      5.130394   478A      5.144708   479A      5.173771  
     480A      5.187201   481A      5.203398   482A      5.209718  
     483A      5.228760   484A      5.238275   485A      5.258092  
     486A      5.278040   487A      5.294614   488A      5.299230  
     489A      5.303603   490A      5.320192   491A      5.331973  
     492A      5.342623   493A      5.360355   494A      5.366174  
     495A      5.376739   496A      5.395701   497A      5.403976  
     498A      5.433026   499A      5.436100   500A      5.454718  
     501A      5.469010   502A      5.493889   503A      5.495932  
     504A      5.507522   505A      5.534409   506A      5.559801  
     507A      5.585825   508A      5.593439   509A      5.605606  
     510A      5.613698   511A      5.619972   512A      5.635777  
     513A      5.647039   514A      5.666917   515A      5.670260  
     516A      5.690639   517A      5.738834   518A      5.750640  
     519A      5.753039   520A      5.771504   521A      5.814512  
     522A      5.821217   523A      5.823790   524A      5.852288  
     525A      5.859207   526A      5.874024   527A      5.881626  
     528A      5.894201   529A      5.901986   530A      5.912128  
     531A      5.925258   532A      5.931534   533A      5.948911  
     534A      5.960417   535A      5.963732   536A      5.990476  
     537A      6.026267   538A      6.042277   539A      6.051995  
     540A      6.082572   541A      6.095141   542A      6.142214  
     543A      6.182361   544A      6.188115   545A      6.246092  
     546A      6.300918   547A      6.316774   548A      6.333041  
     549A      6.343817   550A      6.373567   551A      6.410420  
     552A      6.468930   553A      6.480781   554A      6.532270  
     555A      6.599430   556A      6.611595   557A      6.693170  
     558A      6.846426   559A      6.870314   560A      6.899601  
     561A      6.915123   562A      7.049996   563A      7.249250  
     564A      7.263449   565A      7.374554   566A      7.485698  
     567A      7.503409   568A      7.580688   569A      7.692643  
     570A      7.897862   571A      7.985311   572A      9.999020  
     573A     12.106549   574A     13.228417   575A     13.396215  
     576A     13.484257   577A     13.739148   578A     14.015168  
     579A     14.030415   580A     14.155416   581A     14.266272  
     582A     14.709175  

    Final Occupation by Irrep:
              A 
    DOCC [    44 ]

  Energy converged.

  @DF-RHF Final Energy:  -501.22380001430315

   => Energetics <=

    Nuclear Repulsion Energy =            611.2401656927934255
    One-Electron Energy =               -1893.9569139921777605
    Two-Electron Energy =                 781.4929482850808427
    DFT Exchange-Correlation Energy =       0.0000000000000000
    Empirical Dispersion Energy =           0.0000000000000000
    PCM Polarization Energy =               0.0000000000000000
    EFP Energy =                            0.0000000000000000
    Total Energy =                       -501.2238000143034924


  Saving occupied orbitals to File 180.

*** tstop() called on cx1-27-3-2 at Sat Sep 10 16:57:15 2016
Module time:
	user time   =     149.04 seconds =       2.48 minutes
	system time =       2.63 seconds =       0.04 minutes
	total time  =         41 seconds =       0.68 minutes
Total time:
	user time   =     149.04 seconds =       2.48 minutes
	system time =       2.63 seconds =       0.04 minutes
	total time  =         41 seconds =       0.68 minutes


Properties will be evaluated at   0.000000,   0.000000,   0.000000 Bohr

Properties computed using the SCF density matrix

  Nuclear Dipole Moment: (a.u.)
     X:   -19.1761      Y:    -1.2107      Z:     0.4143

  Electronic Dipole Moment: (a.u.)
     X:    18.9952      Y:     0.5863      Z:    -0.0817

  Dipole Moment: (a.u.)
     X:    -0.1808      Y:    -0.6244      Z:     0.3326     Total:     0.7302

  Dipole Moment: (Debye)
     X:    -0.4597      Y:    -1.5870      Z:     0.8453     Total:     1.8559


*** tstart() called on cx1-27-3-2
*** at Sat Sep 10 16:57:15 2016


         ------------------------------------------------------------
                                   SCF GRAD                          
                          Rob Parrish, Justin Turney,                
                       Andy Simmonett, and Alex Sokolov              
         ------------------------------------------------------------

  ==> Geometry <==

    Molecular point group: c1
    Full point group: C1

    Geometry (in Angstrom), charge = 0, multiplicity = 1:

       Center              X                  Y                   Z               Mass       
    ------------   -----------------  -----------------  -----------------  -----------------
           O          3.221995787439     0.936597247109    -0.579661099969    15.994914619560
           C          2.701392787439     0.035483247109    -0.015792099969    12.000000000000
           C          1.249046787439    -0.028506752891     0.382860900031    12.000000000000
           O          3.346783787439    -1.061393752891     0.346761900031    15.994914619560
           C          0.455889787439     1.210127247109    -0.014558099969    12.000000000000
           H          0.841952787439    -0.930511752891    -0.057836099969     1.007825032070
           H          1.219365787439    -0.183214752891     1.456878900031     1.007825032070
           C         -0.995684212561     1.195288247109     0.466639900031    12.000000000000
           H          0.484180787439     1.322749247109    -1.092791099969     1.007825032070
           H          0.954095787439     2.082863247109     0.389337900031     1.007825032070
           C         -1.880268212561     0.128557247109    -0.176790099969    12.000000000000
           H         -1.426807212561     2.170965247109     0.263287900031     1.007825032070
           H         -1.017072212561     1.076629247109     1.547723900031     1.007825032070
           C         -3.339767212561     0.220575247109     0.260453900031    12.000000000000
           H         -1.823540212561     0.223884247109    -1.258717099969     1.007825032070
           H         -1.505350212561    -0.862343752891     0.062139900031     1.007825032070
           C         -4.231834212561    -0.844127752891    -0.371525099969    12.000000000000
           H         -3.727466212561     1.205551247109     0.011753900031     1.007825032070
           H         -3.396177212561     0.137258247109     1.343385900031     1.007825032070
           C         -5.716814212561    -0.505604752891    -0.293965099969    12.000000000000
           H         -3.947493212561    -0.978974752891    -1.411567099969     1.007825032070
           H         -4.054500212561    -1.797911752891     0.118070900031     1.007825032070
           H         -6.321159212561    -1.280909752891    -0.750752099969     1.007825032070
           H         -5.932910212561     0.426382247109    -0.805640099969     1.007825032070
           H         -6.040453212561    -0.398048752891     0.736032900031     1.007825032070
           C          4.723211787439    -1.137039752891     0.035893900031    12.000000000000
           H          4.877003787439    -1.078250752891    -1.031407099969     1.007825032070
           H          5.060506787439    -2.090643752891     0.408421900031     1.007825032070
           H          5.267003787439    -0.336289752891     0.514794900031     1.007825032070

  Nuclear repulsion =  611.240165692793425

  ==> Basis Set <==

  Basis Set: CC-PVTZ
    Number of shells: 218
    Number of basis function: 582
    Number of Cartesian functions: 655
    Spherical Harmonics?: true
    Max angular momentum: 3

  ==> DFJKGrad: Density-Fitted SCF Gradients <==

    Gradient:                    1
    J tasked:                  Yes
    K tasked:                  Yes
    wK tasked:                  No
    OpenMP threads:              4
    Integrals threads:           4
    Memory (MB):              1430
    Schwarz Cutoff:          0E+00
    Fitting Condition:       1E-12

   => Auxiliary Basis Set <=

  Basis Set: 
    Number of shells: 455
    Number of basis function: 1409
    Number of Cartesian functions: 1686
    Spherical Harmonics?: true
    Max angular momentum: 4


  -Total Gradient:
     Atom            X                  Y                   Z
    ------   -----------------  -----------------  -----------------
       1       -0.000031496995     0.000025053616     0.000022490578
       2        0.000021254163    -0.000021674102    -0.000052830908
       3        0.000006885127    -0.000003408189     0.000002673235
       4       -0.000014290085    -0.000014740436     0.000025104085
       5        0.000011184358     0.000008041092    -0.000008365018
       6        0.000006423761     0.000004671974    -0.000000188952
       7        0.000004555986     0.000005084996     0.000000192872
       8       -0.000088529049     0.000224890231    -0.000195359963
       9       -0.000003685818     0.000000623379     0.000014083307
      10        0.000004212832    -0.000011692642     0.000010400195
      11       -0.000420585779     0.000228272890    -0.001076177168
      12        0.000068870335     0.000009735546     0.000013451690
      13       -0.000045588645    -0.000032719603    -0.000003110542
      14       -0.000398287548    -0.001311907101    -0.000464850091
      15        0.000246221637    -0.000089749766    -0.000209029624
      16       -0.000148439021     0.000272810832     0.000117645176
      17        0.000468750578     0.000908685639     0.000971498366
      18       -0.000973865093    -0.000039704444     0.000571611968
      19        0.000498108106    -0.000995171791     0.000193415530
      20        0.000259234230     0.000911447161    -0.000731200191
      21        0.000990408897    -0.000430181380     0.000150248724
      22       -0.000433657777     0.000183605756     0.000996829178
      23        0.000095739227     0.000147167651    -0.000221829065
      24       -0.000270195049     0.000173076927     0.000026116476
      25        0.000158478346    -0.000158940282    -0.000152232901
      26        0.000004708037     0.000006794577    -0.000005355283
      27       -0.000001230835    -0.000000566627     0.000002572621
      28       -0.000012339793     0.000002986502     0.000002573922
      29       -0.000002844138    -0.000002492402    -0.000000378214


*** tstop() called on cx1-27-3-2 at Sat Sep 10 16:57:49 2016
Module time:
	user time   =     130.22 seconds =       2.17 minutes
	system time =       1.09 seconds =       0.02 minutes
	total time  =         34 seconds =       0.57 minutes
Total time:
	user time   =     279.53 seconds =       4.66 minutes
	system time =       3.73 seconds =       0.06 minutes
	total time  =         75 seconds =       1.25 minutes

			-----------------------------------------
			 OPTKING 2.0: for geometry optimizations 
			  - R.A. King,  Bethel University        
			-----------------------------------------

	Internal coordinates to be generated automatically.
	Detected frag 1 with atoms:  1 2 3 4 5 6 7 8 9 10 11 12 13 14 15 16 17 18 19 20
	 21 22 23 24 25 26 27 28 29
	---Fragment 1 Bond Connectivity---
	 1 : 2
	 2 : 1 3 4
	 3 : 2 5 6 7
	 4 : 2 26
	 5 : 3 8 9 10
	 6 : 3
	 7 : 3
	 8 : 5 11 12 13
	 9 : 5
	 10 : 5
	 11 : 8 14 15 16
	 12 : 8
	 13 : 8
	 14 : 11 17 18 19
	 15 : 11
	 16 : 11
	 17 : 14 20 21 22
	 18 : 14
	 19 : 14
	 20 : 17 23 24 25
	 21 : 17
	 22 : 17
	 23 : 20
	 24 : 20
	 25 : 20
	 26 : 4 27 28 29
	 27 : 26
	 28 : 26
	 29 : 26

	Assuming in current code that numbering for constraints corresponds to unified fragment.
	Frozen dihedral atom list: 
	    21    17    14    11
	---Fragment 1 Geometry and Gradient---
	 O           6.0886896396        1.7699122939       -1.0954007288
	 C           5.1048925456        0.0670536193       -0.0298427440
	 C           2.3603563554       -0.0538699559        0.7235022480
	 O           6.3245047842       -2.0057435121        0.6552850244
	 C           0.8615068450        2.2868090830       -0.0275108220
	 H           1.5910601851       -1.7584123764       -0.1092943895
	 H           2.3042673941       -0.3462257065        2.7531021298
	 C          -1.8815704766        2.2587674369        0.8818216137
	 H           0.9149690871        2.4996338195       -2.0650758994
	 H           1.8029797428        3.9360411093        0.7357420042
	 C          -3.5531919781        0.2429379894       -0.3340848719
	 H          -2.6962748762        4.1025297610        0.4975420252
	 H          -1.9219879391        2.0345344237        2.9247743004
	 C          -6.3112453793        0.4168268087        0.4921865413
	 H          -3.4459915940        0.4230799125       -2.3786305977
	 H          -2.8446996358       -1.6295935254        0.1174273930
	 C          -7.9970077015       -1.5951702741       -0.7020806904
	 H          -7.0438903113        2.2781616962        0.0222116521
	 H          -6.4178448305        0.2593804965        2.5386314418
	 C         -10.8032132143       -0.9554545144       -0.5555135316
	 H          -7.4596810832       -1.8499941740       -2.6674752371
	 H          -7.6618950075       -3.3975608241        0.2231216653
	 H         -11.9452597541       -2.4205686339       -1.4187158626
	 H         -11.2115754727        0.8057456750       -1.5224391506
	 H         -11.4148022902       -0.7522031305        1.3909006059
	 C           8.9255767459       -2.1486937352        0.0678296409
	 H           9.2162015073       -2.0375986255       -1.9490769505
	 H           9.5629719219       -3.9507441344        0.7718055377
	 H           9.9531946991       -0.6354955343        0.9728213757
	            -0.0000314970        0.0000250536        0.0000224906
	             0.0000212542       -0.0000216741       -0.0000528309
	             0.0000068851       -0.0000034082        0.0000026732
	            -0.0000142901       -0.0000147404        0.0000251041
	             0.0000111844        0.0000080411       -0.0000083650
	             0.0000064238        0.0000046720       -0.0000001890
	             0.0000045560        0.0000050850        0.0000001929
	            -0.0000885290        0.0002248902       -0.0001953600
	            -0.0000036858        0.0000006234        0.0000140833
	             0.0000042128       -0.0000116926        0.0000104002
	            -0.0004205858        0.0002282729       -0.0010761772
	             0.0000688703        0.0000097355        0.0000134517
	            -0.0000455886       -0.0000327196       -0.0000031105
	            -0.0003982875       -0.0013119071       -0.0004648501
	             0.0002462216       -0.0000897498       -0.0002090296
	            -0.0001484390        0.0002728108        0.0001176452
	             0.0004687506        0.0009086856        0.0009714984
	            -0.0009738651       -0.0000397044        0.0005716120
	             0.0004981081       -0.0009951718        0.0001934155
	             0.0002592342        0.0009114472       -0.0007312002
	             0.0009904089       -0.0004301814        0.0001502487
	            -0.0004336578        0.0001836058        0.0009968292
	             0.0000957392        0.0001471677       -0.0002218291
	            -0.0002701950        0.0001730769        0.0000261165
	             0.0001584783       -0.0001589403       -0.0001522329
	             0.0000047080        0.0000067946       -0.0000053553
	            -0.0000012308       -0.0000005666        0.0000025726
	            -0.0000123398        0.0000029865        0.0000025739
	            -0.0000028441       -0.0000024924       -0.0000003782

	Previous optimization step data not found.  Starting new optimization.

	---Fragment 1 Intrafragment Coordinates---
	 - Coordinate -           - BOHR/RAD -       - ANG/DEG -
	 R(1,2)           =         2.236738	       1.183631
	 R(2,3)           =         2.848619	       1.507424
	 R(2,4)           =         2.500668	       1.323297
	 R(3,5)           =         2.879123	       1.523566
	 R(3,6)           =         2.047152	       1.083306
	 R(3,7)           =         2.051315	       1.085509
	 R(4,26)          =         2.670415	       1.413123
	 R(5,8)           =         2.890008	       1.529326
	 R(5,9)           =         2.049347	       1.084468
	 R(5,10)          =         2.046678	       1.083056
	 R(8,11)          =         2.887268	       1.527876
	 R(8,12)          =         2.052041	       1.085893
	 R(8,13)          =         2.055619	       1.087787
	 R(11,14)         =         2.884410	       1.526364
	 R(11,15)         =         2.055264	       1.087599
	 R(11,16)         =         2.052364	       1.086064
	 R(14,17)         =         2.883782	       1.526032
	 R(14,18)         =         2.054802	       1.087355
	 R(14,19)         =         2.055259	       1.087596
	 R(17,20)         =         2.881928	       1.525050
	 R(17,21)         =         2.053395	       1.086610
	 R(17,22)         =         2.053512	       1.086672
	 R(20,23)         =         2.048401	       1.083967
	 R(20,24)         =         2.050251	       1.084946
	 R(20,25)         =         2.050337	       1.084991
	 R(26,27)         =         2.040764	       1.079926
	 R(26,28)         =         2.036968	       1.077917
	 R(26,29)         =         2.040779	       1.079934
	 B(1,2,3)         =         2.192066	     125.596148
	 B(1,2,4)         =         2.149640	     123.165306
	 B(2,3,5)         =         1.980215	     113.457967
	 B(2,3,6)         =         1.864834	     106.847136
	 B(2,3,7)         =         1.869262	     107.100822
	 B(2,4,26)        =         2.047835	     117.332296
	 B(3,2,4)         =         1.941479	     111.238545
	 B(3,5,8)         =         1.986858	     113.838604
	 B(3,5,9)         =         1.907307	     109.280648
	 B(3,5,10)        =         1.894796	     108.563808
	 B(4,26,27)       =         1.931799	     110.683937
	 B(4,26,28)       =         1.850549	     106.028674
	 B(4,26,29)       =         1.931807	     110.684415
	 B(5,3,6)         =         1.955383	     112.035171
	 B(5,3,7)         =         1.938763	     111.082960
	 B(5,8,11)        =         2.008429	     115.074487
	 B(5,8,12)        =         1.885143	     108.010748
	 B(5,8,13)        =         1.909674	     109.416272
	 B(6,3,7)         =         1.847885	     105.876032
	 B(8,5,9)         =         1.916232	     109.792020
	 B(8,5,10)        =         1.904022	     109.092446
	 B(8,11,14)       =         1.972377	     113.008884
	 B(8,11,15)       =         1.904493	     109.119411
	 B(8,11,16)       =         1.922496	     110.150907
	 B(9,5,10)        =         1.849485	     105.967685
	 B(11,8,12)       =         1.895039	     108.577729
	 B(11,8,13)       =         1.908148	     109.328824
	 B(11,14,17)      =         1.980421	     113.469740
	 B(11,14,18)      =         1.907125	     109.270188
	 B(11,14,19)      =         1.907321	     109.281458
	 B(12,8,13)       =         1.850757	     106.040578
	 B(14,11,15)      =         1.906631	     109.241907
	 B(14,11,16)      =         1.898710	     108.788065
	 B(14,17,20)      =         1.974987	     113.158421
	 B(14,17,21)      =         1.907099	     109.268741
	 B(14,17,22)      =         1.907516	     109.292600
	 B(15,11,16)      =         1.855437	     106.308687
	 B(17,14,18)      =         1.905886	     109.199246
	 B(17,14,19)      =         1.905605	     109.183141
	 B(17,20,23)      =         1.941942	     111.265069
	 B(17,20,24)      =         1.939749	     111.139415
	 B(17,20,25)      =         1.939851	     111.145270
	 B(18,14,19)      =         1.853174	     106.179048
	 B(20,17,21)      =         1.908187	     109.331078
	 B(20,17,22)      =         1.907967	     109.318466
	 B(21,17,22)      =         1.854186	     106.237030
	 B(23,20,24)      =         1.880339	     107.735504
	 B(23,20,25)      =         1.880360	     107.736668
	 B(24,20,25)      =         1.878785	     107.646441
	 B(27,26,28)      =         1.923203	     110.191409
	 B(27,26,29)      =         1.903073	     109.038046
	 B(28,26,29)      =         1.923190	     110.190647
	 D(1,2,3,5)       =         0.002905	       0.166455
	 D(1,2,3,6)       =         2.166544	     124.133806
	 D(1,2,3,7)       =        -2.142814	    -122.774223
	 D(1,2,4,26)      =         0.000921	       0.052756
	 D(2,3,5,8)       =        -3.074715	    -176.168177
	 D(2,3,5,9)       =         1.059192	      60.687212
	 D(2,3,5,10)      =        -0.950475	     -54.458233
	 D(2,4,26,27)     =        -1.056797	     -60.549989
	 D(2,4,26,28)     =         3.140832	     179.956439
	 D(2,4,26,29)     =         1.055288	      60.463520
	 D(3,2,4,26)      =        -3.140486	    -179.936598
	 D(3,5,8,11)      =        -1.164223	     -66.705081
	 D(3,5,8,12)      =         2.998986	     171.829243
	 D(3,5,8,13)      =         0.991794	      56.825611
	 D(4,2,3,5)       =        -3.138879	    -179.844504
	 D(4,2,3,6)       =        -0.975240	     -55.877153
	 D(4,2,3,7)       =         0.998587	      57.214818
	 D(5,8,11,14)     =        -3.068577	    -175.816486
	 D(5,8,11,15)     =        -0.943705	     -54.070321
	 D(5,8,11,16)     =         1.086920	      62.275916
	 D(6,3,5,8)       =         1.094963	      62.736767
	 D(6,3,5,9)       =        -1.054316	     -60.407844
	 D(6,3,5,10)      =        -3.063983	    -175.553289
	 D(7,3,5,8)       =        -0.967759	     -55.448485
	 D(7,3,5,9)       =        -3.117038	    -178.593096
	 D(7,3,5,10)      =         1.156481	      66.261459
	 D(8,11,14,17)    =        -3.137258	    -179.751650
	 D(8,11,14,18)    =         1.014656	      58.135517
	 D(8,11,14,19)    =        -1.006205	     -57.651306
	 D(9,5,8,11)      =         0.980180	      56.160171
	 D(9,5,8,12)      =        -1.139796	     -65.305505
	 D(9,5,8,13)      =         3.136197	     179.690863
	 D(10,5,8,11)     =         2.999844	     171.878394
	 D(10,5,8,12)     =         0.879868	      50.412718
	 D(10,5,8,13)     =        -1.127324	     -64.590913
	 D(11,14,17,20)   =        -2.828631	    -162.068647
	*D(11,14,17,21)   =        -0.698132	     -40.000017
	 D(11,14,17,22)   =         1.324035	      75.861634
	 D(12,8,11,14)    =        -0.953979	     -54.658968
	 D(12,8,11,15)    =         1.170892	      67.087197
	 D(12,8,11,16)    =        -3.081668	    -176.566566
	 D(13,8,11,14)    =         1.057782	      60.606461
	 D(13,8,11,15)    =        -3.100532	    -177.647375
	 D(13,8,11,16)    =        -1.069907	     -61.301137
	 D(14,17,20,23)   =        -3.141369	    -179.987190
	 D(14,17,20,24)   =         1.046330	      59.950314
	 D(14,17,20,25)   =        -1.045789	     -59.919278
	 D(15,11,14,17)   =         1.022259	      58.571148
	 D(15,11,14,18)   =        -1.109012	     -63.541685
	 D(15,11,14,19)   =        -3.129873	    -179.328508
	 D(16,11,14,17)   =        -0.996262	     -57.081580
	 D(16,11,14,18)   =        -3.127533	    -179.194413
	 D(16,11,14,19)   =         1.134792	      65.018764
	 D(18,14,17,20)   =        -0.696673	     -39.916404
	 D(18,14,17,21)   =         1.433827	      82.152226
	 D(18,14,17,22)   =        -2.827191	    -161.986123
	 D(19,14,17,20)   =         1.322547	      75.776390
	 D(19,14,17,21)   =        -2.830138	    -162.154980
	 D(19,14,17,22)   =        -0.807971	     -46.293329
	 D(21,17,20,23)   =         1.011925	      57.979046
	 D(21,17,20,24)   =        -1.083561	     -62.083450
	 D(21,17,20,25)   =         3.107506	     178.046958
	 D(22,17,20,23)   =        -1.011103	     -57.931937
	 D(22,17,20,24)   =        -3.106589	    -177.994432
	 D(22,17,20,25)   =         1.084477	      62.135976

	Current energy   :      -501.2238000143

	Generating empirical Hessian (Schlegel '84) for each fragment.
	Taking RFO optimization step.
	Going to follow RFO solution 1.
	Using RFO vector 1.
	Norm of target step-size    0.26137
	Projected energy change by RFO approximation:         0.0006294129

	Back-transformation to cartesian coordinates...
	Could not converge backtransformation.
	Using first guess instead.

	Back-transformation to cartesian coordinates to adjust frozen coordinates...
	Successfully converged to displaced geometry.

	--- Internal Coordinate Step in ANG or DEG, aJ/ANG or AJ/DEG ---
	 ---------------------------------------------------------------------------
	   Coordinate                Previous        Force       Change         New 
	   ----------                --------       ------       ------       ------
	    1 R(1,2)          =      1.183631     0.000045     0.000164     1.183795
	    2 R(2,3)          =      1.507424     0.000277     0.000074     1.507498
	    3 R(2,4)          =      1.323297    -0.000006     0.000181     1.323477
	    4 R(3,5)          =      1.523566     0.000097     0.000200     1.523766
	    5 R(3,6)          =      1.083306     0.000051     0.000209     1.083515
	    6 R(3,7)          =      1.085509     0.000005     0.000195     1.085705
	    7 R(4,26)         =      1.413123     0.000096     0.000016     1.413139
	    8 R(5,8)          =      1.529326     0.000086     0.000034     1.529361
	    9 R(5,9)          =      1.084468     0.000116     0.000215     1.084683
	   10 R(5,10)         =      1.083056     0.000030     0.000199     1.083255
	   11 R(8,11)         =      1.527876    -0.000214     0.000351     1.528228
	   12 R(8,12)         =      1.085893     0.000174     0.000254     1.086148
	   13 R(8,13)         =      1.087787    -0.000011     0.000275     1.088062
	   14 R(11,14)        =      1.526364     0.000252     0.000125     1.526489
	   15 R(11,15)        =      1.087599    -0.001754    -0.000099     1.087500
	   16 R(11,16)        =      1.086064     0.002260     0.000605     1.086669
	   17 R(14,17)        =      1.526032     0.019629     0.004599     1.530631
	   18 R(14,18)        =      1.087355    -0.001487     0.000891     1.088245
	   19 R(14,19)        =      1.087596    -0.002002     0.000924     1.088521
	   20 R(17,20)        =      1.525050     0.000442     0.000619     1.525670
	   21 R(17,21)        =      1.086610    -0.001390     0.000304     1.086914
	   22 R(17,22)        =      1.086672    -0.001789     0.000200     1.086872
	   23 R(20,23)        =      1.083967     0.000537     0.003428     1.087395
	   24 R(20,24)        =      1.084946    -0.001567     0.002701     1.087647
	   25 R(20,25)        =      1.084991     0.001710     0.002394     1.087386
	   26 R(26,27)        =      1.079926     0.000023     0.000184     1.080109
	   27 R(26,28)        =      1.077917     0.000046     0.000189     1.078106
	   28 R(26,29)        =      1.079934     0.000028     0.000195     1.080128
	   29 B(1,2,3)        =    125.596148     0.000002     0.006022   125.602170
	   30 B(1,2,4)        =    123.165306    -0.000005    -0.005143   123.160163
	   31 B(2,3,5)        =    113.457967     0.000001    -0.004925   113.453042
	   32 B(2,3,6)        =    106.847136    -0.000000     0.002283   106.849419
	   33 B(2,3,7)        =    107.100822    -0.000000    -0.000001   107.100821
	   34 B(2,4,26)       =    117.332296    -0.000000    -0.006512   117.325783
	   35 B(3,2,4)        =    111.238545     0.000002    -0.001034   111.237511
	   36 B(3,5,8)        =    113.838604     0.000001    -0.002319   113.836285
	   37 B(3,5,9)        =    109.280648    -0.000000     0.005877   109.286525
	   38 B(3,5,10)       =    108.563808    -0.000000     0.004282   108.568090
	   39 B(4,26,27)      =    110.683937    -0.000000    -0.005057   110.678881
	   40 B(4,26,28)      =    106.028674     0.000001     0.002643   106.031317
	   41 B(4,26,29)      =    110.684415    -0.000000    -0.002528   110.681887
	   42 B(5,3,6)        =    112.035171    -0.000000     0.001928   112.037099
	   43 B(5,3,7)        =    111.082960    -0.000000     0.003406   111.086366
	   44 B(5,8,11)       =    115.074487     0.000001    -0.001238   115.073249
	   45 B(5,8,12)       =    108.010748     0.000003    -0.008006   108.002742
	   46 B(5,8,13)       =    109.416272    -0.000003     0.000688   109.416960
	   47 B(6,3,7)        =    105.876032    -0.000000    -0.002679   105.873352
	   48 B(8,5,9)        =    109.792020    -0.000000    -0.000143   109.791877
	   49 B(8,5,10)       =    109.092446    -0.000001    -0.004207   109.088239
	   50 B(8,11,14)      =    113.008884     0.000010     0.042602   113.051486
	   51 B(8,11,15)      =    109.119411     0.000011     0.060295   109.179706
	   52 B(8,11,16)      =    110.150907    -0.000010    -0.012136   110.138772
	   53 B(9,5,10)       =    105.967685    -0.000000    -0.003598   105.964088
	   54 B(11,8,12)      =    108.577729    -0.000005    -0.043839   108.533890
	   55 B(11,8,13)      =    109.328824     0.000005     0.048962   109.377786
	   56 B(11,14,17)     =    113.469740     0.000015     0.063710   113.533450
	   57 B(11,14,18)     =    109.270188    -0.000037    -0.870951   108.399237
	   58 B(11,14,19)     =    109.281458    -0.000004     0.558842   109.840300
	   59 B(12,8,13)      =    106.040578    -0.000000     0.002355   106.042933
	   60 B(14,11,15)     =    109.241907    -0.000021    -0.164165   109.077743
	   61 B(14,11,16)     =    108.788065     0.000008     0.066630   108.854695
	   62 B(14,17,20)     =    113.158421     0.000040     0.461030   113.619451
	   63 B(14,17,21)     =    109.268741     0.000007     0.462854   109.731595
	   64 B(14,17,22)     =    109.292600    -0.000012    -0.539048   108.753552
	   65 B(15,11,16)     =    106.308687     0.000001     0.002443   106.311130
	   66 B(17,14,18)     =    109.199246     0.000027    -0.118240   109.081006
	   67 B(17,14,19)     =    109.183141     0.000004     0.475263   109.658405
	   68 B(17,20,23)     =    111.265069     0.000009     0.080987   111.346056
	   69 B(17,20,24)     =    111.139415    -0.000030    -0.190315   110.949101
	   70 B(17,20,25)     =    111.145270     0.000017    -0.065505   111.079765
	   71 B(18,14,19)     =    106.179048    -0.000006    -0.133514   106.045534
	   72 B(20,17,21)     =    109.331078     0.000017     0.948531   110.279609
	   73 B(20,17,22)     =    109.318466    -0.000031    -0.403469   108.914997
	   74 B(21,17,22)     =    106.237030    -0.000025    -1.054613   105.182417
	   75 B(23,20,24)     =    107.735504     0.000013     0.084558   107.820062
	   76 B(23,20,25)     =    107.736668    -0.000011     0.011677   107.748345
	   77 B(24,20,25)     =    107.646441     0.000004     0.088866   107.735307
	   78 B(27,26,28)     =    110.191409    -0.000000     0.002154   110.193563
	   79 B(27,26,29)     =    109.038046    -0.000000     0.001037   109.039084
	   80 B(28,26,29)     =    110.190647    -0.000000     0.001788   110.192435
	   81 D(1,2,3,5)      =      0.166455    -0.000000    -0.102800     0.063655
	   82 D(1,2,3,6)      =    124.133806    -0.000000    -0.101923   124.031883
	   83 D(1,2,3,7)      =   -122.774223    -0.000000    -0.103927  -122.878150
	   84 D(1,2,4,26)     =      0.052756     0.000000     0.072738     0.125494
	   85 D(2,3,5,8)      =   -176.168177     0.000000     0.002054  -176.166123
	   86 D(2,3,5,9)      =     60.687212    -0.000000    -0.000566    60.686646
	   87 D(2,3,5,10)     =    -54.458233     0.000000    -0.001772   -54.460005
	   88 D(2,4,26,27)    =    -60.549989     0.000000     0.007661   -60.542328
	   89 D(2,4,26,28)    =    179.956439     0.000000     0.006251   179.962690
	   90 D(2,4,26,29)    =     60.463520    -0.000000     0.003906    60.467426
	   91 D(3,2,4,26)     =   -179.936598    -0.000000    -0.074285  -180.010884
	   92 D(3,5,8,11)     =    -66.705081    -0.000001    -0.292369   -66.997451
	   93 D(3,5,8,12)     =    171.829243     0.000000    -0.229017   171.600225
	   94 D(3,5,8,13)     =     56.825611     0.000000    -0.227833    56.597778
	   95 D(4,2,3,5)      =   -179.844504     0.000000     0.048574  -179.795930
	   96 D(4,2,3,6)      =    -55.877153     0.000000     0.049451   -55.827702
	   97 D(4,2,3,7)      =     57.214818     0.000000     0.047446    57.262264
	   98 D(5,8,11,14)    =   -175.816486     0.000002     0.493090  -175.323396
	   99 D(5,8,11,15)    =    -54.070321    -0.000001     0.355089   -53.715232
	  100 D(5,8,11,16)    =     62.275916    -0.000000     0.386192    62.662108
	  101 D(6,3,5,8)      =     62.736767    -0.000000     0.001221    62.737988
	  102 D(6,3,5,9)      =    -60.407844    -0.000000    -0.001398   -60.409243
	  103 D(6,3,5,10)     =   -175.553289    -0.000000    -0.002604  -175.555893
	  104 D(7,3,5,8)      =    -55.448485     0.000000     0.001073   -55.447412
	  105 D(7,3,5,9)      =   -178.593096    -0.000000    -0.001547  -178.594643
	  106 D(7,3,5,10)     =     66.261459     0.000000    -0.002753    66.258706
	  107 D(8,11,14,17)   =   -179.751650     0.000003     2.790884  -176.960766
	  108 D(8,11,14,18)   =     58.135517    -0.000001     3.528695    61.664212
	  109 D(8,11,14,19)   =    -57.651306     0.000006     3.867252   -53.784054
	  110 D(9,5,8,11)     =     56.160171    -0.000001    -0.286460    55.873711
	  111 D(9,5,8,12)     =    -65.305505     0.000000    -0.223108   -65.528613
	  112 D(9,5,8,13)     =    179.690863     0.000000    -0.221924   179.468940
	  113 D(10,5,8,11)    =    171.878394    -0.000001    -0.293239   171.585155
	  114 D(10,5,8,12)    =     50.412718     0.000000    -0.229887    50.182831
	  115 D(10,5,8,13)    =    -64.590913     0.000000    -0.228703   -64.819616
	  116 D(11,14,17,20)  =   -162.068647    -0.000012    -1.899778  -163.968424
	  117 *D(11,14,17,21) =    -40.000017    -0.000000    -0.000000   -40.000017
	  118 D(11,14,17,22)  =     75.861634    -0.000008    -1.304106    74.557528
	  119 D(12,8,11,14)   =    -54.658968     0.000002     0.449042   -54.209926
	  120 D(12,8,11,15)   =     67.087197    -0.000001     0.311042    67.398238
	  121 D(12,8,11,16)   =   -176.566566    -0.000000     0.342144  -176.224422
	  122 D(13,8,11,14)   =     60.606461     0.000002     0.454159    61.060619
	  123 D(13,8,11,15)   =   -177.647375    -0.000001     0.316158  -177.331216
	  124 D(13,8,11,16)   =    -61.301137    -0.000000     0.347261   -60.953877
	  125 D(14,17,20,23)  =   -179.987190     0.000006     3.504329  -176.482862
	  126 D(14,17,20,24)  =     59.950314     0.000006     3.471195    63.421509
	  127 D(14,17,20,25)  =    -59.919278     0.000007     3.529376   -56.389902
	  128 D(15,11,14,17)  =     58.571148     0.000001     2.802519    61.373667
	  129 D(15,11,14,18)  =    -63.541685    -0.000003     3.540331   -60.001355
	  130 D(15,11,14,19)  =   -179.328508     0.000004     3.878887  -175.449621
	  131 D(16,11,14,17)  =    -57.081580     0.000003     2.852462   -54.229118
	  132 D(16,11,14,18)  =   -179.194413    -0.000001     3.590274  -175.604139
	  133 D(16,11,14,19)  =     65.018764     0.000005     3.928830    68.947594
	  134 D(18,14,17,20)  =    -39.916404    -0.000016    -3.059162   -42.975566
	  135 D(18,14,17,21)  =     82.152226    -0.000004    -1.159385    80.992841
	  136 D(18,14,17,22)  =   -161.986123    -0.000012    -2.463491  -164.449614
	  137 D(19,14,17,20)  =     75.776390    -0.000014    -3.021221    72.755169
	  138 D(19,14,17,21)  =   -162.154980    -0.000002    -1.121443  -163.276424
	  139 D(19,14,17,22)  =    -46.293329    -0.000009    -2.425550   -48.718879
	  140 D(21,17,20,23)  =     57.979046    -0.000005     1.867509    59.846555
	  141 D(21,17,20,24)  =    -62.083450    -0.000005     1.834376   -60.249074
	  142 D(21,17,20,25)  =    178.046958    -0.000004     1.892556   179.939515
	  143 D(22,17,20,23)  =    -57.931937     0.000004     2.833009   -55.098928
	  144 D(22,17,20,24)  =   -177.994432     0.000003     2.799876  -175.194556
	  145 D(22,17,20,25)  =     62.135976     0.000004     2.858057    64.994033
	 ---------------------------------------------------------------------------
	Successfully symmetrized geometry.

  ==> Convergence Check <==

  Measures of convergence in internal coordinates in au.
  Criteria marked as inactive (o), active & met (*), and active & unmet ( ).
  --------------------------------------------------------------------------------------------- ~
   Step     Total Energy     Delta E     MAX Force     RMS Force      MAX Disp      RMS Disp    ~
  --------------------------------------------------------------------------------------------- ~
    Convergence Criteria    1.00e-06 *    3.00e-04 *             o    1.20e-03 *             o  ~
  --------------------------------------------------------------------------------------------- ~
      1    -501.22380001   -5.01e+02      2.38e-03      2.84e-04 o    6.86e-02      2.17e-02 o  ~
  ---------------------------------------------------------------------------------------------

	Writing optimization data to binary file.
	Structure for next step:
	Cartesian Geometry (in Angstrom)
	    O     3.2287905226   0.9416792799  -0.5548960569
	    C     2.7025151546   0.0330965217  -0.0081941022
	    C     1.2482745798  -0.0322766332   0.3835473554
	    O     3.3418635467  -1.0735048930   0.3356939973
	    C     0.4617144492   1.2169404524   0.0058672231
	    H     0.8391920592  -0.9244908676  -0.0753753934
	    H     1.2136842056  -0.2066997658   1.4545909480
	    C    -0.9918415305   1.1992720797   0.4810588113
	    H     0.4947563834   1.3494178554  -1.0701884059
	    H     0.9618917091   2.0801984600   0.4278265760
	    C    -1.8800907594   0.1526605409  -0.1905788187
	    H    -1.4169219551   2.1818212474   0.2976994835
	    H    -1.0181534673   1.0567297104   1.5594220697
	    C    -3.3433148588   0.2496702875   0.2333707076
	    H    -1.8143704955   0.2678650193  -1.2699607465
	    H    -1.5153305293  -0.8463581765   0.0324929840
	    C    -4.2295943513  -0.8395030693  -0.3757600615
	    H    -3.7231840565   1.2251025168  -0.0641336101
	    H    -3.4163947113   0.2166388727   1.3189329895
	    C    -5.7219577844  -0.5366671293  -0.2818984375
	    H    -3.9439179760  -1.0088564912  -1.4106947744
	    H    -4.0280472076  -1.7788218612   0.1325210684
	    H    -6.3179652946  -1.3597655651  -0.6688260036
	    H    -5.9746157559   0.3542047982  -0.8524141165
	    H    -6.0222957670  -0.3659627432   0.7491516965
	    C     4.7188266626  -1.1496403001   0.0272499783
	    H     4.8758505420  -1.0714965989  -1.0385234425
	    H     5.0508231587  -2.1117679801   0.3827801646
	    H     5.2649463625  -0.3603464016   0.5226750173
			--------------------------
			 OPTKING Finished Execution 
			--------------------------

    Structure for next step:
    Molecular point group: c1
    Full point group: C1

    Geometry (in Angstrom), charge = 0, multiplicity = 1:

    O            3.228657458865     0.941038589504    -0.556294641092
    C            2.702382090852     0.032455831310    -0.009592686483
    C            1.248141516043    -0.032917323663     0.382148771154
    O            3.341730482965    -1.074145583471     0.334295413015
    C            0.461581385471     1.216299761939     0.004468638909
    H            0.839058995480    -0.925131558052    -0.076773977600
    H            1.213551141885    -0.207340456242     1.453192363792
    C           -0.991974594221     1.198631389321     0.479660227072
    H            0.494623319702     1.348777165018    -1.071586990140
    H            0.961758645340     2.079557769626     0.426427991724
    C           -1.880223823098     0.152019850446    -0.191977402899
    H           -1.417055018849     2.181180556935     0.296300899259
    H           -1.018286531076     1.056089019992     1.558023485426
    C           -3.343447922563     0.249029597074     0.231972123374
    H           -1.814503559258     0.267224328874    -1.271359330700
    H           -1.515463593002    -0.846998866890     0.031094399722
    C           -4.229727414995    -0.840143759769    -0.377158645708
    H           -3.723317120198     1.224461826386    -0.065532194310
    H           -3.416527775015     0.215998182302     1.317534405296
    C           -5.722090848135    -0.537307819769    -0.283297021785
    H           -3.944051039721    -1.009497181659    -1.412093358627
    H           -4.028180271348    -1.779462551667     0.131122484198
    H           -6.318098358335    -1.360406255479    -0.670224587872
    H           -5.974748819611     0.353564107800    -0.853812700714
    H           -6.022428830743    -0.366603433638     0.747753112279
    C            4.718693598825    -1.150280990509     0.025851394015
    H            4.875717478283    -1.072137289276    -1.039922026694
    H            5.050690094972    -2.112408670534     0.381381580336
    H            5.264813298745    -0.360987092026     0.521276433056

gradient() will perform analytic gradient computation.

*** tstart() called on cx1-27-3-2
*** at Sat Sep 10 16:57:51 2016


         ---------------------------------------------------------
                                   SCF
            by Justin Turney, Rob Parrish, and Andy Simmonett
                              RHF Reference
                        4 Threads,   2000 MiB Core
         ---------------------------------------------------------

  ==> Geometry <==

    Molecular point group: c1
    Full point group: C1

    Geometry (in Angstrom), charge = 0, multiplicity = 1:

       Center              X                  Y                   Z               Mass       
    ------------   -----------------  -----------------  -----------------  -----------------
           O          3.228657458865     0.941038589504    -0.556294641092    15.994914619560
           C          2.702382090852     0.032455831310    -0.009592686483    12.000000000000
           C          1.248141516043    -0.032917323663     0.382148771154    12.000000000000
           O          3.341730482965    -1.074145583471     0.334295413015    15.994914619560
           C          0.461581385471     1.216299761939     0.004468638909    12.000000000000
           H          0.839058995480    -0.925131558052    -0.076773977600     1.007825032070
           H          1.213551141885    -0.207340456242     1.453192363792     1.007825032070
           C         -0.991974594221     1.198631389321     0.479660227072    12.000000000000
           H          0.494623319702     1.348777165018    -1.071586990140     1.007825032070
           H          0.961758645340     2.079557769626     0.426427991724     1.007825032070
           C         -1.880223823098     0.152019850446    -0.191977402899    12.000000000000
           H         -1.417055018849     2.181180556935     0.296300899259     1.007825032070
           H         -1.018286531076     1.056089019992     1.558023485426     1.007825032070
           C         -3.343447922563     0.249029597074     0.231972123374    12.000000000000
           H         -1.814503559258     0.267224328874    -1.271359330700     1.007825032070
           H         -1.515463593002    -0.846998866890     0.031094399722     1.007825032070
           C         -4.229727414995    -0.840143759769    -0.377158645708    12.000000000000
           H         -3.723317120198     1.224461826386    -0.065532194310     1.007825032070
           H         -3.416527775015     0.215998182302     1.317534405296     1.007825032070
           C         -5.722090848135    -0.537307819769    -0.283297021785    12.000000000000
           H         -3.944051039721    -1.009497181659    -1.412093358627     1.007825032070
           H         -4.028180271348    -1.779462551667     0.131122484198     1.007825032070
           H         -6.318098358335    -1.360406255479    -0.670224587872     1.007825032070
           H         -5.974748819611     0.353564107800    -0.853812700714     1.007825032070
           H         -6.022428830743    -0.366603433638     0.747753112279     1.007825032070
           C          4.718693598825    -1.150280990509     0.025851394015    12.000000000000
           H          4.875717478283    -1.072137289276    -1.039922026694     1.007825032070
           H          5.050690094972    -2.112408670534     0.381381580336     1.007825032070
           H          5.264813298745    -0.360987092026     0.521276433056     1.007825032070

  Running in c1 symmetry.

  Rotational constants: A =      0.11026  B =      0.00933  C =      0.00886 [cm^-1]
  Rotational constants: A =   3305.62714  B =    279.59928  C =    265.68702 [MHz]
  Nuclear repulsion =  610.884874200822765

  Charge       = 0
  Multiplicity = 1
  Electrons    = 88
  Nalpha       = 44
  Nbeta        = 44

  ==> Algorithm <==

  SCF Algorithm Type is DF.
  DIIS enabled.
  MOM disabled.
  Fractional occupation disabled.
  Guess Type is READ.
  Energy threshold   = 1.00e-08
  Density threshold  = 1.00e-08
  Integral threshold = 0.00e+00

  ==> Primary Basis <==

  Basis Set: CC-PVTZ
    Number of shells: 218
    Number of basis function: 582
    Number of Cartesian functions: 655
    Spherical Harmonics?: true
    Max angular momentum: 3

  ==> Pre-Iterations <==

   -------------------------------------------------------
    Irrep   Nso     Nmo     Nalpha   Nbeta   Ndocc  Nsocc
   -------------------------------------------------------
     A        582     582       0       0       0       0
   -------------------------------------------------------
    Total     582     582      44      44      44       0
   -------------------------------------------------------

  ==> Integral Setup <==

  ==> DFJK: Density-Fitted J/K Matrices <==

    J tasked:                  Yes
    K tasked:                  Yes
    wK tasked:                  No
    OpenMP threads:              4
    Integrals threads:           4
    Memory (MB):              1430
    Algorithm:                Core
    Integral Cache:           NONE
    Schwarz Cutoff:          1E-12
    Fitting Condition:       1E-12

   => Auxiliary Basis Set <=

  Basis Set: 
    Number of shells: 455
    Number of basis function: 1409
    Number of Cartesian functions: 1686
    Spherical Harmonics?: true
    Max angular momentum: 4

  Minimum eigenvalue in the overlap matrix is 2.0077686732E-04.
  Using Symmetric Orthogonalization.
  SCF Guess: Reading in previously saved MOs, projecting if necessary.

  Using orbitals from previous SCF, no projection.
  Recomputing DOCC and SOCC from number of alpha and beta electrons from previous calculation.
              A 
    DOCC [    44 ]

  ==> Iterations <==

                           Total Energy        Delta E     RMS |[F,P]|

   @DF-RHF iter   0:  -501.21023305701453   -5.01210e+02   1.45328e-04 
   @DF-RHF iter   1:  -501.22359343104301   -1.33604e-02   2.88476e-05 
   @DF-RHF iter   2:  -501.22385483598862   -2.61405e-04   9.84199e-06 DIIS
   @DF-RHF iter   3:  -501.22389377394973   -3.89380e-05   2.88162e-06 DIIS
   @DF-RHF iter   4:  -501.22389592022853   -2.14628e-06   7.09265e-07 DIIS
   @DF-RHF iter   5:  -501.22389616394469   -2.43716e-07   2.71672e-07 DIIS
   @DF-RHF iter   6:  -501.22389619013472   -2.61900e-08   1.30529e-07 DIIS
   @DF-RHF iter   7:  -501.22389619821240   -8.07768e-09   5.10820e-08 DIIS
   @DF-RHF iter   8:  -501.22389619961029   -1.39789e-09   1.95206e-08 DIIS
   @DF-RHF iter   9:  -501.22389619983062   -2.20325e-10   6.42639e-09 DIIS

  ==> Post-Iterations <==

    Orbital Energies (a.u.)
    -----------------------

    Doubly Occupied:                                                      

       1A    -20.596021     2A    -20.533898     3A    -11.364340  
       4A    -11.278317     5A    -11.233054     6A    -11.217204  
       7A    -11.215707     8A    -11.214318     9A    -11.214044  
      10A    -11.212801    11A    -11.208613    12A     -1.471808  
      13A     -1.365431    14A     -1.099054    15A     -1.067287  
      16A     -1.020284    17A     -0.978042    18A     -0.929007  
      19A     -0.861897    20A     -0.800021    21A     -0.790948  
      22A     -0.765695    23A     -0.702854    24A     -0.685398  
      25A     -0.676080    26A     -0.649251    27A     -0.630573  
      28A     -0.605152    29A     -0.596048    30A     -0.581818  
      31A     -0.567873    32A     -0.550707    33A     -0.531876  
      34A     -0.530776    35A     -0.517262    36A     -0.514727  
      37A     -0.495831    38A     -0.478432    39A     -0.470413  
      40A     -0.463020    41A     -0.459832    42A     -0.457153  
      43A     -0.443811    44A     -0.437501  

    Virtual:                                                              

      45A      0.138657    46A      0.145896    47A      0.156448  
      48A      0.160292    49A      0.162849    50A      0.179466  
      51A      0.188103    52A      0.192124    53A      0.202375  
      54A      0.212151    55A      0.219464    56A      0.223802  
      57A      0.228987    58A      0.235134    59A      0.244565  
      60A      0.251763    61A      0.259273    62A      0.264819  
      63A      0.273042    64A      0.282969    65A      0.316000  
      66A      0.332031    67A      0.351161    68A      0.351878  
      69A      0.365070    70A      0.372983    71A      0.378165  
      72A      0.383806    73A      0.390978    74A      0.407647  
      75A      0.410859    76A      0.428553    77A      0.436017  
      78A      0.454395    79A      0.459045    80A      0.474056  
      81A      0.477778    82A      0.483627    83A      0.504146  
      84A      0.515789    85A      0.529564    86A      0.540503  
      87A      0.548159    88A      0.561878    89A      0.564592  
      90A      0.566742    91A      0.580286    92A      0.590911  
      93A      0.601152    94A      0.605657    95A      0.618464  
      96A      0.622998    97A      0.626744    98A      0.629624  
      99A      0.635001   100A      0.638298   101A      0.639767  
     102A      0.648784   103A      0.652825   104A      0.657061  
     105A      0.662486   106A      0.665530   107A      0.670404  
     108A      0.679860   109A      0.687513   110A      0.689958  
     111A      0.699833   112A      0.717428   113A      0.723868  
     114A      0.725302   115A      0.730593   116A      0.739937  
     117A      0.760996   118A      0.767863   119A      0.775351  
     120A      0.782083   121A      0.808692   122A      0.828707  
     123A      0.837187   124A      0.850646   125A      0.863536  
     126A      0.865640   127A      0.879592   128A      0.890271  
     129A      0.900725   130A      0.908359   131A      0.926033  
     132A      0.937627   133A      0.956961   134A      0.973570  
     135A      0.979746   136A      0.989763   137A      0.998424  
     138A      0.999864   139A      1.013210   140A      1.018954  
     141A      1.040744   142A      1.054152   143A      1.066565  
     144A      1.079926   145A      1.081847   146A      1.096028  
     147A      1.111793   148A      1.117444   149A      1.124470  
     150A      1.135119   151A      1.149080   152A      1.167806  
     153A      1.172484   154A      1.180426   155A      1.191568  
     156A      1.213750   157A      1.228587   158A      1.239061  
     159A      1.244761   160A      1.259252   161A      1.264013  
     162A      1.272050   163A      1.283526   164A      1.286203  
     165A      1.298439   166A      1.303067   167A      1.312324  
     168A      1.314428   169A      1.328755   170A      1.330656  
     171A      1.336604   172A      1.341406   173A      1.353875  
     174A      1.365586   175A      1.384249   176A      1.386059  
     177A      1.390107   178A      1.397841   179A      1.418733  
     180A      1.428360   181A      1.431587   182A      1.443930  
     183A      1.446967   184A      1.451995   185A      1.465532  
     186A      1.472664   187A      1.485818   188A      1.494175  
     189A      1.498974   190A      1.504072   191A      1.511373  
     192A      1.517557   193A      1.525012   194A      1.530749  
     195A      1.531495   196A      1.536623   197A      1.546893  
     198A      1.555667   199A      1.565399   200A      1.574593  
     201A      1.589510   202A      1.597970   203A      1.613531  
     204A      1.624695   205A      1.634446   206A      1.638343  
     207A      1.643628   208A      1.650748   209A      1.683354  
     210A      1.699812   211A      1.711690   212A      1.728431  
     213A      1.740053   214A      1.749501   215A      1.757269  
     216A      1.767020   217A      1.779338   218A      1.796110  
     219A      1.807196   220A      1.822915   221A      1.829946  
     222A      1.833949   223A      1.841456   224A      1.843590  
     225A      1.847303   226A      1.880908   227A      1.888809  
     228A      1.905954   229A      1.932427   230A      1.954070  
     231A      1.964270   232A      2.012774   233A      2.022551  
     234A      2.050530   235A      2.081765   236A      2.095936  
     237A      2.155500   238A      2.259403   239A      2.304889  
     240A      2.333371   241A      2.342452   242A      2.453666  
     243A      2.474959   244A      2.495931   245A      2.521726  
     246A      2.533040   247A      2.555225   248A      2.601058  
     249A      2.614851   250A      2.624712   251A      2.647371  
     252A      2.668772   253A      2.671496   254A      2.687696  
     255A      2.700090   256A      2.713594   257A      2.719774  
     258A      2.737141   259A      2.751316   260A      2.774002  
     261A      2.793776   262A      2.799560   263A      2.813033  
     264A      2.815601   265A      2.828644   266A      2.835894  
     267A      2.852516   268A      2.858318   269A      2.878985  
     270A      2.896514   271A      2.913632   272A      2.915791  
     273A      2.924773   274A      2.948845   275A      2.956027  
     276A      2.962414   277A      2.975334   278A      2.980638  
     279A      2.995289   280A      3.005069   281A      3.021216  
     282A      3.024181   283A      3.029279   284A      3.037692  
     285A      3.040965   286A      3.066614   287A      3.072142  
     288A      3.074357   289A      3.097269   290A      3.102001  
     291A      3.116921   292A      3.133059   293A      3.139937  
     294A      3.143477   295A      3.151793   296A      3.174020  
     297A      3.186582   298A      3.201667   299A      3.217282  
     300A      3.241964   301A      3.253666   302A      3.262947  
     303A      3.268719   304A      3.272102   305A      3.280023  
     306A      3.286998   307A      3.297906   308A      3.318016  
     309A      3.323006   310A      3.336640   311A      3.339257  
     312A      3.344759   313A      3.356219   314A      3.366526  
     315A      3.374140   316A      3.381339   317A      3.388592  
     318A      3.395106   319A      3.404063   320A      3.413351  
     321A      3.417547   322A      3.426089   323A      3.431431  
     324A      3.434623   325A      3.451476   326A      3.456855  
     327A      3.461362   328A      3.473981   329A      3.475181  
     330A      3.479728   331A      3.485205   332A      3.493616  
     333A      3.498243   334A      3.511971   335A      3.516864  
     336A      3.528860   337A      3.534429   338A      3.545846  
     339A      3.561016   340A      3.571682   341A      3.577669  
     342A      3.586152   343A      3.591229   344A      3.600085  
     345A      3.605686   346A      3.626359   347A      3.628962  
     348A      3.638066   349A      3.646707   350A      3.662439  
     351A      3.675109   352A      3.679906   353A      3.684984  
     354A      3.703531   355A      3.722320   356A      3.740397  
     357A      3.747799   358A      3.757351   359A      3.764301  
     360A      3.769495   361A      3.791393   362A      3.798888  
     363A      3.822092   364A      3.828907   365A      3.833900  
     366A      3.846135   367A      3.855940   368A      3.864639  
     369A      3.866817   370A      3.871937   371A      3.882755  
     372A      3.893058   373A      3.920379   374A      3.932351  
     375A      3.940489   376A      3.944370   377A      3.953760  
     378A      3.956500   379A      3.974530   380A      3.980960  
     381A      4.000689   382A      4.008911   383A      4.028786  
     384A      4.048315   385A      4.072535   386A      4.074084  
     387A      4.079444   388A      4.095713   389A      4.105663  
     390A      4.109802   391A      4.114959   392A      4.128599  
     393A      4.140606   394A      4.155098   395A      4.165917  
     396A      4.169509   397A      4.172149   398A      4.174512  
     399A      4.183252   400A      4.191096   401A      4.194758  
     402A      4.201571   403A      4.204535   404A      4.223178  
     405A      4.234700   406A      4.240207   407A      4.247458  
     408A      4.255029   409A      4.276669   410A      4.285010  
     411A      4.289233   412A      4.328237   413A      4.331380  
     414A      4.337372   415A      4.348966   416A      4.358043  
     417A      4.368812   418A      4.374521   419A      4.388608  
     420A      4.389175   421A      4.394439   422A      4.399343  
     423A      4.408423   424A      4.417735   425A      4.421591  
     426A      4.434754   427A      4.449392   428A      4.454642  
     429A      4.467354   430A      4.478977   431A      4.496764  
     432A      4.502035   433A      4.518023   434A      4.539572  
     435A      4.544504   436A      4.548321   437A      4.556465  
     438A      4.572363   439A      4.586334   440A      4.593667  
     441A      4.600283   442A      4.613380   443A      4.618722  
     444A      4.631026   445A      4.641308   446A      4.653875  
     447A      4.663607   448A      4.680276   449A      4.688145  
     450A      4.695138   451A      4.697566   452A      4.717450  
     453A      4.729834   454A      4.735951   455A      4.764097  
     456A      4.768394   457A      4.777649   458A      4.786745  
     459A      4.806530   460A      4.823260   461A      4.846122  
     462A      4.866708   463A      4.906581   464A      4.929731  
     465A      4.969276   466A      4.987657   467A      5.002892  
     468A      5.013034   469A      5.019056   470A      5.035916  
     471A      5.051904   472A      5.058589   473A      5.074051  
     474A      5.086843   475A      5.092926   476A      5.117023  
     477A      5.127001   478A      5.139177   479A      5.170672  
     480A      5.182799   481A      5.192928   482A      5.198667  
     483A      5.227901   484A      5.237874   485A      5.256231  
     486A      5.275145   487A      5.291318   488A      5.297639  
     489A      5.301811   490A      5.317540   491A      5.331414  
     492A      5.345081   493A      5.360340   494A      5.367205  
     495A      5.373257   496A      5.394125   497A      5.402000  
     498A      5.428861   499A      5.433497   500A      5.456374  
     501A      5.467398   502A      5.493472   503A      5.495233  
     504A      5.502813   505A      5.533064   506A      5.555792  
     507A      5.581782   508A      5.588863   509A      5.603856  
     510A      5.611751   511A      5.612212   512A      5.632585  
     513A      5.642102   514A      5.666730   515A      5.669583  
     516A      5.689812   517A      5.736483   518A      5.740065  
     519A      5.750338   520A      5.761258   521A      5.812839  
     522A      5.820564   523A      5.823982   524A      5.850334  
     525A      5.857390   526A      5.872874   527A      5.881659  
     528A      5.889114   529A      5.899389   530A      5.909707  
[...]
	    4 R(3,5)          =      1.523577     0.000043     0.000006     1.523583
	    5 R(3,6)          =      1.083333    -0.000050    -0.000003     1.083330
	    6 R(3,7)          =      1.085499     0.000018     0.000001     1.085500
	    7 R(4,26)         =      1.413119     0.000073     0.000005     1.413124
	    8 R(5,8)          =      1.529299     0.000176     0.000022     1.529320
	    9 R(5,9)          =      1.084470     0.000031     0.000004     1.084474
	   10 R(5,10)         =      1.083069    -0.000021    -0.000002     1.083068
	   11 R(8,11)         =      1.527760    -0.000048    -0.000007     1.527753
	   12 R(8,12)         =      1.085988    -0.000004     0.000001     1.085988
	   13 R(8,13)         =      1.087726     0.000041     0.000005     1.087731
	   14 R(11,14)        =      1.526484    -0.000004    -0.000004     1.526479
	   15 R(11,15)        =      1.087232    -0.000061    -0.000008     1.087224
	   16 R(11,16)        =      1.086577    -0.000156    -0.000020     1.086557
	   17 R(14,17)        =      1.528781     0.000127     0.000013     1.528795
	   18 R(14,18)        =      1.087650    -0.000035    -0.000004     1.087646
	   19 R(14,19)        =      1.086886    -0.000036    -0.000005     1.086881
	   20 R(17,20)        =      1.523887     0.000042    -0.000013     1.523874
	   21 R(17,21)        =      1.086407    -0.000050    -0.000001     1.086406
	   22 R(17,22)        =      1.087211    -0.000097    -0.000005     1.087206
	   23 R(20,23)        =      1.083927     0.000182     0.000025     1.083952
	   24 R(20,24)        =      1.084769     0.000126     0.000018     1.084787
	   25 R(20,25)        =      1.085160     0.000127     0.000020     1.085180
	   26 R(26,27)        =      1.079924     0.000036     0.000004     1.079928
	   27 R(26,28)        =      1.077927     0.000001     0.000001     1.077927
	   28 R(26,29)        =      1.079935     0.000026     0.000003     1.079938
	   29 B(1,2,3)        =    125.594347     0.000003     0.001145   125.595491
	   30 B(1,2,4)        =    123.168607    -0.000006    -0.005240   123.163366
	   31 B(2,3,5)        =    113.458170     0.000000     0.001170   113.459340
	   32 B(2,3,6)        =    106.846514    -0.000000    -0.001307   106.845207
	   33 B(2,3,7)        =    107.108552     0.000000     0.001183   107.109735
	   34 B(2,4,26)       =    117.332834    -0.000001    -0.001401   117.331434
	   35 B(3,2,4)        =    111.237045     0.000003     0.004095   111.241140
	   36 B(3,5,8)        =    113.828888     0.000002     0.005088   113.833976
	   37 B(3,5,9)        =    109.278401    -0.000001     0.001618   109.280019
	   38 B(3,5,10)       =    108.574780    -0.000001    -0.004347   108.570433
	   39 B(4,26,27)      =    110.685805    -0.000001    -0.000991   110.684814
	   40 B(4,26,28)      =    106.027419     0.000002     0.003067   106.030486
	   41 B(4,26,29)      =    110.687941    -0.000001    -0.001338   110.686604
	   42 B(5,3,6)        =    112.026147     0.000000     0.000122   112.026269
	   43 B(5,3,7)        =    111.087358    -0.000000    -0.000370   111.086988
	   44 B(5,8,11)       =    115.068916     0.000002     0.004398   115.073314
	   45 B(5,8,12)       =    108.018695    -0.000001    -0.004464   108.014231
	   46 B(5,8,13)       =    109.416771    -0.000000     0.003676   109.420447
	   47 B(6,3,7)        =    105.873658    -0.000000    -0.000918   105.872740
	   48 B(8,5,9)        =    109.790116    -0.000000     0.002351   109.792467
	   49 B(8,5,10)       =    109.096618    -0.000001    -0.003742   109.092876
	   50 B(8,11,14)      =    113.016095     0.000001     0.002182   113.018277
	   51 B(8,11,15)      =    109.194600    -0.000001    -0.002660   109.191941
	   52 B(8,11,16)      =    110.121890     0.000001     0.003112   110.125002
	   53 B(9,5,10)       =    105.967213     0.000000    -0.001534   105.965678
	   54 B(11,8,12)      =    108.573142    -0.000001    -0.005825   108.567317
	   55 B(11,8,13)      =    109.331990    -0.000000     0.002493   109.334483
	   56 B(11,14,17)     =    113.461848     0.000001     0.000819   113.462667
	   57 B(11,14,18)     =    108.518176    -0.000000    -0.005725   108.512451
	   58 B(11,14,19)     =    109.900966    -0.000000     0.004626   109.905592
	   59 B(12,8,13)      =    106.039419     0.000000    -0.000883   106.038536
	   60 B(14,11,15)     =    108.969170    -0.000000    -0.001909   108.967261
	   61 B(14,11,16)     =    109.005886    -0.000001    -0.000899   109.004987
	   62 B(14,17,20)     =    113.510032     0.000000     0.000543   113.510575
	   63 B(14,17,21)     =    109.502907     0.000000     0.000635   109.503542
	   64 B(14,17,22)     =    108.871526    -0.000000    -0.001250   108.870277
	   65 B(15,11,16)     =    106.306427     0.000000    -0.000004   106.306423
	   66 B(17,14,18)     =    109.153469    -0.000000    -0.003705   109.149764
	   67 B(17,14,19)     =    109.448458    -0.000000     0.003965   109.452423
	   68 B(17,20,23)     =    111.300822     0.000001     0.003400   111.304223
	   69 B(17,20,24)     =    111.130928    -0.000000    -0.001297   111.129631
	   70 B(17,20,25)     =    111.074152     0.000000    -0.000341   111.073811
	   71 B(18,14,19)     =    106.086946     0.000000    -0.000214   106.086732
	   72 B(20,17,21)     =    110.230658    -0.000000    -0.001723   110.228934
	   73 B(20,17,22)     =    109.158755     0.000000     0.000376   109.159132
	   74 B(21,17,22)     =    105.226034    -0.000000     0.001493   105.227527
	   75 B(23,20,24)     =    107.810488    -0.000000    -0.000238   107.810249
	   76 B(23,20,25)     =    107.718897    -0.000000    -0.000320   107.718577
	   77 B(24,20,25)     =    107.635481    -0.000000    -0.001321   107.634160
	   78 B(27,26,28)     =    110.189366    -0.000000     0.000812   110.190178
	   79 B(27,26,29)     =    109.037917     0.000000    -0.002727   109.035189
	   80 B(28,26,29)     =    110.188628    -0.000000     0.001355   110.189983
	   81 D(1,2,3,5)      =      0.067457    -0.000000    -0.012961     0.054496
	   82 D(1,2,3,6)      =    124.023002     0.000000    -0.012986   124.010016
	   83 D(1,2,3,7)      =   -122.884469    -0.000000    -0.014097  -122.898567
	   84 D(1,2,4,26)     =      0.056812    -0.000000    -0.001523     0.055289
	   85 D(2,3,5,8)      =   -176.192589     0.000000     0.019699  -176.172890
	   86 D(2,3,5,9)      =     60.673838    -0.000000     0.011823    60.685661
	   87 D(2,3,5,10)     =    -54.475813     0.000000     0.015144   -54.460670
	   88 D(2,4,26,27)    =    -60.546014     0.000000     0.001175   -60.544840
	   89 D(2,4,26,28)    =    179.962597    -0.000000    -0.001090   179.961507
	   90 D(2,4,26,29)    =     60.470931    -0.000000    -0.003817    60.467114
	   91 D(3,2,4,26)     =   -179.958092     0.000000    -0.001968  -179.960060
	   92 D(3,5,8,11)     =    -66.639200    -0.000000    -0.148791   -66.787991
	   93 D(3,5,8,12)     =    171.898820    -0.000000    -0.140876   171.757945
	   94 D(3,5,8,13)     =     56.892002    -0.000000    -0.139341    56.752661
	   95 D(4,2,3,5)      =   -179.917201    -0.000000    -0.012502  -179.929703
	   96 D(4,2,3,6)      =    -55.961656    -0.000000    -0.012528   -55.974183
	   97 D(4,2,3,7)      =     57.130873    -0.000000    -0.013639    57.117234
	   98 D(5,8,11,14)    =   -175.168724     0.000000     0.151507  -175.017217
	   99 D(5,8,11,15)    =    -53.712184     0.000000     0.148639   -53.563545
	  100 D(5,8,11,16)    =     62.658512     0.000000     0.148862    62.807374
	  101 D(6,3,5,8)      =     62.719798     0.000000     0.020466    62.740264
	  102 D(6,3,5,9)      =    -60.413776    -0.000000     0.012590   -60.401185
	  103 D(6,3,5,10)     =   -175.563427     0.000000     0.015911  -175.547516
	  104 D(7,3,5,8)      =    -55.459484     0.000000     0.021791   -55.437693
	  105 D(7,3,5,9)      =   -178.593058    -0.000000     0.013915  -178.579142
	  106 D(7,3,5,10)     =     66.257291     0.000000     0.017236    66.274527
	  107 D(8,11,14,17)   =   -177.984781    -0.000000    -0.038767  -178.023548
	  108 D(8,11,14,18)   =     60.510111    -0.000000    -0.030498    60.479613
	  109 D(8,11,14,19)   =    -55.087087    -0.000000    -0.029546   -55.116633
	  110 D(9,5,8,11)     =     56.214740    -0.000000    -0.141265    56.073475
	  111 D(9,5,8,12)     =    -65.247240     0.000000    -0.133349   -65.380589
	  112 D(9,5,8,13)     =    179.745942     0.000000    -0.131815   179.614127
	  113 D(10,5,8,11)    =    171.933696    -0.000000    -0.143914   171.789782
	  114 D(10,5,8,12)    =     50.471717    -0.000000    -0.135999    50.335718
	  115 D(10,5,8,13)    =    -64.535102     0.000000    -0.134464   -64.669566
	  116 D(11,14,17,20)  =   -163.650880    -0.000000     0.001377  -163.649503
	  117 *D(11,14,17,21) =    -40.000017    -0.000000    -0.000000   -40.000017
	  118 D(11,14,17,22)  =     74.551126    -0.000000     0.001435    74.552561
	  119 D(12,8,11,14)   =    -54.008124     0.000000     0.144332   -53.863792
	  120 D(12,8,11,15)   =     67.448416     0.000000     0.141465    67.589880
	  121 D(12,8,11,16)   =   -176.180888     0.000000     0.141687  -176.039201
	  122 D(13,8,11,14)   =     61.255122     0.000000     0.141439    61.396561
	  123 D(13,8,11,15)   =   -177.288339     0.000000     0.138571  -177.149767
	  124 D(13,8,11,16)   =    -60.917642     0.000000     0.138794   -60.778848
	  125 D(14,17,20,23)  =   -177.739882    -0.000000    -0.027113  -177.766995
	  126 D(14,17,20,24)  =     62.084308    -0.000000    -0.028226    62.056082
	  127 D(14,17,20,25)  =    -57.718347     0.000000    -0.025468   -57.743815
	  128 D(15,11,14,17)  =     60.431524    -0.000000    -0.035475    60.396049
	  129 D(15,11,14,18)  =    -61.073584    -0.000000    -0.027206   -61.100790
	  130 D(15,11,14,19)  =   -176.670782     0.000000    -0.026253  -176.697036
	  131 D(16,11,14,17)  =    -55.189089     0.000000    -0.033935   -55.223024
	  132 D(16,11,14,18)  =   -176.694197     0.000000    -0.025666  -176.719863
	  133 D(16,11,14,19)  =     67.708604     0.000000    -0.024714    67.683890
	  134 D(18,14,17,20)  =    -42.501829    -0.000000    -0.008052   -42.509881
	  135 D(18,14,17,21)  =     81.149035     0.000000    -0.009429    81.139606
	  136 D(18,14,17,22)  =   -164.299823    -0.000000    -0.007994  -164.307817
	  137 D(19,14,17,20)  =     73.202492    -0.000000    -0.008177    73.194315
	  138 D(19,14,17,21)  =   -163.146644    -0.000000    -0.009554  -163.156198
	  139 D(19,14,17,22)  =    -48.595502    -0.000000    -0.008119   -48.603621
	  140 D(21,17,20,23)  =     59.007281    -0.000000    -0.027026    58.980255
	  141 D(21,17,20,24)  =    -61.168529    -0.000000    -0.028139   -61.196668
	  142 D(21,17,20,25)  =    179.028816    -0.000000    -0.025382   179.003434
	  143 D(22,17,20,23)  =    -56.102048    -0.000000    -0.028076   -56.130124
	  144 D(22,17,20,24)  =   -176.277858    -0.000000    -0.029189  -176.307047
	  145 D(22,17,20,25)  =     63.919487    -0.000000    -0.026432    63.893055
	 ---------------------------------------------------------------------------
	Successfully symmetrized geometry.

  ==> Convergence Check <==

  Measures of convergence in internal coordinates in au.
  Criteria marked as inactive (o), active & met (*), and active & unmet ( ).
  ---------------------------------------------------------------------------------------------
   Step     Total Energy     Delta E     MAX Force     RMS Force      MAX Disp      RMS Disp   
  ---------------------------------------------------------------------------------------------
    Convergence Criteria    1.00e-06 *    3.00e-04 *             o    1.20e-03 *             o
  ---------------------------------------------------------------------------------------------
      6    -501.22394333   -1.39e-07 *    8.27e-05 *    1.23e-05 o    2.64e-03      8.93e-04 o  ~
  ---------------------------------------------------------------------------------------------


  **** Optimization is complete! (in 6 steps) ****

  ==> Optimization Summary <==

  Measures of convergence in internal coordinates in au.
  --------------------------------------------------------------------------------------------------------------- ~
   Step         Total Energy             Delta E       MAX Force       RMS Force        MAX Disp        RMS Disp  ~
  --------------------------------------------------------------------------------------------------------------- ~
      1    -501.223800014303   -501.223800014303      0.00238253      0.00028402      0.06857102      0.02167223  ~
      2    -501.223896199831     -0.000096185527      0.00242438      0.00037825      0.02360761      0.00779084  ~
      3    -501.223932791610     -0.000036591779      0.00042986      0.00010144      0.03071572      0.00846544  ~
      4    -501.223755023842      0.000177767768      0.00255653      0.00052238      0.02436554      0.00743039  ~
      5    -501.223943186806     -0.000188162964      0.00016728      0.00002080      0.00543505      0.00145620  ~
      6    -501.223943325812     -0.000000139006      0.00008267      0.00001229      0.00264429      0.00089345  ~
  --------------------------------------------------------------------------------------------------------------- ~

	Writing optimization data to binary file.
	Final energy is   -501.2239433258123
	Final (previous) structure:
	Cartesian Geometry (in Angstrom)
	    O     3.2308826990   0.9388305513  -0.5341994589
	    C     2.7011301133   0.0309964168   0.0100549302
	    C     1.2443925614  -0.0338047851   0.3921634304
	    O     3.3386050514  -1.0739978321   0.3619337912
	    C     0.4604066753   1.2147332819   0.0077101902
	    H     0.8383990705  -0.9263464954  -0.0684323113
	    H     1.2025218897  -0.2069657033   1.4629432137
	    C    -0.9963519997   1.1971605945   0.4727900478
	    H     0.5008402737   1.3457916038  -1.0680520111
	    H     0.9574183525   2.0784602701   0.4319675619
	    C    -1.8772340823   0.1442216942  -0.1975965849
	    H    -1.4221506983   2.1775556262   0.2807215222
	    H    -1.0299515860   1.0609779540   1.5514342292
	    C    -3.3440724002   0.2439679783   0.2129983193
	    H    -1.8042867510   0.2517978260  -1.2770311421
	    H    -1.5116056893  -0.8521812506   0.0350977854
	    C    -4.2264348632  -0.8355449092  -0.4141070185
	    H    -3.7180647383   1.2233395426  -0.0767304506
	    H    -3.4292447797   0.1972223116   1.2955335342
	    C    -5.7159642234  -0.5227418949  -0.3386904138
	    H    -3.9275779627  -0.9937074606  -1.4465551507
	    H    -4.0346410968  -1.7812684083   0.0867418162
	    H    -6.3090373872  -1.3277300535  -0.7572072687
	    H    -5.9534503147   0.3833964926  -0.8857159764
	    H    -6.0329137809  -0.3788936779   0.6891344237
	    C     4.7178928234  -1.1501584523   0.0641593236
	    H     4.8830351267  -1.0751365863  -1.0004232113
	    H     5.0476568597  -2.1108784342   0.4249906349
	    H     5.2597646844  -0.3592791472   0.5612949998
	Saving final (previous) structure.
			--------------------------
			 OPTKING Finished Execution 
			--------------------------

    Final optimized geometry and variables:
    Molecular point group: c1
    Full point group: C1

    Geometry (in Angstrom), charge = 0, multiplicity = 1:

    O            3.230882698958     0.938830551273    -0.534199458895
    C            2.701130113309     0.030996416837     0.010054930175
    C            1.244392561403    -0.033804785065     0.392163430434
    O            3.338605051423    -1.073997832092     0.361933791233
    C            0.460406675318     1.214733281898     0.007710190198
    H            0.838399070509    -0.926346495386    -0.068432311251
    H            1.202521889718    -0.206965703279     1.462943213656
    C           -0.996351999670     1.197160594463     0.472790047796
    H            0.500840273655     1.345791603796    -1.068052011141
    H            0.957418352498     2.078460270053     0.431967561880
    C           -1.877234082302     0.144221694151    -0.197596584916
    H           -1.422150698284     2.177555626200     0.280721522161
    H           -1.029951586038     1.060977954023     1.551434229203
    C           -3.344072400244     0.243967978274     0.212998319326
    H           -1.804286750965     0.251797826031    -1.277031142087
    H           -1.511605689269    -0.852181250600     0.035097785424
    C           -4.226434863222    -0.835544909152    -0.414107018459
    H           -3.718064738259     1.223339542565    -0.076730450597
    H           -3.429244779676     0.197222311608     1.295533534155
    C           -5.715964223361    -0.522741894935    -0.338690413837
    H           -3.927577962667    -0.993707460553    -1.446555150679
    H           -4.034641096810    -1.781268408304     0.086741816155
    H           -6.309037387183    -1.327730053549    -0.757207268733
    H           -5.953450314669     0.383396492620    -0.885715976405
    H           -6.032913780910    -0.378893677939     0.689134423709
    C            4.717892823396    -1.150158452322     0.064159323584
    H            4.883035126707    -1.075136586319    -1.000423211312
    H            5.047656859736    -2.110878434247     0.424990634913
    H            5.259764684432    -0.359279147215     0.561294999822

	Cleaning optimization helper files.


Properties will be evaluated at   0.000000,   0.000000,   0.000000 Bohr

Properties computed using the  density matrix

  Nuclear Dipole Moment: (a.u.)
     X:   -19.1709      Y:    -1.2136      Z:     0.2239

  Electronic Dipole Moment: (a.u.)
     X:    18.9841      Y:     0.5851      Z:     0.0962

  Dipole Moment: (a.u.)
     X:    -0.1868      Y:    -0.6285      Z:     0.3201     Total:     0.7296

  Dipole Moment: (Debye)
     X:    -0.4747      Y:    -1.5975      Z:     0.8135     Total:     1.8545

  Quadrupole Moment: (Debye Ang)
    XX:   -68.4241     YY:   -72.4154     ZZ:   -69.9078
    XY:    -7.6006     XZ:     2.9860     YZ:     1.8696

  Traceless Quadrupole Moment: (Debye Ang)
    XX:     1.8250     YY:    -2.1663     ZZ:     0.3413
    XY:    -7.6006     XZ:     2.9860     YZ:     1.8696

  Mulliken Charges: (a.u.)
   Center  Symbol    Alpha    Beta     Spin     Total
       1     O     4.19699  4.19699  0.00000 -0.39398
       2     C     2.80491  2.80491  0.00000  0.39018
       3     C     3.10163  3.10163  0.00000 -0.20325
       4     O     4.14720  4.14720  0.00000 -0.29440
       5     C     3.09258  3.09258  0.00000 -0.18516
       6     H     0.43901  0.43901  0.00000  0.12198
       7     H     0.43991  0.43991  0.00000  0.12017
       8     C     3.10417  3.10417  0.00000 -0.20835
       9     H     0.44626  0.44626  0.00000  0.10747
      10     H     0.43957  0.43957  0.00000  0.12086
      11     C     3.09310  3.09310  0.00000 -0.18620
      12     H     0.44521  0.44521  0.00000  0.10957
      13     H     0.45363  0.45363  0.00000  0.09274
      14     C     3.08667  3.08667  0.00000 -0.17334
      15     H     0.45268  0.45268  0.00000  0.09464
      16     H     0.45403  0.45403  0.00000  0.09194
      17     C     3.08456  3.08456  0.00000 -0.16911
      18     H     0.45515  0.45515  0.00000  0.08970
      19     H     0.45337  0.45337  0.00000  0.09326
      20     C     3.14936  3.14936  0.00000 -0.29872
      21     H     0.45499  0.45499  0.00000  0.09002
      22     H     0.45455  0.45455  0.00000  0.09090
      23     H     0.44857  0.44857  0.00000  0.10286
      24     H     0.45499  0.45499  0.00000  0.09002
      25     H     0.45493  0.45493  0.00000  0.09014
      26     C     3.03811  3.03811  0.00000 -0.07622
      27     H     0.45435  0.45435  0.00000  0.09129
      28     H     0.44528  0.44528  0.00000  0.10945
      29     H     0.45424  0.45424  0.00000  0.09153

   Total alpha = 44.00000, Total beta = 44.00000, Total charge = -0.00000


*** Psi4 exiting successfully. Buy a developer a beer!
