    -----------------------------------------------------------------------
          Psi4: An Open-Source Ab Initio Electronic Structure Package
                              Psi4 (no tag) Driver

                          Git: Rev {detached?}  

    J. M. Turney, A. C. Simmonett, R. M. Parrish, E. G. Hohenstein,
    F. A. Evangelista, J. T. Fermann, B. J. Mintz, L. A. Burns, J. J. Wilke,
    M. L. Abrams, N. J. Russ, M. L. Leininger, C. L. Janssen, E. T. Seidl,
    W. D. Allen, H. F. Schaefer, R. A. King, E. F. Valeev, C. D. Sherrill,
    and T. D. Crawford, WIREs Comput. Mol. Sci. 2, 556-565 (2012)
    (doi: 10.1002/wcms.93)

                         Additional Contributions by
    A. E. DePrince, M. Saitow, U. Bozkaya, A. Yu. Sokolov
    -----------------------------------------------------------------------


    Psi4 started on: Fri Sep  9 23:12:13 2016

    Process ID:   1511
    PSI4DATADIR: /export131/home/mjharvey/miniconda3/share
    Memory level set to 256.000 MB

  ==> Input File <==

--------------------------------------------------------------------------
set {
	reference rhf
	basis cc-pvtz
}


set_num_threads( 4 )
memory 2 gb

molecule MOL {
0 1

H	 -1.424317	 0.899614	 -2.516309
O	 -1.738318	 1.592067	 -1.962807
C	 -0.870152	 1.764303	 -0.885658
C	 -0.793473	 0.591216	 0.050087
H	 -1.224748	 2.631824	 -0.341626
H	 0.133672	 2.004408	 -1.231179
C	 -1.534243	 -0.493009	 -0.013340
H	 -0.055233	 0.686086	 0.829350
H	 -1.101195	 -1.466332	 -0.144046
H	 -2.604242	 -0.437780	 0.050785

	symmetry c1
}
set optking {
	frozen_dihedral = ("
		3 4 7 9
	")
}

ee = optimize('scf')
oeprop('DIPOLE', 'QUADRUPOLE', 'MULLIKEN_CHARGES')
f=open( 'psi4out.xyz', 'w' )
f.write( "10  " )
f.write( str(ee) + "\n" )
f.write( MOL.save_string_xyz() )
f.close()
--------------------------------------------------------------------------

  Memory set to   2.000 GiB by Python script.
gradient() will perform analytic gradient computation.

*** tstart() called on cx1-27-3-1
*** at Fri Sep  9 23:12:13 2016


         ---------------------------------------------------------
                                   SCF
            by Justin Turney, Rob Parrish, and Andy Simmonett
                              RHF Reference
                        4 Threads,   2000 MiB Core
         ---------------------------------------------------------

  ==> Geometry <==

    Molecular point group: c1
    Full point group: C1

    Geometry (in Angstrom), charge = 0, multiplicity = 1:

       Center              X                  Y                   Z               Mass       
    ------------   -----------------  -----------------  -----------------  -----------------
           H         -0.175152493988     0.000836833164    -1.741676326610     1.007825032070
           O         -0.489153493988     0.693289833164    -1.188174326610    15.994914619560
           C          0.379012506012     0.865525833164    -0.111025326610    12.000000000000
           C          0.455691506012    -0.307561166836     0.824719673390    12.000000000000
           H          0.024416506012     1.733046833164     0.433006673390     1.007825032070
           H          1.382836506012     1.105630833164    -0.456546326610     1.007825032070
           C         -0.285078493988    -1.391786166836     0.761292673390    12.000000000000
           H          1.193931506012    -0.212691166836     1.603982673390     1.007825032070
           H          0.147969506012    -2.365109166836     0.630586673390     1.007825032070
           H         -1.355077493988    -1.336557166836     0.825417673390     1.007825032070

  Running in c1 symmetry.

  Rotational constants: A =      0.56423  B =      0.19655  C =      0.15538 [cm^-1]
  Rotational constants: A =  16915.22738  B =   5892.41212  C =   4658.24616 [MHz]
  Nuclear repulsion =  119.354033163752405

  Charge       = 0
  Multiplicity = 1
  Electrons    = 32
  Nalpha       = 16
  Nbeta        = 16

  ==> Algorithm <==

  SCF Algorithm Type is DF.
  DIIS enabled.
  MOM disabled.
  Fractional occupation disabled.
  Guess Type is CORE.
  Energy threshold   = 1.00e-08
  Density threshold  = 1.00e-08
  Integral threshold = 0.00e+00

  ==> Primary Basis <==

  Basis Set: CC-PVTZ
    Number of shells: 76
    Number of basis function: 204
    Number of Cartesian functions: 230
    Spherical Harmonics?: true
    Max angular momentum: 3

  ==> Pre-Iterations <==

   -------------------------------------------------------
    Irrep   Nso     Nmo     Nalpha   Nbeta   Ndocc  Nsocc
   -------------------------------------------------------
     A        204     204       0       0       0       0
   -------------------------------------------------------
    Total     204     204      16      16      16       0
   -------------------------------------------------------

 OEINTS: Overlap, kinetic, potential, dipole, and quadrupole integrals
         stored in file 35.

  ==> Integral Setup <==

  ==> DFJK: Density-Fitted J/K Matrices <==

    J tasked:                  Yes
    K tasked:                  Yes
    wK tasked:                  No
    OpenMP threads:              4
    Integrals threads:           4
    Memory (MB):              1430
    Algorithm:                Core
    Integral Cache:           NONE
    Schwarz Cutoff:          1E-12
    Fitting Condition:       1E-12

   => Auxiliary Basis Set <=

  Basis Set: 
    Number of shells: 160
    Number of basis function: 496
    Number of Cartesian functions: 594
    Spherical Harmonics?: true
    Max angular momentum: 4

  Minimum eigenvalue in the overlap matrix is 5.2508449431E-04.
  Using Symmetric Orthogonalization.
  SCF Guess: Core (One-Electron) Hamiltonian.

  ==> Iterations <==

                           Total Energy        Delta E     RMS |[F,P]|

   @DF-RHF iter   1:  -142.57720018034925   -1.42577e+02   5.60124e-02 
   @DF-RHF iter   2:  -119.35492710588770    2.32223e+01   3.53975e-02 DIIS
   @DF-RHF iter   3:  -155.88301972577020   -3.65281e+01   2.93102e-02 DIIS
   @DF-RHF iter   4:  -180.52964162561457   -2.46466e+01   2.32751e-02 DIIS
   @DF-RHF iter   5:  -191.19528022378032   -1.06656e+01   6.33179e-03 DIIS
   @DF-RHF iter   6:  -191.83085281834045   -6.35573e-01   2.24384e-03 DIIS
   @DF-RHF iter   7:  -191.91233677469344   -8.14840e-02   3.69538e-04 DIIS
   @DF-RHF iter   8:  -191.91692817466182   -4.59140e-03   1.48100e-04 DIIS
   @DF-RHF iter   9:  -191.91791899124669   -9.90817e-04   7.35677e-05 DIIS
   @DF-RHF iter  10:  -191.91821418969400   -2.95198e-04   3.55545e-05 DIIS
   @DF-RHF iter  11:  -191.91831980250012   -1.05613e-04   1.37664e-05 DIIS
   @DF-RHF iter  12:  -191.91833761001331   -1.78075e-05   3.66970e-06 DIIS
   @DF-RHF iter  13:  -191.91833891311970   -1.30311e-06   1.22597e-06 DIIS
   @DF-RHF iter  14:  -191.91833901304236   -9.99227e-08   2.53996e-07 DIIS
   @DF-RHF iter  15:  -191.91833901718448   -4.14212e-09   6.07485e-08 DIIS
   @DF-RHF iter  16:  -191.91833901746415   -2.79670e-10   1.46559e-08 DIIS
   @DF-RHF iter  17:  -191.91833901748194   -1.77920e-11   4.08588e-09 DIIS

  ==> Post-Iterations <==

    Orbital Energies (a.u.)
    -----------------------

    Doubly Occupied:                                                      

       1A    -20.551968     2A    -11.279849     3A    -11.238573  
       4A    -11.215336     5A     -1.372777     6A     -1.065174  
       7A     -0.932907     8A     -0.773196     9A     -0.691582  
      10A     -0.650832    11A     -0.623406    12A     -0.581125  
      13A     -0.557916    14A     -0.510191    15A     -0.454708  
      16A     -0.305271  

    Virtual:                                                              

      17A      0.101264    18A      0.142457    19A      0.170547  
      20A      0.188344    21A      0.198591    22A      0.218009  
      23A      0.227269    24A      0.312411    25A      0.327764  
      26A      0.370589    27A      0.441916    28A      0.461786  
      29A      0.476084    30A      0.528745    31A      0.529528  
      32A      0.541227    33A      0.558711    34A      0.574807  
      35A      0.595457    36A      0.616281    37A      0.624112  
      38A      0.636902    39A      0.655437    40A      0.662333  
      41A      0.679732    42A      0.710376    43A      0.728477  
      44A      0.737701    45A      0.805587    46A      0.824361  
      47A      0.840611    48A      0.909788    49A      0.952547  
      50A      0.983017    51A      1.005240    52A      1.060901  
      53A      1.089787    54A      1.114881    55A      1.147320  
      56A      1.155412    57A      1.183483    58A      1.229284  
      59A      1.243353    60A      1.281189    61A      1.295400  
      62A      1.306575    63A      1.335805    64A      1.374140  
      65A      1.408131    66A      1.431177    67A      1.444803  
      68A      1.485558    69A      1.512251    70A      1.524859  
      71A      1.553180    72A      1.583130    73A      1.591718  
      74A      1.599311    75A      1.621762    76A      1.690236  
      77A      1.723981    78A      1.736045    79A      1.781173  
      80A      1.893218    81A      1.947648    82A      2.132204  
      83A      2.222571    84A      2.298553    85A      2.344122  
      86A      2.448464    87A      2.464377    88A      2.503103  
      89A      2.567389    90A      2.593252    91A      2.624765  
      92A      2.656002    93A      2.726011    94A      2.749960  
      95A      2.797097    96A      2.818634    97A      2.889054  
      98A      2.909714    99A      2.979688   100A      3.005577  
     101A      3.026988   102A      3.094352   103A      3.099094  
     104A      3.128814   105A      3.171206   106A      3.188211  
     107A      3.204779   108A      3.216633   109A      3.228268  
     110A      3.265212   111A      3.312025   112A      3.325472  
     113A      3.335930   114A      3.343443   115A      3.369946  
     116A      3.394870   117A      3.420524   118A      3.459521  
     119A      3.468005   120A      3.498984   121A      3.528155  
     122A      3.563503   123A      3.593869   124A      3.633068  
     125A      3.714302   126A      3.719504   127A      3.739782  
     128A      3.763521   129A      3.777890   130A      3.799809  
     131A      3.829121   132A      3.852700   133A      3.903751  
     134A      3.934332   135A      3.973534   136A      4.011147  
     137A      4.028393   138A      4.038572   139A      4.091924  
     140A      4.137662   141A      4.167076   142A      4.177403  
     143A      4.185400   144A      4.215291   145A      4.232968  
     146A      4.272332   147A      4.294107   148A      4.330879  
     149A      4.363716   150A      4.380644   151A      4.395337  
     152A      4.415790   153A      4.456188   154A      4.500429  
     155A      4.527066   156A      4.549063   157A      4.584796  
     158A      4.603448   159A      4.658586   160A      4.741020  
     161A      4.744985   162A      4.846474   163A      4.878014  
     164A      4.964439   165A      5.039723   166A      5.106785  
     167A      5.137227   168A      5.142377   169A      5.210041  
     170A      5.227052   171A      5.240533   172A      5.286884  
     173A      5.342713   174A      5.374323   175A      5.414881  
     176A      5.430710   177A      5.479867   178A      5.552700  
     179A      5.617397   180A      5.714794   181A      5.799235  
     182A      5.800961   183A      5.891002   184A      5.906039  
     185A      6.037825   186A      6.119585   187A      6.165297  
     188A      6.245433   189A      6.316080   190A      6.410053  
     191A      6.588438   192A      6.743290   193A      7.063669  
     194A      7.166314   195A      7.247786   196A      7.295240  
     197A      7.420925   198A      7.510485   199A      7.684187  
     200A      8.019435   201A     11.604578   202A     12.716978  
     203A     13.636238   204A     14.975710  

    Final Occupation by Irrep:
              A 
    DOCC [    16 ]

  Energy converged.

  @DF-RHF Final Energy:  -191.91833901748194

   => Energetics <=

    Nuclear Repulsion Energy =            119.3540331637524048
    One-Electron Energy =                -496.9351259740893170
    Two-Electron Energy =                 185.6627537928549714
    DFT Exchange-Correlation Energy =       0.0000000000000000
    Empirical Dispersion Energy =           0.0000000000000000
    PCM Polarization Energy =               0.0000000000000000
    EFP Energy =                            0.0000000000000000
    Total Energy =                       -191.9183390174819692

    Alert: EFP and PCM quantities not currently incorporated into SCF psivars.

Properties will be evaluated at   0.000000,   0.000000,   0.000000 Bohr
  ==> Properties <==


Properties computed using the SCF density matrix

  Nuclear Dipole Moment: (a.u.)
     X:     1.1404      Y:    -1.0043      Z:     1.2081

  Electronic Dipole Moment: (a.u.)
     X:    -0.5679      Y:     0.7990      Z:    -1.1311

  Dipole Moment: (a.u.)
     X:     0.5725      Y:    -0.2053      Z:     0.0770     Total:     0.6130

  Dipole Moment: (Debye)
     X:     1.4551      Y:    -0.5219      Z:     0.1956     Total:     1.5582


  Saving occupied orbitals to File 180.

*** tstop() called on cx1-27-3-1 at Fri Sep  9 23:12:17 2016
Module time:
	user time   =      12.94 seconds =       0.22 minutes
	system time =       0.25 seconds =       0.00 minutes
	total time  =          4 seconds =       0.07 minutes
Total time:
	user time   =      12.94 seconds =       0.22 minutes
	system time =       0.25 seconds =       0.00 minutes
	total time  =          4 seconds =       0.07 minutes

*** tstart() called on cx1-27-3-1
*** at Fri Sep  9 23:12:17 2016


         ------------------------------------------------------------
                                   SCF GRAD                          
                          Rob Parrish, Justin Turney,                
                       Andy Simmonett, and Alex Sokolov              
         ------------------------------------------------------------

  ==> Geometry <==

    Molecular point group: c1
    Full point group: C1

    Geometry (in Angstrom), charge = 0, multiplicity = 1:

       Center              X                  Y                   Z               Mass       
    ------------   -----------------  -----------------  -----------------  -----------------
           H         -0.175152493988     0.000836833164    -1.741676326610     1.007825032070
           O         -0.489153493988     0.693289833164    -1.188174326610    15.994914619560
           C          0.379012506012     0.865525833164    -0.111025326610    12.000000000000
           C          0.455691506012    -0.307561166836     0.824719673390    12.000000000000
           H          0.024416506012     1.733046833164     0.433006673390     1.007825032070
           H          1.382836506012     1.105630833164    -0.456546326610     1.007825032070
           C         -0.285078493988    -1.391786166836     0.761292673390    12.000000000000
           H          1.193931506012    -0.212691166836     1.603982673390     1.007825032070
           H          0.147969506012    -2.365109166836     0.630586673390     1.007825032070
           H         -1.355077493988    -1.336557166836     0.825417673390     1.007825032070

  Nuclear repulsion =  119.354033163752405

  ==> Basis Set <==

  Basis Set: CC-PVTZ
    Number of shells: 76
    Number of basis function: 204
    Number of Cartesian functions: 230
    Spherical Harmonics?: true
    Max angular momentum: 3

  ==> DFJKGrad: Density-Fitted SCF Gradients <==

    Gradient:                    1
    J tasked:                  Yes
    K tasked:                  Yes
    wK tasked:                  No
    OpenMP threads:              4
    Integrals threads:           4
    Memory (MB):              1430
    Schwarz Cutoff:          0E+00
    Fitting Condition:       1E-12

   => Auxiliary Basis Set <=

  Basis Set: 
    Number of shells: 160
    Number of basis function: 496
    Number of Cartesian functions: 594
    Spherical Harmonics?: true
    Max angular momentum: 4


  -Total Gradient:
     Atom            X                  Y                   Z
    ------   -----------------  -----------------  -----------------
       1        0.000832692124     0.001913289655    -0.001198671164
       2       -0.001672026867    -0.002691132346    -0.002143480316
       3        0.030003153109    -0.021322502643    -0.020100859781
       4       -0.021219787579    -0.021467932763     0.000117875926
       5       -0.000541497314    -0.007532763678     0.004556187217
       6       -0.000628526911     0.005998632628    -0.004041124820
       7        0.020188765395     0.022856347980     0.000878876778
       8       -0.031789428957     0.014005587362     0.021889536697
       9       -0.002021204900     0.009132206941    -0.043597681668
      10        0.006847861900    -0.000891733138     0.043639341128


*** tstop() called on cx1-27-3-1 at Fri Sep  9 23:12:24 2016
Module time:
	user time   =      23.46 seconds =       0.39 minutes
	system time =       0.32 seconds =       0.01 minutes
	total time  =          7 seconds =       0.12 minutes
Total time:
	user time   =      36.42 seconds =       0.61 minutes
	system time =       0.57 seconds =       0.01 minutes
	total time  =         11 seconds =       0.18 minutes
CURRENT ENERGY: -191.9183390175

			-----------------------------------------
			 OPTKING 2.0: for geometry optimizations 
			  - R.A. King,  Bethel University        
			-----------------------------------------

	Internal coordinates to be generated automatically.
	Detected frag with atoms:  1 2 3 4 5 6 7 8 9 10
	---Fragment 1 Bond Connectivity---
	 1 : 2
	 2 : 1 3
	 3 : 2 4 5 6
	 4 : 3 7 8
	 5 : 3
	 6 : 3
	 7 : 4 9 10
	 8 : 4
	 9 : 7
	 10 : 7

	Assuming in current code that numbering for constraints corresponds to unified fragment.
	Frozen dihedral atom list: 
	     3     4     7     9
	---Fragment 1 Geometry and Gradient---
	 H          -0.3309902451        0.0015813855       -3.2912912694
	 O          -0.9243661406        1.3101279154       -2.2453240754
	 C           0.7162298373        1.6356067856       -0.2098074611
	 C           0.8611321474       -0.5812063744        1.5584943191
	 H           0.0461405095        3.2749838901        0.8182640264
	 H           2.6131822829        2.0893394788       -0.8627475243
	 C          -0.5387202800       -2.6300946909        1.4386346597
	 H           2.2562035678       -0.4019280562        3.0310879746
	 H           0.2796218424       -4.4694085997        1.1916361158
	 H          -2.5607253525       -2.5257270063        1.5598133480
	             0.0008326921        0.0019132897       -0.0011986712
	            -0.0016720269       -0.0026911323       -0.0021434803
	             0.0300031531       -0.0213225026       -0.0201008598
	            -0.0212197876       -0.0214679328        0.0001178759
	            -0.0005414973       -0.0075327637        0.0045561872
	            -0.0006285269        0.0059986326       -0.0040411248
	             0.0201887654        0.0228563480        0.0008788768
	            -0.0317894290        0.0140055874        0.0218895367
	            -0.0020212049        0.0091322069       -0.0435976817
	             0.0068478619       -0.0008917331        0.0436393411

	Previous optimization step data not found.  Starting new optimization.

	---Fragment 1 Intrafragment Coordinates---
	 - Coordinate -           - BOHR/RAD -       - ANG/DEG -
	 R(1,2)           =         1.777199	       0.940453
	 R(2,3)           =         2.634544	       1.394140
	 R(3,4)           =         2.839392	       1.502542
	 R(3,5)           =         2.047806	       1.083652
	 R(3,6)           =         2.056850	       1.088438
	 R(4,7)           =         2.484330	       1.314651
	 R(4,8)           =         2.036393	       1.077613
	 R(7,9)           =         2.028243	       1.073300
	 R(7,10)          =         2.028320	       1.073341
	 B(1,2,3)         =         1.915348	     109.741355
	 B(2,3,4)         =         2.000385	     114.613634
	 B(2,3,5)         =         1.857736	     106.440432
	 B(2,3,6)         =         1.935102	     110.873166
	 B(3,4,7)         =         2.195786	     125.809297
	 B(3,4,8)         =         2.000476	     114.618828
	 B(4,3,5)         =         1.906108	     109.211966
	 B(4,3,6)         =         1.899545	     108.835917
	 B(4,7,9)         =         2.125194	     121.764661
	 B(4,7,10)        =         2.113438	     121.091060
	 B(5,3,6)         =         1.859339	     106.532302
	 B(7,4,8)         =         2.086921	     119.571765
	 B(9,7,10)        =         2.044466	     117.139282
	 D(1,2,3,4)       =        -1.128776	     -64.674127
	 D(1,2,3,5)       =         3.045442	     174.490985
	 D(1,2,3,6)       =         1.030100	      59.020404
	 D(2,3,4,7)       =        -0.098036	      -5.617029
	 D(2,3,4,8)       =         3.045685	     174.504881
	*D(3,4,7,9)       =         2.094395	     120.000018
	 D(3,4,7,10)      =        -1.032596	     -59.163391
	 D(5,3,4,7)       =         1.984056	     113.678011
	 D(5,3,4,8)       =        -1.155409	     -66.200078
	 D(6,3,4,7)       =        -2.275782	    -130.392688
	 D(6,3,4,8)       =         0.867939	      49.729223
	 D(8,4,7,9)       =        -1.049421	     -60.127410
	 D(8,4,7,10)      =         2.106773	     120.709181

	Current energy   :      -191.9183390175

	Generating empirical Hessian (Schlegel '84) for each fragment.
	Taking RFO optimization step.
	Going to follow RFO solution 1.
	Using RFO vector 1.

	Determining step-restricting scale parameter for RS-RFO.
	Maximum step size allowed    0.50000

	 Iter      |step|        alpha        rfo_root  
	------------------------------------------------
	    0     0.77566       1.00000           1
	    1     0.59587       1.88971           1
	    2     0.51883       2.60024           1
	    3     0.50100       2.81505           1
	    4     0.50000       2.82773           1
	------------------------------------------------
	Norm of target step-size    0.50000
	Projected energy change by RFO approximation:        -0.0050660017

	Back-transformation to cartesian coordinates...
	Successfully converged to displaced geometry.

	Back-transformation to cartesian coordinates to adjust frozen coordinates...
	Successfully converged to displaced geometry.

	--- Internal Coordinate Step in ANG or DEG, aJ/ANG or AJ/DEG ---
	 ---------------------------------------------------------------------------
	   Coordinate                Previous        Force       Change         New 
	   ----------                --------       ------       ------       ------
	    1 R(1,2)          =      0.940453     0.003503     0.000325     0.940779
	    2 R(2,3)          =      1.394140    -0.026372    -0.003031     1.391109
	    3 R(3,4)          =      1.502542     0.046153     0.007163     1.509705
	    4 R(3,5)          =      1.083652     0.029378     0.004209     1.087861
	    5 R(3,6)          =      1.088438    -0.016695    -0.002422     1.086016
	    6 R(4,7)          =      1.314651     0.327788     0.029017     1.343668
	    7 R(4,8)          =      1.077613     0.038852     0.005478     1.083091
	    8 R(7,9)          =      1.073300     0.031206     0.004349     1.077649
	    9 R(7,10)         =      1.073341     0.035140     0.004898     1.078238
	   10 B(1,2,3)        =    109.741355    -0.000045    -0.134769   109.606587
	   11 B(2,3,4)        =    114.613634    -0.000107    -0.280941   114.332694
	   12 B(2,3,5)        =    106.440432    -0.000330    -0.745661   105.694771
	   13 B(2,3,6)        =    110.873166     0.000396     0.860501   111.733667
	   14 B(3,4,7)        =    125.809297     0.000169     0.300996   126.110293
	   15 B(3,4,8)        =    114.618828    -0.000348    -1.090593   113.528235
	   16 B(4,3,5)        =    109.211966     0.000877     3.110282   112.322248
	   17 B(4,3,6)        =    108.835917    -0.000749    -2.688683   106.147233
	   18 B(4,7,9)        =    121.764661     0.000086    -0.247110   121.517551
	   19 B(4,7,10)       =    121.091060     0.000215     0.136338   121.227398
	   20 B(5,3,6)        =    106.532302    -0.000046    -0.106531   106.425771
	   21 B(7,4,8)        =    119.571765     0.000181     0.479063   120.050829
	   22 B(9,7,10)       =    117.139282    -0.000330    -1.503761   115.635521
	   23 D(1,2,3,4)      =    -64.674127     0.000143     2.871679   -61.802448
	   24 D(1,2,3,5)      =    174.490985    -0.000042    -0.352834   174.138151
	   25 D(1,2,3,6)      =     59.020404    -0.000033    -0.236360    58.784044
	   26 D(2,3,4,7)      =     -5.617029     0.000114     3.392261    -2.224769
	   27 D(2,3,4,8)      =    174.504881    -0.000107    -3.177602   171.327279
	   28 *D(3,4,7,9)     =    120.000018     0.000000     0.000000   120.000018
	   29 D(3,4,7,10)     =    -59.163391     0.000548    14.305027   -44.858364
	   30 D(5,3,4,7)      =    113.678011     0.000146     4.535061   118.213072
	   31 D(5,3,4,8)      =    -66.200078    -0.000075    -2.034802   -68.234880
	   32 D(6,3,4,7)      =   -130.392688     0.000149     4.525376  -125.867312
	   33 D(6,3,4,8)      =     49.729223    -0.000073    -2.044486    47.684736
	   34 D(8,4,7,9)      =    -60.127410     0.000232     6.959162   -53.168248
	   35 D(8,4,7,10)     =    120.709181     0.000780    21.264189   141.973370
	 ---------------------------------------------------------------------------

  ==> Convergence Check <==

  Measures of convergence in internal coordinates in au.
  Criteria marked as inactive (o), active & met (*), and active & unmet ( ).
  --------------------------------------------------------------------------------------------- ~
   Step     Total Energy     Delta E     MAX Force     RMS Force      MAX Disp      RMS Disp    ~
  --------------------------------------------------------------------------------------------- ~
    Convergence Criteria    1.00e-06 *    3.00e-04 *             o    1.20e-03 *             o  ~
  --------------------------------------------------------------------------------------------- ~
      1    -191.91833902   -1.92e+02      4.47e-02      1.26e-02 o    3.71e-01      8.44e-02 o  ~
  ---------------------------------------------------------------------------------------------

	Writing optimization data to binary file.
	Structure for next step:
	Cartesian Geometry (in Angstrom)
	    H    -0.2531536049  -0.0273322987  -1.6676613766
	    O    -0.5195706569   0.7091085662  -1.1463733749
	    C     0.3736933244   0.8839246950  -0.0943736431
	    C     0.4449586298  -0.2824496635   0.8615030303
	    H     0.0704754349   1.8047218406   0.3992189178
	    H     1.3870784922   1.0454029246  -0.4499095633
	    C    -0.2896295800  -1.4056536091   0.7964092693
	    H     1.2453283484  -0.1990778941   1.5864461899
	    H     0.1704897475  -2.3743678120   0.6905333662
	    H    -1.3502739775  -1.3696515101   0.6057910391
			--------------------------
			 OPTKING Finished Execution 
			--------------------------

    Structure for next step:
    Molecular point group: c1
    Full point group: C1

    Geometry (in Angstrom), charge = 0, multiplicity = 1:

    H           -0.241397623584    -0.037030758707    -1.695224968884
    O           -0.507814655245     0.699410049895    -1.173937006987
    C            0.385449257829     0.874226165428    -0.121937355536
    C            0.456714557821    -0.292148104067     0.833939244881
    H            0.082231391521     1.795023240643     0.371655167739
    H            1.398834348261     1.035704382675    -0.477473248543
    C           -0.277873595836    -1.415351963921     0.768845488894
    H            1.257084215275    -0.208776341037     1.558882349135
    H            0.182245696439    -2.384066092794     0.662969593907
    H           -1.338517912366    -1.379349867601     0.578227273248

gradient() will perform analytic gradient computation.

*** tstart() called on cx1-27-3-1
*** at Fri Sep  9 23:12:24 2016


         ---------------------------------------------------------
                                   SCF
            by Justin Turney, Rob Parrish, and Andy Simmonett
                              RHF Reference
                        4 Threads,   2000 MiB Core
         ---------------------------------------------------------

  ==> Geometry <==

    Molecular point group: c1
    Full point group: C1

    Geometry (in Angstrom), charge = 0, multiplicity = 1:

       Center              X                  Y                   Z               Mass       
    ------------   -----------------  -----------------  -----------------  -----------------
           H         -0.241397623584    -0.037030758707    -1.695224968884     1.007825032070
           O         -0.507814655245     0.699410049895    -1.173937006987    15.994914619560
           C          0.385449257829     0.874226165428    -0.121937355536    12.000000000000
           C          0.456714557821    -0.292148104067     0.833939244881    12.000000000000
           H          0.082231391521     1.795023240643     0.371655167739     1.007825032070
           H          1.398834348261     1.035704382675    -0.477473248543     1.007825032070
           C         -0.277873595836    -1.415351963921     0.768845488894    12.000000000000
           H          1.257084215275    -0.208776341037     1.558882349135     1.007825032070
           H          0.182245696439    -2.384066092794     0.662969593907     1.007825032070
           H         -1.338517912366    -1.379349867601     0.578227273248     1.007825032070

  Running in c1 symmetry.

  Rotational constants: A =      0.55560  B =      0.19612  C =      0.15356 [cm^-1]
  Rotational constants: A =  16656.35130  B =   5879.55244  C =   4603.50594 [MHz]
  Nuclear repulsion =  118.817521365456699

  Charge       = 0
  Multiplicity = 1
  Electrons    = 32
  Nalpha       = 16
  Nbeta        = 16

  ==> Algorithm <==

  SCF Algorithm Type is DF.
  DIIS enabled.
  MOM disabled.
  Fractional occupation disabled.
  Guess Type is READ.
  Energy threshold   = 1.00e-08
  Density threshold  = 1.00e-08
  Integral threshold = 0.00e+00

  ==> Primary Basis <==

  Basis Set: CC-PVTZ
    Number of shells: 76
    Number of basis function: 204
    Number of Cartesian functions: 230
    Spherical Harmonics?: true
    Max angular momentum: 3

  ==> Pre-Iterations <==

   -------------------------------------------------------
    Irrep   Nso     Nmo     Nalpha   Nbeta   Ndocc  Nsocc
   -------------------------------------------------------
     A        204     204       0       0       0       0
   -------------------------------------------------------
    Total     204     204      16      16      16       0
   -------------------------------------------------------

 OEINTS: Overlap, kinetic, potential, dipole, and quadrupole integrals
         stored in file 35.

  ==> Integral Setup <==

  ==> DFJK: Density-Fitted J/K Matrices <==

    J tasked:                  Yes
    K tasked:                  Yes
    wK tasked:                  No
    OpenMP threads:              4
    Integrals threads:           4
    Memory (MB):              1430
    Algorithm:                Core
    Integral Cache:           NONE
    Schwarz Cutoff:          1E-12
    Fitting Condition:       1E-12

   => Auxiliary Basis Set <=

  Basis Set: 
    Number of shells: 160
    Number of basis function: 496
    Number of Cartesian functions: 594
    Spherical Harmonics?: true
    Max angular momentum: 4

  Minimum eigenvalue in the overlap matrix is 5.5181482735E-04.
  Using Symmetric Orthogonalization.
  SCF Guess: Reading in previously saved MOs, projecting if necessary.

  Using orbitals from previous SCF, no projection.
  Recomputing DOCC and SOCC from number of alpha and beta electrons from previous calculation.
              A 
    DOCC [    16 ]

  ==> Iterations <==

                           Total Energy        Delta E     RMS |[F,P]|

   @DF-RHF iter   0:  -191.94479246106897   -1.91945e+02   7.02626e-04 
   @DF-RHF iter   1:  -191.94334283077222    1.44963e-03   1.37281e-04 
   @DF-RHF iter   2:  -191.94399203522443   -6.49204e-04   5.60601e-05 DIIS
   @DF-RHF iter   3:  -191.94410161709305   -1.09582e-04   2.64413e-05 DIIS
   @DF-RHF iter   4:  -191.94413392733071   -3.23102e-05   6.83445e-06 DIIS
   @DF-RHF iter   5:  -191.94413697958032   -3.05225e-06   2.68671e-06 DIIS
   @DF-RHF iter   6:  -191.94413742640097   -4.46821e-07   8.24334e-07 DIIS
   @DF-RHF iter   7:  -191.94413746832146   -4.19205e-08   2.86559e-07 DIIS
   @DF-RHF iter   8:  -191.94413747238991   -4.06845e-09   1.11054e-07 DIIS
   @DF-RHF iter   9:  -191.94413747312529   -7.35383e-10   3.32700e-08 DIIS
   @DF-RHF iter  10:  -191.94413747321488   -8.95852e-11   1.02921e-08 DIIS
   @DF-RHF iter  11:  -191.94413747322272   -7.84439e-12   3.69017e-09 DIIS

  ==> Post-Iterations <==

    Orbital Energies (a.u.)
    -----------------------

    Doubly Occupied:                                                      

       1A    -20.553516     2A    -11.282830     3A    -11.244213  
       4A    -11.222014     5A     -1.375385     6A     -1.056661  
       7A     -0.931435     8A     -0.776004     9A     -0.693532  
      10A     -0.651726    11A     -0.619751    12A     -0.577881  
      13A     -0.548829    14A     -0.510510    15A     -0.453694  
      16A     -0.322265  

    Virtual:                                                              

      17A      0.110588    18A      0.143533    19A      0.168446  
      20A      0.188335    21A      0.200078    22A      0.219203  
      23A      0.229851    24A      0.311640    25A      0.329050  
      26A      0.369414    27A      0.436153    28A      0.467892  
      29A      0.475455    30A      0.529039    31A      0.531589  
      32A      0.533491    33A      0.558405    34A      0.574139  
      35A      0.593249    36A      0.604086    37A      0.623577  
      38A      0.631367    39A      0.652570    40A      0.661003  
      41A      0.688545    42A      0.706562    43A      0.732261  
      44A      0.748293    45A      0.790488    46A      0.810228  
      47A      0.843177    48A      0.906359    49A      0.941709  
      50A      0.968956    51A      1.001610    52A      1.044252  
      53A      1.075047    54A      1.119767    55A      1.142936  
      56A      1.156896    57A      1.197210    58A      1.228791  
      59A      1.246305    60A      1.270867    61A      1.284522  
      62A      1.301207    63A      1.321371    64A      1.370250  
      65A      1.404102    66A      1.424105    67A      1.440611  
      68A      1.477424    69A      1.522644    70A      1.526799  
      71A      1.552942    72A      1.569628    73A      1.591720  
      74A      1.607423    75A      1.613957    76A      1.677099  
      77A      1.732258    78A      1.735520    79A      1.786713  
      80A      1.881325    81A      1.943071    82A      2.136801  
      83A      2.217290    84A      2.294790    85A      2.335663  
      86A      2.450243    87A      2.486122    88A      2.488570  
      89A      2.563914    90A      2.577743    91A      2.605852  
      92A      2.640508    93A      2.702820    94A      2.749619  
      95A      2.772962    96A      2.823699    97A      2.847505  
      98A      2.890229    99A      2.956086   100A      3.015494  
     101A      3.034872   102A      3.081098   103A      3.099479  
     104A      3.138822   105A      3.148232   106A      3.170285  
     107A      3.201745   108A      3.224129   109A      3.240543  
     110A      3.266471   111A      3.303480   112A      3.319362  
     113A      3.335234   114A      3.346030   115A      3.387682  
     116A      3.410035   117A      3.435980   118A      3.454348  
     119A      3.459862   120A      3.490137   121A      3.527475  
     122A      3.565067   123A      3.596231   124A      3.625719  
     125A      3.675562   126A      3.713879   127A      3.722215  
     128A      3.758003   129A      3.772428   130A      3.813381  
     131A      3.835519   132A      3.852233   133A      3.859140  
     134A      3.945798   135A      3.962436   136A      3.976962  
     137A      4.008639   138A      4.029168   139A      4.079330  
     140A      4.116486   141A      4.158585   142A      4.170626  
     143A      4.199757   144A      4.222360   145A      4.234896  
     146A      4.258220   147A      4.294403   148A      4.312506  
     149A      4.349161   150A      4.357313   151A      4.383505  
     152A      4.426494   153A      4.465328   154A      4.472239  
     155A      4.502887   156A      4.534290   157A      4.574877  
     158A      4.602890   159A      4.625210   160A      4.711731  
     161A      4.725800   162A      4.816681   163A      4.860750  
     164A      4.926328   165A      4.997340   166A      5.076195  
     167A      5.120010   168A      5.127886   169A      5.171144  
     170A      5.202099   171A      5.247223   172A      5.267464  
     173A      5.325767   174A      5.342702   175A      5.387476  
     176A      5.417543   177A      5.488563   178A      5.551691  
     179A      5.584981   180A      5.690279   181A      5.746059  
     182A      5.805952   183A      5.862697   184A      5.900306  
     185A      6.038994   186A      6.063920   187A      6.181491  
     188A      6.234588   189A      6.314994   190A      6.393844  
     191A      6.565403   192A      6.741043   193A      7.060948  
     194A      7.165190   195A      7.246700   196A      7.295711  
     197A      7.414202   198A      7.508074   199A      7.681804  
     200A      8.020988   201A     11.454484   202A     12.743277  
     203A     13.576860   204A     14.495658  

    Final Occupation by Irrep:
              A 
    DOCC [    16 ]

  Energy converged.

  @DF-RHF Final Energy:  -191.94413747322272

   => Energetics <=

    Nuclear Repulsion Energy =            118.8175213654566988
    One-Electron Energy =                -495.8828252388531723
    Two-Electron Energy =                 185.1211664001736494
    DFT Exchange-Correlation Energy =       0.0000000000000000
    Empirical Dispersion Energy =           0.0000000000000000
    PCM Polarization Energy =               0.0000000000000000
    EFP Energy =                            0.0000000000000000
    Total Energy =                       -191.9441374732228383

    Alert: EFP and PCM quantities not currently incorporated into SCF psivars.

Properties will be evaluated at   0.000000,   0.000000,   0.000000 Bohr
  ==> Properties <==


Properties computed using the SCF density matrix

  Nuclear Dipole Moment: (a.u.)
     X:     1.2542      Y:    -1.1014      Z:     0.9309

  Electronic Dipole Moment: (a.u.)
     X:    -0.6619      Y:     0.8640      Z:    -0.9527

  Dipole Moment: (a.u.)
     X:     0.5923      Y:    -0.2374      Z:    -0.0218     Total:     0.6385

  Dipole Moment: (Debye)
     X:     1.5056      Y:    -0.6034      Z:    -0.0555     Total:     1.6230


  Saving occupied orbitals to File 180.

*** tstop() called on cx1-27-3-1 at Fri Sep  9 23:12:29 2016
Module time:
	user time   =      12.35 seconds =       0.21 minutes
	system time =       0.24 seconds =       0.00 minutes
	total time  =          5 seconds =       0.08 minutes
Total time:
	user time   =      50.33 seconds =       0.84 minutes
	system time =       0.88 seconds =       0.01 minutes
	total time  =         16 seconds =       0.27 minutes

*** tstart() called on cx1-27-3-1
*** at Fri Sep  9 23:12:29 2016


         ------------------------------------------------------------
                                   SCF GRAD                          
                          Rob Parrish, Justin Turney,                
                       Andy Simmonett, and Alex Sokolov              
         ------------------------------------------------------------

  ==> Geometry <==

    Molecular point group: c1
    Full point group: C1

    Geometry (in Angstrom), charge = 0, multiplicity = 1:

       Center              X                  Y                   Z               Mass       
    ------------   -----------------  -----------------  -----------------  -----------------
           H         -0.241397623584    -0.037030758707    -1.695224968884     1.007825032070
           O         -0.507814655245     0.699410049895    -1.173937006987    15.994914619560
           C          0.385449257829     0.874226165428    -0.121937355536    12.000000000000
           C          0.456714557821    -0.292148104067     0.833939244881    12.000000000000
           H          0.082231391521     1.795023240643     0.371655167739     1.007825032070
           H          1.398834348261     1.035704382675    -0.477473248543     1.007825032070
           C         -0.277873595836    -1.415351963921     0.768845488894    12.000000000000
           H          1.257084215275    -0.208776341037     1.558882349135     1.007825032070
           H          0.182245696439    -2.384066092794     0.662969593907     1.007825032070
           H         -1.338517912366    -1.379349867601     0.578227273248     1.007825032070

  Nuclear repulsion =  118.817521365456699

  ==> Basis Set <==

  Basis Set: CC-PVTZ
    Number of shells: 76
    Number of basis function: 204
    Number of Cartesian functions: 230
    Spherical Harmonics?: true
    Max angular momentum: 3

  ==> DFJKGrad: Density-Fitted SCF Gradients <==

    Gradient:                    1
    J tasked:                  Yes
    K tasked:                  Yes
    wK tasked:                  No
    OpenMP threads:              4
    Integrals threads:           4
    Memory (MB):              1430
    Schwarz Cutoff:          0E+00
    Fitting Condition:       1E-12

   => Auxiliary Basis Set <=

  Basis Set: 
    Number of shells: 160
    Number of basis function: 496
    Number of Cartesian functions: 594
    Spherical Harmonics?: true
    Max angular momentum: 4


  -Total Gradient:
     Atom            X                  Y                   Z
    ------   -----------------  -----------------  -----------------
       1        0.001164952677     0.001261572922    -0.000981482547
       2       -0.001690842898    -0.001756582212     0.000876867420
       3        0.026489163650    -0.015960405110    -0.019629783886
       4       -0.001653262633     0.011431671026    -0.001344148295
       5       -0.001952383249    -0.000193350469     0.001428336946
       6       -0.001111799767     0.002847796905    -0.000333237138
       7       -0.000606549200    -0.013094039018     0.013912301387
       8       -0.016763209745     0.012472719777     0.019058644600
       9        0.001722473924     0.004467360137    -0.040917697253
      10       -0.005598542760    -0.001476743958     0.027930198766


*** tstop() called on cx1-27-3-1 at Fri Sep  9 23:12:35 2016
Module time:
	user time   =      24.55 seconds =       0.41 minutes
	system time =       0.40 seconds =       0.01 minutes
	total time  =          6 seconds =       0.10 minutes
Total time:
	user time   =      74.91 seconds =       1.25 minutes
	system time =       1.28 seconds =       0.02 minutes
	total time  =         22 seconds =       0.37 minutes
CURRENT ENERGY: -191.9441374732

			-----------------------------------------
			 OPTKING 2.0: for geometry optimizations 
			  - R.A. King,  Bethel University        
			-----------------------------------------

	Previous internal coordinate definitions found.
	---Fragment 1 Geometry and Gradient---
	 H          -0.4561753977       -0.0699779924       -3.2035109248
	 O          -0.9596306247        1.3216934489       -2.2184194405
	 C           0.7283935354        1.6520480309       -0.2304282073
	 C           0.8630654352       -0.5520799069        1.5759167843
	 H           0.1553948095        3.3921023270        0.7023264829
	 H           2.6434138235        1.9571976379       -0.9022936755
	 C          -0.5251049957       -2.6746275935        1.4529074125
	 H           2.3755448928       -0.3945301076        2.9458607133
	 H           0.3443944552       -4.5052319981        1.2528309669
	 H          -2.5294322783       -2.6065934912        1.0926911890
	             0.0011649527        0.0012615729       -0.0009814825
	            -0.0016908429       -0.0017565822        0.0008768674
	             0.0264891636       -0.0159604051       -0.0196297839
	            -0.0016532626        0.0114316710       -0.0013441483
	            -0.0019523832       -0.0001933505        0.0014283369
	            -0.0011117998        0.0028477969       -0.0003332371
	            -0.0006065492       -0.0130940390        0.0139123014
	            -0.0167632097        0.0124727198        0.0190586446
	             0.0017224739        0.0044673601       -0.0409176973
	            -0.0055985428       -0.0014767440        0.0279301988

	---Fragment 1 Intrafragment Coordinates---
	 - Coordinate -           - BOHR/RAD -       - ANG/DEG -
	 R(1,2)           =         1.777814	       0.940779
	 R(2,3)           =         2.628815	       1.391109
	 R(3,4)           =         2.852928	       1.509705
	 R(3,5)           =         2.055760	       1.087861
	 R(3,6)           =         2.052272	       1.086016
	 R(4,7)           =         2.539165	       1.343668
	 R(4,8)           =         2.046744	       1.083091
	 R(7,9)           =         2.036461	       1.077649
	 R(7,10)          =         2.037575	       1.078238
	 B(1,2,3)         =         1.912996	     109.606587
	 B(2,3,4)         =         1.995482	     114.332694
	 B(2,3,5)         =         1.844722	     105.694771
	 B(2,3,6)         =         1.950120	     111.733667
	 B(3,4,7)         =         2.201040	     126.110293
	 B(3,4,8)         =         1.981441	     113.528235
	 B(4,3,5)         =         1.960393	     112.322248
	 B(4,3,6)         =         1.852619	     106.147233
	 B(4,7,9)         =         2.120881	     121.517551
	 B(4,7,10)        =         2.115817	     121.227398
	 B(5,3,6)         =         1.857480	     106.425771
	 B(7,4,8)         =         2.095282	     120.050829
	 B(9,7,10)        =         2.018221	     115.635521
	 D(1,2,3,4)       =        -1.078656	     -61.802448
	 D(1,2,3,5)       =         3.039284	     174.138151
	 D(1,2,3,6)       =         1.025975	      58.784044
	 D(2,3,4,7)       =        -0.038830	      -2.224769
	 D(2,3,4,8)       =         2.990225	     171.327279
	*D(3,4,7,9)       =         2.094395	     120.000018
	 D(3,4,7,10)      =        -0.782926	     -44.858364
	 D(5,3,4,7)       =         2.063207	     118.213072
	 D(5,3,4,8)       =        -1.190923	     -68.234880
	 D(6,3,4,7)       =        -2.196799	    -125.867312
	 D(6,3,4,8)       =         0.832256	      47.684736
	 D(8,4,7,9)       =        -0.927961	     -53.168248
	 D(8,4,7,10)      =         2.477903	     141.973370

	Current energy   :      -191.9441374732

	Energy change for the previous step:
		Projected    :        -0.0050660017
		Actual       :        -0.0257984557
	Energy ratio indicates good step: Trust radius increased to 1.000e+00.


	Performing BFGS update.
	Previous computed or guess Hessian on step 1.
	Steps to be used in Hessian update: 1
	Taking RFO optimization step.
	Going to follow RFO solution 1.
	Using RFO vector 1.
	Norm of target step-size    0.67622
	Projected energy change by RFO approximation:        -0.0250239082

	Back-transformation to cartesian coordinates...
	Successfully converged to displaced geometry.

	Back-transformation to cartesian coordinates to adjust frozen coordinates...
	Successfully converged to displaced geometry.

	--- Internal Coordinate Step in ANG or DEG, aJ/ANG or AJ/DEG ---
	 ---------------------------------------------------------------------------
	   Coordinate                Previous        Force       Change         New 
	   ----------                --------       ------       ------       ------
	    1 R(1,2)          =      0.940779     0.000938     0.000152     0.940931
	    2 R(2,3)          =      1.391109    -0.003946    -0.000671     1.390438
	    3 R(3,4)          =      1.509705    -0.000479    -0.001075     1.508630
	    4 R(3,5)          =      1.087861    -0.008474    -0.002916     1.084945
	    5 R(3,6)          =      1.086016     0.004160     0.001496     1.087511
	    6 R(4,7)          =      1.343668    -0.089403    -0.016014     1.327654
	    7 R(4,8)          =      1.083091    -0.010950    -0.003695     1.079395
	    8 R(7,9)          =      1.077649    -0.006094    -0.002161     1.075487
	    9 R(7,10)         =      1.078238    -0.004286    -0.001715     1.076523
	   10 B(1,2,3)        =    109.606587     0.000018     0.165710   109.772296
	   11 B(2,3,4)        =    114.332694     0.000063     0.358763   114.691456
	   12 B(2,3,5)        =    105.694771    -0.000058     0.260209   105.954980
	   13 B(2,3,6)        =    111.733667     0.000085     0.148251   111.881918
	   14 B(3,4,7)        =    126.110293     0.000204     0.411206   126.521499
	   15 B(3,4,8)        =    113.528235    -0.000048    -0.431844   113.096391
	   16 B(4,3,5)        =    112.322248     0.000216     0.865893   113.188141
	   17 B(4,3,6)        =    106.147233    -0.000326    -1.845307   104.301926
	   18 B(4,7,9)        =    121.517551     0.000430     1.850323   123.367874
	   19 B(4,7,10)       =    121.227398    -0.000614    -5.510280   115.717118
	   20 B(5,3,6)        =    106.425771     0.000031     0.238044   106.663815
	   21 B(7,4,8)        =    120.050829    -0.000227    -2.080970   117.969859
	   22 B(9,7,10)       =    115.635521    -0.000134    -1.775532   113.859989
	   23 D(1,2,3,4)      =    -61.802448     0.000064     2.945960   -58.856488
	   24 D(1,2,3,5)      =    174.138151     0.000002     1.401080   175.539231
	   25 D(1,2,3,6)      =     58.784044    -0.000009     0.891951    59.675994
	   26 D(2,3,4,7)      =     -2.224769     0.000090     7.188502     4.963733
	   27 D(2,3,4,8)      =    171.327279    -0.000080    -4.507824   166.819455
	   28 *D(3,4,7,9)     =    120.000018    -0.000000     0.000000   120.000018
	   29 D(3,4,7,10)     =    -44.858364     0.000339    16.122178   -28.736186
	   30 D(5,3,4,7)      =    118.213072     0.000121     8.491355   126.704427
	   31 D(5,3,4,8)      =    -68.234880    -0.000049    -3.204971   -71.439851
	   32 D(6,3,4,7)      =   -125.867312     0.000110     8.111397  -117.755914
	   33 D(6,3,4,8)      =     47.684736    -0.000059    -3.584929    44.099807
	   34 D(8,4,7,9)      =    -53.168248     0.000177    12.093506   -41.074741
	   35 D(8,4,7,10)     =    141.973370     0.000516    28.215685   170.189054
	 ---------------------------------------------------------------------------

  ==> Convergence Check <==

  Measures of convergence in internal coordinates in au.
  Criteria marked as inactive (o), active & met (*), and active & unmet ( ).
  ---------------------------------------------------------------------------------------------
   Step     Total Energy     Delta E     MAX Force     RMS Force      MAX Disp      RMS Disp   
  ---------------------------------------------------------------------------------------------
    Convergence Criteria    1.00e-06 *    3.00e-04 *             o    1.20e-03 *             o
  ---------------------------------------------------------------------------------------------
      2    -191.94413747   -2.58e-02      2.96e-02      7.16e-03 o    4.92e-01      1.14e-01 o  ~
  ---------------------------------------------------------------------------------------------

	Writing optimization data to binary file.
	Structure for next step:
	Cartesian Geometry (in Angstrom)
	    H    -0.3622730925  -0.0670288889  -1.6128497330
	    O    -0.5529279397   0.7188707196  -1.1318470201
	    C     0.3689826410   0.8759093848  -0.1028967027
	    C     0.4098711996  -0.2627959211   0.8858611197
	    H     0.1432265517   1.8325758213   0.3563735426
	    H     1.3875660238   0.9426925114  -0.4780087913
	    C    -0.2668856111  -1.4022958695   0.8070898199
	    H     1.2723994640  -0.2300259964   1.5339857551
	    H     0.2040889687  -2.3681723412   0.7630615986
	    H    -1.2070924186  -1.3520888096   0.2851770487
			--------------------------
			 OPTKING Finished Execution 
			--------------------------

    Structure for next step:
    Molecular point group: c1
    Full point group: C1

    Geometry (in Angstrom), charge = 0, multiplicity = 1:

    H           -0.340715364935    -0.080404058566    -1.644399720577
    O           -0.531370197572     0.705495489887    -1.163397044442
    C            0.390540312785     0.862534143185    -0.134446805599
    C            0.431428868230    -0.276171075834     0.854310941308
    H            0.164784240709     1.819200506554     0.324823404649
    H            1.409123617735     0.929317264625    -0.509558865499
    C           -0.245327890801    -1.415670937234     0.775539647545
    H            1.293957066801    -0.243401153560     1.502435527203
    H            0.225646653019    -2.381547335118     0.731511429593
    H           -1.185534626525    -1.365463881171     0.253626916203

gradient() will perform analytic gradient computation.

*** tstart() called on cx1-27-3-1
*** at Fri Sep  9 23:12:35 2016


         ---------------------------------------------------------
                                   SCF
            by Justin Turney, Rob Parrish, and Andy Simmonett
                              RHF Reference
                        4 Threads,   2000 MiB Core
         ---------------------------------------------------------

  ==> Geometry <==

    Molecular point group: c1
    Full point group: C1

    Geometry (in Angstrom), charge = 0, multiplicity = 1:

       Center              X                  Y                   Z               Mass       
    ------------   -----------------  -----------------  -----------------  -----------------
           H         -0.340715364935    -0.080404058566    -1.644399720577     1.007825032070
           O         -0.531370197572     0.705495489887    -1.163397044442    15.994914619560
           C          0.390540312785     0.862534143185    -0.134446805599    12.000000000000
           C          0.431428868230    -0.276171075834     0.854310941308    12.000000000000
           H          0.164784240709     1.819200506554     0.324823404649     1.007825032070
           H          1.409123617735     0.929317264625    -0.509558865499     1.007825032070
           C         -0.245327890801    -1.415670937234     0.775539647545    12.000000000000
           H          1.293957066801    -0.243401153560     1.502435527203     1.007825032070
           H          0.225646653019    -2.381547335118     0.731511429593     1.007825032070
           H         -1.185534626525    -1.365463881171     0.253626916203     1.007825032070

  Running in c1 symmetry.

  Rotational constants: A =      0.56799  B =      0.19765  C =      0.15422 [cm^-1]
  Rotational constants: A =  17027.80854  B =   5925.53149  C =   4623.47449 [MHz]
  Nuclear repulsion =  119.420054772714494

  Charge       = 0
  Multiplicity = 1
  Electrons    = 32
  Nalpha       = 16
  Nbeta        = 16

  ==> Algorithm <==

  SCF Algorithm Type is DF.
  DIIS enabled.
  MOM disabled.
  Fractional occupation disabled.
  Guess Type is READ.
  Energy threshold   = 1.00e-08
  Density threshold  = 1.00e-08
  Integral threshold = 0.00e+00

  ==> Primary Basis <==

  Basis Set: CC-PVTZ
    Number of shells: 76
    Number of basis function: 204
    Number of Cartesian functions: 230
    Spherical Harmonics?: true
    Max angular momentum: 3

  ==> Pre-Iterations <==

   -------------------------------------------------------
    Irrep   Nso     Nmo     Nalpha   Nbeta   Ndocc  Nsocc
   -------------------------------------------------------
     A        204     204       0       0       0       0
   -------------------------------------------------------
    Total     204     204      16      16      16       0
   -------------------------------------------------------

 OEINTS: Overlap, kinetic, potential, dipole, and quadrupole integrals
         stored in file 35.

  ==> Integral Setup <==

  ==> DFJK: Density-Fitted J/K Matrices <==

    J tasked:                  Yes
    K tasked:                  Yes
    wK tasked:                  No
    OpenMP threads:              4
    Integrals threads:           4
    Memory (MB):              1430
    Algorithm:                Core
    Integral Cache:           NONE
    Schwarz Cutoff:          1E-12
    Fitting Condition:       1E-12

   => Auxiliary Basis Set <=

  Basis Set: 
    Number of shells: 160
    Number of basis function: 496
    Number of Cartesian functions: 594
    Spherical Harmonics?: true
    Max angular momentum: 4

  Minimum eigenvalue in the overlap matrix is 5.3015355795E-04.
  Using Symmetric Orthogonalization.
  SCF Guess: Reading in previously saved MOs, projecting if necessary.

  Using orbitals from previous SCF, no projection.
  Recomputing DOCC and SOCC from number of alpha and beta electrons from previous calculation.
              A 
    DOCC [    16 ]

  ==> Iterations <==

                           Total Energy        Delta E     RMS |[F,P]|

   @DF-RHF iter   0:  -191.96073413425393   -1.91961e+02   8.76268e-04 
   @DF-RHF iter   1:  -191.96114942973588   -4.15295e-04   1.70690e-04 
   @DF-RHF iter   2:  -191.96241443911720   -1.26501e-03   6.48857e-05 DIIS
   @DF-RHF iter   3:  -191.96267256829367   -2.58129e-04   2.90176e-05 DIIS
   @DF-RHF iter   4:  -191.96270579674990   -3.32285e-05   8.39439e-06 DIIS
   @DF-RHF iter   5:  -191.96271129232787   -5.49558e-06   2.16857e-06 DIIS
   @DF-RHF iter   6:  -191.96271167850819   -3.86180e-07   6.28568e-07 DIIS
   @DF-RHF iter   7:  -191.96271170714215   -2.86340e-08   2.22445e-07 DIIS
   @DF-RHF iter   8:  -191.96271170961552   -2.47337e-09   7.81403e-08 DIIS
   @DF-RHF iter   9:  -191.96271171000262   -3.87104e-10   2.86779e-08 DIIS
   @DF-RHF iter  10:  -191.96271171004457   -4.19504e-11   8.74380e-09 DIIS

  ==> Post-Iterations <==

    Orbital Energies (a.u.)
    -----------------------

    Doubly Occupied:                                                      

       1A    -20.556482     2A    -11.285438     3A    -11.240675  
       4A    -11.217883     5A     -1.378322     6A     -1.063111  
       7A     -0.934942     8A     -0.775384     9A     -0.695532  
      10A     -0.660039    11A     -0.621110    12A     -0.581317  
      13A     -0.535081    14A     -0.506995    15A     -0.455232  
      16A     -0.347484  

    Virtual:                                                              

      17A      0.121683    18A      0.148262    19A      0.165872  
      20A      0.187367    21A      0.202344    22A      0.220739  
      23A      0.241927    24A      0.309730    25A      0.333030  
      26A      0.366403    27A      0.427359    28A      0.464858  
      29A      0.465465    30A      0.515163    31A      0.528055  
      32A      0.529054    33A      0.563878    34A      0.587536  
      35A      0.593319    36A      0.596041    37A      0.622881  
      38A      0.629613    39A      0.651583    40A      0.654178  
      41A      0.705796    42A      0.712078    43A      0.735653  
      44A      0.758300    45A      0.801566    46A      0.823329  
      47A      0.853158    48A      0.898477    49A      0.917827  
      50A      0.947964    51A      0.997060    52A      1.033628  
      53A      1.093488    54A      1.132073    55A      1.135653  
      56A      1.156553    57A      1.208203    58A      1.242506  
      59A      1.246671    60A      1.260278    61A      1.277634  
      62A      1.300714    63A      1.316471    64A      1.379758  
      65A      1.389552    66A      1.413922    67A      1.443102  
      68A      1.495379    69A      1.521305    70A      1.530637  
      71A      1.536512    72A      1.563436    73A      1.587035  
      74A      1.596822    75A      1.631839    76A      1.696533  
      77A      1.722968    78A      1.757052    79A      1.791430  
      80A      1.899704    81A      1.987986    82A      2.144286  
      83A      2.224176    84A      2.284607    85A      2.330302  
      86A      2.420763    87A      2.466512    88A      2.485614  
      89A      2.544280    90A      2.592808    91A      2.613732  
      92A      2.616100    93A      2.646283    94A      2.741140  
      95A      2.788563    96A      2.834877    97A      2.864663  
      98A      2.893134    99A      2.917316   100A      3.000274  
     101A      3.056801   102A      3.099748   103A      3.118859  
     104A      3.140418   105A      3.170791   106A      3.179180  
     107A      3.212636   108A      3.231473   109A      3.248637  
     110A      3.267342   111A      3.283306   112A      3.326282  
     113A      3.327850   114A      3.367752   115A      3.391010  
     116A      3.408738   117A      3.454880   118A      3.465185  
     119A      3.466520   120A      3.490404   121A      3.524446  
     122A      3.561762   123A      3.587099   124A      3.610874  
     125A      3.691610   126A      3.706951   127A      3.747738  
     128A      3.753796   129A      3.789787   130A      3.796871  
     131A      3.802468   132A      3.846030   133A      3.861568  
     134A      3.905978   135A      3.958031   136A      3.991292  
     137A      4.028958   138A      4.065934   139A      4.080636  
     140A      4.121726   141A      4.168365   142A      4.176923  
     143A      4.210978   144A      4.232252   145A      4.256037  
     146A      4.268266   147A      4.302745   148A      4.335269  
     149A      4.352528   150A      4.371477   151A      4.376463  
     152A      4.431354   153A      4.470565   154A      4.522098  
     155A      4.538907   156A      4.557609   157A      4.575715  
     158A      4.615023   159A      4.628911   160A      4.708351  
     161A      4.732090   162A      4.807454   163A      4.873679  
     164A      4.946271   165A      4.974458   166A      5.083213  
     167A      5.125748   168A      5.146070   169A      5.192866  
     170A      5.205697   171A      5.268902   172A      5.289331  
     173A      5.324508   174A      5.334973   175A      5.392967  
     176A      5.427312   177A      5.487440   178A      5.546075  
     179A      5.570226   180A      5.718098   181A      5.748203  
     182A      5.813331   183A      5.896054   184A      5.929550  
     185A      6.032629   186A      6.091851   187A      6.214780  
     188A      6.245179   189A      6.305348   190A      6.382450  
     191A      6.543941   192A      6.744122   193A      7.061764  
     194A      7.163184   195A      7.248768   196A      7.297090  
     197A      7.411855   198A      7.505275   199A      7.682065  
     200A      8.021252   201A     11.550770   202A     12.700627  
     203A     13.574530   204A     14.776054  

    Final Occupation by Irrep:
              A 
    DOCC [    16 ]

  Energy converged.

  @DF-RHF Final Energy:  -191.96271171004457

   => Energetics <=

    Nuclear Repulsion Energy =            119.4200547727144937
    One-Electron Energy =                -497.0554807581393106
    Two-Electron Energy =                 185.6727142753804003
    DFT Exchange-Correlation Energy =       0.0000000000000000
    Empirical Dispersion Energy =           0.0000000000000000
    PCM Polarization Energy =               0.0000000000000000
    EFP Energy =                            0.0000000000000000
    Total Energy =                       -191.9627117100444309

    Alert: EFP and PCM quantities not currently incorporated into SCF psivars.

Properties will be evaluated at   0.000000,   0.000000,   0.000000 Bohr
  ==> Properties <==


Properties computed using the SCF density matrix

  Nuclear Dipole Moment: (a.u.)
     X:     1.4667      Y:    -1.2362      Z:     0.6117

  Electronic Dipole Moment: (a.u.)
     X:    -0.8215      Y:     0.9538      Z:    -0.7230

  Dipole Moment: (a.u.)
     X:     0.6452      Y:    -0.2825      Z:    -0.1113     Total:     0.7130

  Dipole Moment: (Debye)
     X:     1.6398      Y:    -0.7179      Z:    -0.2829     Total:     1.8123


  Saving occupied orbitals to File 180.

*** tstop() called on cx1-27-3-1 at Fri Sep  9 23:12:39 2016
Module time:
	user time   =      11.37 seconds =       0.19 minutes
	system time =       0.18 seconds =       0.00 minutes
	total time  =          4 seconds =       0.07 minutes
Total time:
	user time   =      86.86 seconds =       1.45 minutes
	system time =       1.48 seconds =       0.02 minutes
	total time  =         26 seconds =       0.43 minutes

*** tstart() called on cx1-27-3-1
*** at Fri Sep  9 23:12:39 2016


         ------------------------------------------------------------
                                   SCF GRAD                          
                          Rob Parrish, Justin Turney,                
                       Andy Simmonett, and Alex Sokolov              
         ------------------------------------------------------------

  ==> Geometry <==

    Molecular point group: c1
    Full point group: C1

    Geometry (in Angstrom), charge = 0, multiplicity = 1:

       Center              X                  Y                   Z               Mass       
    ------------   -----------------  -----------------  -----------------  -----------------
           H         -0.340715364935    -0.080404058566    -1.644399720577     1.007825032070
           O         -0.531370197572     0.705495489887    -1.163397044442    15.994914619560
           C          0.390540312785     0.862534143185    -0.134446805599    12.000000000000
           C          0.431428868230    -0.276171075834     0.854310941308    12.000000000000
           H          0.164784240709     1.819200506554     0.324823404649     1.007825032070
           H          1.409123617735     0.929317264625    -0.509558865499     1.007825032070
           C         -0.245327890801    -1.415670937234     0.775539647545    12.000000000000
           H          1.293957066801    -0.243401153560     1.502435527203     1.007825032070
           H          0.225646653019    -2.381547335118     0.731511429593     1.007825032070
           H         -1.185534626525    -1.365463881171     0.253626916203     1.007825032070

  Nuclear repulsion =  119.420054772714508

  ==> Basis Set <==

  Basis Set: CC-PVTZ
    Number of shells: 76
    Number of basis function: 204
    Number of Cartesian functions: 230
    Spherical Harmonics?: true
    Max angular momentum: 3

  ==> DFJKGrad: Density-Fitted SCF Gradients <==

    Gradient:                    1
    J tasked:                  Yes
    K tasked:                  Yes
    wK tasked:                  No
    OpenMP threads:              4
    Integrals threads:           4
    Memory (MB):              1430
    Schwarz Cutoff:          0E+00
    Fitting Condition:       1E-12

   => Auxiliary Basis Set <=

  Basis Set: 
    Number of shells: 160
    Number of basis function: 496
    Number of Cartesian functions: 594
    Spherical Harmonics?: true
    Max angular momentum: 4


  -Total Gradient:
     Atom            X                  Y                   Z
    ------   -----------------  -----------------  -----------------
       1        0.000447410790     0.000257324900    -0.000741755889
       2       -0.001011993967    -0.001262232736     0.000715796962
       3        0.019941909181    -0.011656289335    -0.014888300399
       4       -0.020379811172     0.016736502066    -0.002096101621
       5       -0.000911723318     0.000480532350    -0.000148650639
       6        0.000359096362     0.000507403264     0.001020130179
       7        0.005929832021    -0.015283102399     0.038663511854
       8       -0.007161644508     0.002265084240     0.007400984400
       9        0.004439216461     0.003182647036    -0.037980867474
      10       -0.001652291851     0.004772130614     0.008055252628


*** tstop() called on cx1-27-3-1 at Fri Sep  9 23:12:46 2016
Module time:
	user time   =      23.37 seconds =       0.39 minutes
	system time =       0.30 seconds =       0.01 minutes
	total time  =          7 seconds =       0.12 minutes
Total time:
	user time   =     110.25 seconds =       1.84 minutes
	system time =       1.78 seconds =       0.03 minutes
	total time  =         33 seconds =       0.55 minutes
CURRENT ENERGY: -191.9627117100

			-----------------------------------------
			 OPTKING 2.0: for geometry optimizations 
			  - R.A. King,  Bethel University        
			-----------------------------------------

	Previous internal coordinate definitions found.
	---Fragment 1 Geometry and Gradient---
	 H          -0.6438587290       -0.1519416507       -3.1074651249
	 O          -1.0041441486        1.3331932639       -2.1985017978
	 C           0.7380142350        1.6299533109       -0.2540676420
	 C           0.8152824068       -0.5218876992        1.6144137114
	 H           0.3113970860        3.4377907382        0.6138272763
	 H           2.6628577249        1.7561551207       -0.9629267044
	 C          -0.4636025264       -2.6752303657        1.4655575391
	 H           2.4452244840       -0.4599615207        2.8391916787
	 H           0.4264103770       -4.5004722359        1.3823562650
	 H          -2.2403357652       -2.5803527798        0.4792854116
	             0.0004474108        0.0002573249       -0.0007417559
	            -0.0010119940       -0.0012622327        0.0007157970
	             0.0199419092       -0.0116562893       -0.0148883004
	            -0.0203798112        0.0167365021       -0.0020961016
	            -0.0009117233        0.0004805324       -0.0001486506
	             0.0003590964        0.0005074033        0.0010201302
	             0.0059298320       -0.0152831024        0.0386635119
	            -0.0071616445        0.0022650842        0.0074009844
	             0.0044392165        0.0031826470       -0.0379808675
	            -0.0016522919        0.0047721306        0.0080552526

	---Fragment 1 Intrafragment Coordinates---
	 - Coordinate -           - BOHR/RAD -       - ANG/DEG -
	 R(1,2)           =         1.778102	       0.940931
	 R(2,3)           =         2.627548	       1.390438
	 R(3,4)           =         2.850897	       1.508630
	 R(3,5)           =         2.050249	       1.084945
	 R(3,6)           =         2.055099	       1.087511
	 R(4,7)           =         2.508902	       1.327654
	 R(4,8)           =         2.039762	       1.079395
	 R(7,9)           =         2.032376	       1.075487
	 R(7,10)          =         2.034334	       1.076523
	 B(1,2,3)         =         1.915888	     109.772296
	 B(2,3,4)         =         2.001744	     114.691456
	 B(2,3,5)         =         1.849263	     105.954980
	 B(2,3,6)         =         1.952708	     111.881918
	 B(3,4,7)         =         2.208217	     126.521499
	 B(3,4,8)         =         1.973904	     113.096391
	 B(4,3,5)         =         1.975506	     113.188141
	 B(4,3,6)         =         1.820412	     104.301926
	 B(4,7,9)         =         2.153176	     123.367874
	 B(4,7,10)        =         2.019645	     115.717118
	 B(5,3,6)         =         1.861635	     106.663815
	 B(7,4,8)         =         2.058962	     117.969859
	 B(9,7,10)        =         1.987232	     113.859989
	 D(1,2,3,4)       =        -1.027239	     -58.856488
	 D(1,2,3,5)       =         3.063738	     175.539231
	 D(1,2,3,6)       =         1.041543	      59.675994
	 D(2,3,4,7)       =         0.086633	       4.963733
	 D(2,3,4,8)       =         2.911549	     166.819455
	*D(3,4,7,9)       =         2.094395	     120.000018
	 D(3,4,7,10)      =        -0.501541	     -28.736186
	 D(5,3,4,7)       =         2.211409	     126.704427
	 D(5,3,4,8)       =        -1.246861	     -71.439851
	 D(6,3,4,7)       =        -2.055228	    -117.755914
	 D(6,3,4,8)       =         0.769687	      44.099807
	 D(8,4,7,9)       =        -0.716889	     -41.074741
	 D(8,4,7,10)      =         2.970359	     170.189054

	Current energy   :      -191.9627117100

	Energy change for the previous step:
		Projected    :        -0.0250239082
		Actual       :        -0.0185742368

	Performing BFGS update.
	Previous computed or guess Hessian on step 1.
	Change in internal coordinate of 8.64e-01 exceeds limit of 5.00e-01.
	 Skipping Hessian update for step 1.
	Steps to be used in Hessian update: 2
	Taking RFO optimization step.
	Going to follow RFO solution 1.
	Using RFO vector 1.
	Norm of target step-size    0.39740
	Projected energy change by RFO approximation:        -0.0092076398

	Back-transformation to cartesian coordinates...
	Successfully converged to displaced geometry.

	Back-transformation to cartesian coordinates to adjust frozen coordinates...
	Successfully converged to displaced geometry.

	--- Internal Coordinate Step in ANG or DEG, aJ/ANG or AJ/DEG ---
	 ---------------------------------------------------------------------------
	   Coordinate                Previous        Force       Change         New 
	   ----------                --------       ------       ------       ------
	    1 R(1,2)          =      0.940931    -0.002100    -0.000293     0.940638
	    2 R(2,3)          =      1.390438    -0.004177    -0.000812     1.389627
	    3 R(3,4)          =      1.508630     0.000968    -0.000301     1.508329
	    4 R(3,5)          =      1.084945    -0.004535    -0.001861     1.083084
	    5 R(3,6)          =      1.087511    -0.000129     0.000356     1.087868
	    6 R(4,7)          =      1.327654    -0.010941    -0.005383     1.322271
	    7 R(4,8)          =      1.079395     0.009969     0.001504     1.080900
	    8 R(7,9)          =      1.075487    -0.005278    -0.001864     1.073623
	    9 R(7,10)         =      1.076523     0.018452     0.003903     1.080427
	   10 B(1,2,3)        =    109.772296    -0.000020    -0.085396   109.686900
	   11 B(2,3,4)        =    114.691456     0.000111     0.618909   115.310366
	   12 B(2,3,5)        =    105.954980    -0.000014     0.068165   106.023144
	   13 B(2,3,6)        =    111.881918    -0.000067    -0.408112   111.473806
	   14 B(3,4,7)        =    126.521499     0.000253     0.401572   126.923070
	   15 B(3,4,8)        =    113.096391    -0.000283    -2.357655   110.738736
	   16 B(4,3,5)        =    113.188141    -0.000031    -0.408415   112.779725
	   17 B(4,3,6)        =    104.301926    -0.000022     0.002504   104.304431
	   18 B(4,7,9)        =    123.367874     0.000213     1.922041   125.289915
	   19 B(4,7,10)       =    115.717118     0.000106     0.020599   115.737717
	   20 B(5,3,6)        =    106.663815     0.000015     0.072431   106.736246
	   21 B(7,4,8)        =    117.969859    -0.000053    -1.294707   116.675152
	   22 B(9,7,10)       =    113.859989    -0.000418    -2.565001   111.294988
	   23 D(1,2,3,4)      =    -58.856488     0.000010     1.517178   -57.339310
	   24 D(1,2,3,5)      =    175.539231     0.000005     1.570235   177.109466
	   25 D(1,2,3,6)      =     59.675994     0.000010     1.652819    61.328813
	   26 D(2,3,4,7)      =      4.963733     0.000045     8.574981    13.538715
	   27 D(2,3,4,8)      =    166.819455    -0.000029    -1.030081   165.789374
	   28 *D(3,4,7,9)     =    120.000018    -0.000000    -0.000000   120.000018
	   29 D(3,4,7,10)     =    -28.736186     0.000076     2.106191   -26.629996
	   30 D(5,3,4,7)      =    126.704427     0.000055     8.824023   135.528451
	   31 D(5,3,4,8)      =    -71.439851    -0.000020    -0.781039   -72.220890
	   32 D(6,3,4,7)      =   -117.755914     0.000053     8.713736  -109.042178
	   33 D(6,3,4,8)      =     44.099807    -0.000022    -0.891326    43.208481
	   34 D(8,4,7,9)      =    -41.074741     0.000085    10.238079   -30.836663
	   35 D(8,4,7,10)     =    170.189054     0.000162    12.344269   182.533324
	 ---------------------------------------------------------------------------

  ==> Convergence Check <==

  Measures of convergence in internal coordinates in au.
  Criteria marked as inactive (o), active & met (*), and active & unmet ( ).
  ---------------------------------------------------------------------------------------------
   Step     Total Energy     Delta E     MAX Force     RMS Force      MAX Disp      RMS Disp   
  ---------------------------------------------------------------------------------------------
    Convergence Criteria    1.00e-06 *    3.00e-04 *             o    1.20e-03 *             o
  ---------------------------------------------------------------------------------------------
      3    -191.96271171   -1.86e-02      9.26e-03      2.61e-03 o    2.15e-01      6.71e-02 o  ~
  ---------------------------------------------------------------------------------------------

	Writing optimization data to binary file.
	Structure for next step:
	Cartesian Geometry (in Angstrom)
	    H    -0.4215733083  -0.0619964046  -1.6048623138
	    O    -0.5439589092   0.7528468544  -1.1511521768
	    C     0.3918657408   0.8652524943  -0.1300453898
	    C     0.3766152318  -0.2508970657   0.8843678306
	    H     0.2323274588   1.8393406113   0.3157926723
	    H     1.4078901896   0.8612710582  -0.5188054162
	    C    -0.2381771206  -1.4163288047   0.7739194749
	    H     1.2716224517  -0.2298831332   1.4900613829
	    H     0.2423920259  -2.3760352186   0.8000637352
	    H    -1.1064709578  -1.4296815391   0.1311057067
			--------------------------
			 OPTKING Finished Execution 
			--------------------------

    Structure for next step:
    Molecular point group: c1
    Full point group: C1

    Geometry (in Angstrom), charge = 0, multiplicity = 1:

    H           -0.409547177330    -0.079399777504    -1.614242962518
    O           -0.531932768908     0.735443419325    -1.160532860214
    C            0.403891809647     0.847849050571    -0.139426151186
    C            0.388641301842    -0.268300424201     0.874986991777
    H            0.244353539817     1.821937093230     0.306411876858
    H            1.419916180936     0.843867614799    -0.528186147832
    C           -0.226151003593    -1.433732074203     0.764538644459
    H            1.283648453386    -0.247286493248     1.480680497851
    H            0.254418106177    -2.393438414810     0.790682902820
    H           -1.094444774546    -1.447084807511     0.121724925386

gradient() will perform analytic gradient computation.

*** tstart() called on cx1-27-3-1
*** at Fri Sep  9 23:12:46 2016


         ---------------------------------------------------------
                                   SCF
            by Justin Turney, Rob Parrish, and Andy Simmonett
                              RHF Reference
                        4 Threads,   2000 MiB Core
         ---------------------------------------------------------

  ==> Geometry <==

    Molecular point group: c1
    Full point group: C1

    Geometry (in Angstrom), charge = 0, multiplicity = 1:

       Center              X                  Y                   Z               Mass       
    ------------   -----------------  -----------------  -----------------  -----------------
           H         -0.409547177330    -0.079399777504    -1.614242962518     1.007825032070
           O         -0.531932768908     0.735443419325    -1.160532860214    15.994914619560
           C          0.403891809647     0.847849050571    -0.139426151186    12.000000000000
           C          0.388641301842    -0.268300424201     0.874986991777    12.000000000000
           H          0.244353539817     1.821937093230     0.306411876858     1.007825032070
           H          1.419916180936     0.843867614799    -0.528186147832     1.007825032070
           C         -0.226151003593    -1.433732074203     0.764538644459    12.000000000000
[...]
    J tasked:                  Yes
    K tasked:                  Yes
    wK tasked:                  No
    OpenMP threads:              4
    Integrals threads:           4
    Memory (MB):              1430
    Schwarz Cutoff:          0E+00
    Fitting Condition:       1E-12

   => Auxiliary Basis Set <=

  Basis Set: 
    Number of shells: 160
    Number of basis function: 496
    Number of Cartesian functions: 594
    Spherical Harmonics?: true
    Max angular momentum: 4


  -Total Gradient:
     Atom            X                  Y                   Z
    ------   -----------------  -----------------  -----------------
       1        0.000079344891    -0.000428183638    -0.000247637634
       2        0.000165372223     0.000441333661     0.000484033228
       3        0.022426928356    -0.010832001135    -0.010002815227
       4       -0.037253742477     0.018034453744     0.000368382731
       5       -0.000088042961     0.000352880050     0.000141108225
       6        0.000366791824    -0.000023458472    -0.000160427502
       7        0.008221270776    -0.007934300009     0.046151198292
       8        0.000357025434     0.000267990909    -0.000214030879
       9        0.005511497703    -0.000147731967    -0.035882941546
      10        0.000213554230     0.000269016856    -0.000636869692


*** tstop() called on cx1-27-3-1 at Fri Sep  9 23:20:42 2016
Module time:
	user time   =      23.18 seconds =       0.39 minutes
	system time =       0.31 seconds =       0.01 minutes
	total time  =          7 seconds =       0.12 minutes
Total time:
	user time   =    1736.03 seconds =      28.93 minutes
	system time =      24.44 seconds =       0.41 minutes
	total time  =        509 seconds =       8.48 minutes
CURRENT ENERGY: -191.9655775225

			-----------------------------------------
			 OPTKING 2.0: for geometry optimizations 
			  - R.A. King,  Bethel University        
			-----------------------------------------

	Previous internal coordinate definitions found.
	---Fragment 1 Geometry and Gradient---
	 H          -0.8448002161       -0.0763638298       -3.0531958200
	 O          -0.9984597941        1.4677769568       -2.1848930538
	 C           0.7823069402        1.5853945001       -0.2584826168
	 C           0.6857488522       -0.5284276096        1.6461884248
	 H           0.5723828027        3.4283863519        0.6097687179
	 H           2.6977726482        1.4902826101       -1.0007254290
	 C          -0.4158558505       -2.7596508582        1.4308235572
	 H           2.3335095631       -0.4383785528        2.8566291510
	 H           0.5615766949       -4.5369800445        1.5543588536
	 H          -2.0025244451       -2.8880656732        0.1492565358
	             0.0000793449       -0.0004281836       -0.0002476376
	             0.0001653722        0.0004413337        0.0004840332
	             0.0224269284       -0.0108320011       -0.0100028152
	            -0.0372537425        0.0180344537        0.0003683827
	            -0.0000880430        0.0003528800        0.0001411082
	             0.0003667918       -0.0000234585       -0.0001604275
	             0.0082212708       -0.0079343000        0.0461511983
	             0.0003570254        0.0002679909       -0.0002140309
	             0.0055114977       -0.0001477320       -0.0358829415
	             0.0002135542        0.0002690169       -0.0006368697

	---Fragment 1 Intrafragment Coordinates---
	 - Coordinate -           - BOHR/RAD -       - ANG/DEG -
	 R(1,2)           =         1.778182	       0.940974
	 R(2,3)           =         2.626028	       1.389634
	 R(3,4)           =         2.846988	       1.506561
	 R(3,5)           =         2.048059	       1.083786
	 R(3,6)           =         2.056448	       1.088226
	 R(4,7)           =         2.497653	       1.321701
	 R(4,8)           =         2.046556	       1.082991
	 R(7,9)           =         2.032126	       1.075355
	 R(7,10)          =         2.043630	       1.081442
	 B(1,2,3)         =         1.916130	     109.786153
	 B(2,3,4)         =         2.020305	     115.754925
	 B(2,3,5)         =         1.856458	     106.367184
	 B(2,3,6)         =         1.944199	     111.394371
	 B(3,4,7)         =         2.240236	     128.356093
	 B(3,4,8)         =         1.913159	     109.615909
	 B(4,3,5)         =         1.961715	     112.397967
	 B(4,3,6)         =         1.811844	     103.811032
	 B(4,7,9)         =         2.169937	     124.328248
	 B(4,7,10)        =         2.040522	     116.913288
	 B(5,3,6)         =         1.865134	     106.864282
	 B(7,4,8)         =         2.032436	     116.450010
	 B(9,7,10)        =         1.935427	     110.891781
	 D(1,2,3,4)       =        -0.993919	     -56.947376
	 D(1,2,3,5)       =         3.096515	     177.417229
	 D(1,2,3,6)       =         1.070343	      61.326133
	 D(2,3,4,7)       =         0.312809	      17.922608
	 D(2,3,4,8)       =         2.970183	     170.178969
	*D(3,4,7,9)       =         2.094395	     120.000018
	 D(3,4,7,10)      =        -0.457142	     -26.192290
	 D(5,3,4,7)       =         2.450757	     140.418054
	 D(5,3,4,8)       =        -1.175053	     -67.325584
	 D(6,3,4,7)       =        -1.823297	    -104.467247
	 D(6,3,4,8)       =         0.834077	      47.789115
	 D(8,4,7,9)       =        -0.535375	     -30.674723
	 D(8,4,7,10)      =        -3.086912	    -176.867031

	Current energy   :      -191.9655775225

	Energy change for the previous step:
		Projected    :         0.0000006202
		Actual       :         0.0000014844

	Performing BFGS update.
	Previous computed or guess Hessian on step 1.
	Steps to be used in Hessian update: 49 48
	Taking RFO optimization step.
	Going to follow RFO solution 1.
	Rejecting RFO root 1 because normalization gives large value.
	Rejecting RFO root 2 because normalization gives large value.
	Rejecting RFO root 3 because normalization gives large value.
	Rejecting RFO root 4 because normalization gives large value.
	Rejecting RFO root 5 because normalization gives large value.
	Rejecting RFO root 6 because normalization gives large value.
	Rejecting RFO root 7 because normalization gives large value.
	Rejecting RFO root 8 because normalization gives large value.
	Rejecting RFO root 9 because normalization gives large value.
	Rejecting RFO root 10 because normalization gives large value.
	Rejecting RFO root 11 because normalization gives large value.
	Rejecting RFO root 12 because normalization gives large value.
	Rejecting RFO root 13 because normalization gives large value.
	Rejecting RFO root 14 because normalization gives large value.
	Rejecting RFO root 15 because normalization gives large value.
	Using RFO vector 16.
	Norm of target step-size    0.00803
	Projected energy change by RFO approximation:        -0.0000030672

	Back-transformation to cartesian coordinates...
	Successfully converged to displaced geometry.

	Back-transformation to cartesian coordinates to adjust frozen coordinates...
	Successfully converged to displaced geometry.

	--- Internal Coordinate Step in ANG or DEG, aJ/ANG or AJ/DEG ---
	 ---------------------------------------------------------------------------
	   Coordinate                Previous        Force       Change         New 
	   ----------                --------       ------       ------       ------
	    1 R(1,2)          =      0.940974    -0.004116    -0.001122     0.939851
	    2 R(2,3)          =      1.389634     0.002801    -0.000764     1.388870
	    3 R(3,4)          =      1.506561     0.003814    -0.000665     1.505896
	    4 R(3,5)          =      1.083786    -0.003183     0.000946     1.084732
	    5 R(3,6)          =      1.088226    -0.003301    -0.000260     1.087966
	    6 R(4,7)          =      1.321701     0.000017     0.000117     1.321818
	    7 R(4,8)          =      1.082991    -0.001422     0.000639     1.083630
	    8 R(7,9)          =      1.075355    -0.004934    -0.000755     1.074599
	    9 R(7,10)         =      1.081442    -0.001785    -0.000277     1.081165
	   10 B(1,2,3)        =    109.786153     0.000003     0.126285   109.912438
	   11 B(2,3,4)        =    115.754925     0.000001    -0.122340   115.632585
	   12 B(2,3,5)        =    106.367184     0.000001     0.047551   106.414735
	   13 B(2,3,6)        =    111.394371     0.000002     0.080435   111.474806
	   14 B(3,4,7)        =    128.356093    -0.000019    -0.035387   128.320706
	   15 B(3,4,8)        =    109.615909     0.000034     0.013384   109.629293
	   16 B(4,3,5)        =    112.397967    -0.000001     0.046523   112.444490
	   17 B(4,3,6)        =    103.811032    -0.000001     0.009960   103.820991
	   18 B(4,7,9)        =    124.328248    -0.000075    -0.070500   124.257747
	   19 B(4,7,10)       =    116.913288     0.000076    -0.192740   116.720548
	   20 B(5,3,6)        =    106.864282    -0.000001    -0.058804   106.805478
	   21 B(7,4,8)        =    116.450010    -0.000018     0.023113   116.473124
	   22 B(9,7,10)       =    110.891781     0.000012     0.232740   111.124520
	   23 D(1,2,3,4)      =    -56.947376     0.000000    -0.059781   -57.007158
	   24 D(1,2,3,5)      =    177.417229     0.000000    -0.072689   177.344540
	   25 D(1,2,3,6)      =     61.326133     0.000000    -0.071954    61.254179
	   26 D(2,3,4,7)      =     17.922608     0.000002     0.014921    17.937529
	   27 D(2,3,4,8)      =    170.178969    -0.000000     0.026586   170.205555
	   28 *D(3,4,7,9)     =    120.000018     0.000000     0.000000   120.000018
	   29 D(3,4,7,10)     =    -26.192290    -0.000008    -0.012006   -26.204296
	   30 D(5,3,4,7)      =    140.418054     0.000002     0.021273   140.439328
	   31 D(5,3,4,8)      =    -67.325584    -0.000000     0.032938   -67.292646
	   32 D(6,3,4,7)      =   -104.467247     0.000001    -0.020655  -104.487901
	   33 D(6,3,4,8)      =     47.789115    -0.000001    -0.008990    47.780125
	   34 D(8,4,7,9)      =    -30.674723    -0.000001    -0.008678   -30.683401
	   35 D(8,4,7,10)     =   -176.867031    -0.000008    -0.020684  -176.887715
	 ---------------------------------------------------------------------------

  ==> Convergence Check <==

  Measures of convergence in internal coordinates in au.
  Criteria marked as inactive (o), active & met (*), and active & unmet ( ).
  ---------------------------------------------------------------------------------------------
   Step     Total Energy     Delta E     MAX Force     RMS Force      MAX Disp      RMS Disp   
  ---------------------------------------------------------------------------------------------
    Convergence Criteria    1.00e-06 *    3.00e-04 *             o    1.20e-03 *             o
  ---------------------------------------------------------------------------------------------
     50    -191.96557752    1.48e-06      1.00e-03      3.43e-04 o    4.06e-03      1.36e-03 o  ~
  ---------------------------------------------------------------------------------------------


  **** Optimization has failed! (in 50 steps) ****

  ==> Optimization Summary <==

  Measures of convergence in internal coordinates in au.
  --------------------------------------------------------------------------------------------------------------- ~
   Step         Total Energy             Delta E       MAX Force       RMS Force        MAX Disp        RMS Disp  ~
  --------------------------------------------------------------------------------------------------------------- ~
      1    -191.918339017482   -191.918339017482      0.04468439      0.01256987      0.37113011      0.08440187  ~
      2    -191.944137473223     -0.025798455741      0.02958416      0.00715645      0.49245660      0.11411532  ~
      3    -191.962711710045     -0.018574236822      0.00925890      0.00261259      0.21544814      0.06714183  ~
      4    -191.965338486742     -0.002626776698      0.00353044      0.00111359      0.08392609      0.03170557  ~
      5    -191.965556062080     -0.000217575338      0.00108205      0.00041825      0.01860505      0.00752901  ~
      6    -191.965572872968     -0.000016810888      0.00059140      0.00021299      0.10850996      0.04225836  ~
      7    -191.965227221881      0.000345651088      0.00486850      0.00139637      0.09312968      0.03625105  ~
      8    -191.965564475433     -0.000337253553      0.00087513      0.00025389      0.11015842      0.04225762  ~
      9    -191.964932435075      0.000632040358      0.00836513      0.00226412      0.10705818      0.04095262  ~
     10    -191.965521335879     -0.000588900804      0.00227512      0.00063345      0.11254249      0.04225565  ~
     11    -191.962707991904      0.002813343975      0.01578036      0.00554722      0.12771403      0.04225023  ~
     12    -191.961056103402      0.001651888503      0.02117136      0.00678328      0.12677340      0.04225739  ~
     13    -191.965526511391     -0.004470407989      0.00243230      0.00063449      0.01999207      0.00693659  ~
     14    -191.965561469895     -0.000034958503      0.00117961      0.00034934      0.00205987      0.00100032  ~
     15    -191.965562729800     -0.000001259905      0.00094376      0.00031796      0.11367362      0.04225591  ~
     16    -191.961602325126      0.003960404674      0.04793952      0.01019873      0.13705069      0.04225665  ~
     17    -191.958567068618      0.003035256508      0.03312491      0.01025264      0.12571174      0.04225507  ~
     18    -191.959519009618     -0.000951941000      0.02039421      0.00769008      0.03167497      0.01056432  ~
     19    -191.961888551100     -0.002369541481      0.01613288      0.00559509      0.10004356      0.03168745  ~
     20    -191.965252547720     -0.003363996621      0.00394827      0.00132632      0.03461744      0.01383177  ~
     21    -191.965492192536     -0.000239644816      0.00182324      0.00073958      0.02729256      0.00827253  ~
     22    -191.965543905315     -0.000051712779      0.00135686      0.00049032      0.05612965      0.01765644  ~
     23    -191.965558776328     -0.000014871013      0.00120298      0.00040750      0.02398936      0.00760212  ~
     24    -191.965569432297     -0.000010655969      0.00136597      0.00039733      0.00167577      0.00077474  ~
     25    -191.965572555249     -0.000003122952      0.00120500      0.00035310      0.33888904      0.12649924  ~
     26    -191.937567942841      0.028004612409      0.09182743      0.02394932      0.15936545      0.06893685  ~
     27    -191.963774382530     -0.026206439689      0.01210355      0.00435027      0.17814893      0.05625044  ~
     28    -191.965517189604     -0.001742807075      0.00156427      0.00066667      0.05556152      0.01654741  ~
     29    -191.965563099590     -0.000045909985      0.00127074      0.00045840      0.01379889      0.00473863  ~
     30    -191.965574129102     -0.000011029512      0.00115874      0.00034465      0.28249858      0.12670362  ~
     31    -191.935011292434      0.030562836667      0.06986664      0.02268341      0.28961158      0.12639984  ~
     32    -191.894700237430      0.040311055005      0.12816153      0.03537280      0.38644800      0.12675532  ~
     33    -191.878474612323      0.016225625107      0.10468984      0.03025331      0.26521369      0.10244148  ~
     34    -191.947863413270     -0.069388800947      0.04601451      0.01360355      0.22675056      0.08593266  ~
     35    -191.963071401676     -0.015207988406      0.03019388      0.00758849      0.08774376      0.03027649  ~
     36    -191.964620682108     -0.001549280432      0.00778810      0.00278227      0.08213811      0.03191708  ~
     37    -191.965397802135     -0.000777120027      0.00482480      0.00168439      0.05698969      0.01713786  ~
     38    -191.965555289098     -0.000157486963      0.00164191      0.00061188      0.03490058      0.01029410  ~
     39    -191.965575498807     -0.000020209709      0.00086800      0.00037469      0.02667610      0.00800941  ~
     40    -191.965579725470     -0.000004226662      0.00093475      0.00030363      0.00777687      0.00232891  ~
     41    -191.965581928012     -0.000002202542      0.00079281      0.00024199      0.00393269      0.00127209  ~
     42    -191.965580884406      0.000001043606      0.00084844      0.00024959      0.00259147      0.00106613  ~
     43    -191.965580839774      0.000000044633      0.00082063      0.00025851      0.00222204      0.00070236  ~
     44    -191.965581340882     -0.000000501108      0.00081106      0.00024876      0.00897403      0.00336249  ~
     45    -191.965564737830      0.000016603052      0.00210909      0.00055065      0.01140446      0.00394013  ~
     46    -191.965578300857     -0.000013563026      0.00105226      0.00029406      0.00264064      0.00073868  ~
     47    -191.965580066108     -0.000001765252      0.00094308      0.00027252      0.00086769      0.00031828  ~
     48    -191.965579626588      0.000000439520      0.00095206      0.00028354      0.00070330      0.00027520  ~
     49    -191.965579006954      0.000000619634      0.00098137      0.00029964      0.00092837      0.00039078  ~
     50    -191.965577522506      0.000001484448      0.00100491      0.00034298      0.00406207      0.00135799  ~
  --------------------------------------------------------------------------------------------------------------- ~

	Writing optimization data to binary file.
			--------------------------
			 OPTKING Finished Execution 
			--------------------------

    Structure for next step:
    Molecular point group: c1
    Full point group: C1

    Geometry (in Angstrom), charge = 0, multiplicity = 1:

    H           -0.447854473768    -0.041279265451    -1.614362526036
    O           -0.528580152196     0.774510655023    -1.154699060910
    C            0.414194583241     0.839269487801    -0.136887380363
    C            0.362931789499    -0.278727340648     0.870672333719
    H            0.303182853168     1.815824799975     0.322089499845
    H            1.427786561387     0.789420137017    -0.529081676049
    C           -0.220133036639    -1.459430258512     0.755875243379
    H            1.235005994415    -0.230956988950     1.512122045876
    H            0.297736621100    -2.398736422850     0.821288089111
    H           -1.058931190694    -1.523411655713     0.076727848909

	Optimizer: Did not converge!	Cleaning optimization helper files.


Properties will be evaluated at   0.000000,   0.000000,   0.000000 Bohr

Properties computed using the  density matrix

  Nuclear Dipole Moment: (a.u.)
     X:     1.6445      Y:    -1.4860      Z:     0.5464

  Electronic Dipole Moment: (a.u.)
     X:    -0.9991      Y:     1.1378      Z:    -0.6650

  Dipole Moment: (a.u.)
     X:     0.6454      Y:    -0.3482      Z:    -0.1186     Total:     0.7429

  Dipole Moment: (Debye)
     X:     1.6405      Y:    -0.8851      Z:    -0.3014     Total:     1.8883

  Quadrupole Moment: (Debye Ang)
    XX:   -25.6904     YY:   -25.1482     ZZ:   -26.5558
    XY:     1.4452     XZ:     0.5783     YZ:     3.8136

  Traceless Quadrupole Moment: (Debye Ang)
    XX:     0.1077     YY:     0.6499     ZZ:    -0.7577
    XY:     1.4452     XZ:     0.5783     YZ:     3.8136

  Mulliken Charges: (a.u.)
   Center  Symbol    Alpha    Beta     Spin     Total
       1     H     0.39089  0.39089  0.00000  0.21821
       2     O     4.19780  4.19780  0.00000 -0.39561
       3     C     2.94955  2.94955  0.00000  0.10089
       4     C     3.06958  3.06958  0.00000 -0.13917
       5     H     0.45015  0.45015  0.00000  0.09970
       6     H     0.46676  0.46676  0.00000  0.06648
       7     C     3.17709  3.17709  0.00000 -0.35418
       8     H     0.43320  0.43320  0.00000  0.13360
       9     H     0.42252  0.42252  0.00000  0.15497
      10     H     0.44245  0.44245  0.00000  0.11510

   Total alpha = 16.00000, Total beta = 16.00000, Total charge =  0.00000


*** PSI4 exiting successfully. Buy a developer a beer!
