    -----------------------------------------------------------------------
          Psi4: An Open-Source Ab Initio Electronic Structure Package
                              Psi4 (no tag) Driver

                          Git: Rev {detached?}  

    J. M. Turney, A. C. Simmonett, R. M. Parrish, E. G. Hohenstein,
    F. A. Evangelista, J. T. Fermann, B. J. Mintz, L. A. Burns, J. J. Wilke,
    M. L. Abrams, N. J. Russ, M. L. Leininger, C. L. Janssen, E. T. Seidl,
    W. D. Allen, H. F. Schaefer, R. A. King, E. F. Valeev, C. D. Sherrill,
    and T. D. Crawford, WIREs Comput. Mol. Sci. 2, 556-565 (2012)
    (doi: 10.1002/wcms.93)

                         Additional Contributions by
    A. E. DePrince, M. Saitow, U. Bozkaya, A. Yu. Sokolov
    -----------------------------------------------------------------------


    Psi4 started on: Thu Sep  1 22:22:58 2016

    Process ID:   1029
    PSI4DATADIR: /export131/home/mjharvey/miniconda3/share
    Memory level set to 256.000 MB

  ==> Input File <==

--------------------------------------------------------------------------
set {
	reference rhf
	basis 6-31G*
}


set_num_threads( 1 )
memory 2 gb

molecule MOL {
0 1

O	 -1.709258	 -0.205101	 2.189747
C	 -2.078982	 -0.672905	 1.160631
C	 -3.277086	 -1.578045	 1.032036
O	 -1.481751	 -0.454642	 0.000584
H	 -4.150745	 -1.053114	 1.399501
H	 -3.438631	 -1.890062	 0.010769
H	 -3.126775	 -2.445909	 1.662986
C	 -0.334255	 0.388708	 0.000906
C	 0.891947	 -0.504646	 0.000751
H	 -0.365390	 1.025305	 -0.873475
H	 -0.365484	 1.024911	 0.875569
C	 2.191998	 0.301789	 0.000897
H	 0.855148	 -1.151283	 -0.871571
H	 0.855132	 -1.151660	 0.872805
C	 3.441114	 -0.581407	 0.000108
H	 2.215074	 0.954890	 -0.869742
H	 2.215465	 0.953923	 0.872248
C	 4.739576	 0.224112	 -0.001102
H	 3.419457	 -1.233487	 -0.870178
H	 3.420834	 -1.233096	 0.870717
H	 4.804918	 0.861552	 -0.878265
H	 5.606527	 -0.429058	 -0.001824
H	 4.806469	 0.861674	 0.875853

	symmetry c1
}
set optking {
	frozen_dihedral = ("
		13 9 8 10,
		16 12 9 13,
		19 15 12 16,
		1 2 4 8
	")
}

ee = energy('scf')
oeprop('DIPOLE', 'QUADRUPOLE', 'MULLIKEN_CHARGES')
f=open( 'psi4out.xyz', 'w' )
f.write( "23  " )
f.write( str(ee) + "\n" )
f.write( MOL.save_string_xyz() )
f.close()
--------------------------------------------------------------------------

  Memory set to   2.000 GiB by Python script.

*** tstart() called on cx1-3-6-3.cx1.hpc.ic.ac.uk
*** at Thu Sep  1 22:22:58 2016


         ---------------------------------------------------------
                                   SCF
            by Justin Turney, Rob Parrish, and Andy Simmonett
                              RHF Reference
                        1 Threads,   2000 MiB Core
         ---------------------------------------------------------

  ==> Geometry <==

    Molecular point group: c1
    Full point group: C1

    Geometry (in Angstrom), charge = 0, multiplicity = 1:

       Center              X                  Y                   Z               Mass       
    ------------   -----------------  -----------------  -----------------  -----------------
           O         -1.960872661827     0.137445291032     1.694246256361    15.994914619560
           C         -2.330596661827    -0.330358708968     0.665130256361    12.000000000000
           C         -3.528700661827    -1.235498708968     0.536535256361    12.000000000000
           O         -1.733365661827    -0.112095708968    -0.494916743639    15.994914619560
           H         -4.402359661827    -0.710567708968     0.904000256361     1.007825032070
           H         -3.690245661827    -1.547515708968    -0.484731743639     1.007825032070
           H         -3.378389661827    -2.103362708968     1.167485256361     1.007825032070
           C         -0.585869661827     0.731254291032    -0.494594743639    12.000000000000
           C          0.640332338173    -0.162099708968    -0.494749743639    12.000000000000
           H         -0.617004661827     1.367851291032    -1.368975743639     1.007825032070
           H         -0.617098661827     1.367457291032     0.380068256361     1.007825032070
           C          1.940383338173     0.644335291032    -0.494603743639    12.000000000000
           H          0.603533338173    -0.808736708968    -1.367071743639     1.007825032070
           H          0.603517338173    -0.809113708968     0.377304256361     1.007825032070
           C          3.189499338173    -0.238860708968    -0.495392743639    12.000000000000
           H          1.963459338173     1.297436291032    -1.365242743639     1.007825032070
           H          1.963850338173     1.296469291032     0.376747256361     1.007825032070
           C          4.487961338173     0.566658291032    -0.496602743639    12.000000000000
           H          3.167842338173    -0.890940708968    -1.365678743639     1.007825032070
           H          3.169219338173    -0.890549708968     0.375216256361     1.007825032070
           H          4.553303338173     1.204098291032    -1.373765743639     1.007825032070
           H          5.354912338173    -0.086511708968    -0.497324743639     1.007825032070
           H          4.554854338173     1.204220291032     0.380352256361     1.007825032070

  Running in c1 symmetry.

  Rotational constants: A =      0.17187  B =      0.01732  C =      0.01705 [cm^-1]
  Rotational constants: A =   5152.44846  B =    519.24583  C =    511.15047 [MHz]
  Nuclear repulsion =  456.564139671347618

  Charge       = 0
  Multiplicity = 1
  Electrons    = 72
  Nalpha       = 36
  Nbeta        = 36

  ==> Algorithm <==

  SCF Algorithm Type is DF.
  DIIS enabled.
  MOM disabled.
  Fractional occupation disabled.
  Guess Type is CORE.
  Energy threshold   = 1.00e-06
  Density threshold  = 1.00e-06
  Integral threshold = 0.00e+00

  ==> Primary Basis <==

  Basis Set: 6-31G*
    Number of shells: 82
    Number of basis function: 163
    Number of Cartesian functions: 163
    Spherical Harmonics?: false
    Max angular momentum: 2

  ==> Pre-Iterations <==

   -------------------------------------------------------
    Irrep   Nso     Nmo     Nalpha   Nbeta   Ndocc  Nsocc
   -------------------------------------------------------
     A        163     163       0       0       0       0
   -------------------------------------------------------
    Total     163     163      36      36      36       0
   -------------------------------------------------------

 OEINTS: Overlap, kinetic, potential, dipole, and quadrupole integrals
         stored in file 35.

  ==> Integral Setup <==

  ==> DFJK: Density-Fitted J/K Matrices <==

    J tasked:                  Yes
    K tasked:                  Yes
    wK tasked:                  No
    OpenMP threads:              1
    Integrals threads:           1
    Memory (MB):              1430
    Algorithm:                Core
    Integral Cache:           NONE
    Schwarz Cutoff:          1E-12
    Fitting Condition:       1E-12

   => Auxiliary Basis Set <=

  Basis Set: 
    Number of shells: 342
    Number of basis function: 1079
    Number of Cartesian functions: 1079
    Spherical Harmonics?: false
    Max angular momentum: 3

  Minimum eigenvalue in the overlap matrix is 3.0038139492E-03.
  Using Symmetric Orthogonalization.
  SCF Guess: Core (One-Electron) Hamiltonian.

  ==> Iterations <==

                           Total Energy        Delta E     RMS |[F,P]|

   @DF-RHF iter   1:  -284.55840991118743   -2.84558e+02   6.79245e-02 
   @DF-RHF iter   2:   -59.04270528185458    2.25516e+02   7.80425e-02 DIIS
   @DF-RHF iter   3:  -238.63143386832036   -1.79589e+02   7.32344e-02 DIIS
   @DF-RHF iter   4:  -312.85145355734522   -7.42200e+01   6.16832e-02 DIIS
   @DF-RHF iter   5:  -378.97917123118117   -6.61277e+01   3.91528e-02 DIIS
   @DF-RHF iter   6:  -368.99679647735564    9.98237e+00   3.92109e-02 DIIS
   @DF-RHF iter   7:  -422.63137824691938   -5.36346e+01   5.47197e-03 DIIS
   @DF-RHF iter   8:  -422.85770476722388   -2.26327e-01   3.40691e-03 DIIS
   @DF-RHF iter   9:  -422.97071285794533   -1.13008e-01   5.96363e-04 DIIS
   @DF-RHF iter  10:  -422.97580513807617   -5.09228e-03   2.77465e-04 DIIS
   @DF-RHF iter  11:  -422.97698410867469   -1.17897e-03   8.18239e-05 DIIS
   @DF-RHF iter  12:  -422.97715764797971   -1.73539e-04   3.48872e-05 DIIS
   @DF-RHF iter  13:  -422.97718418543485   -2.65375e-05   1.46929e-05 DIIS
   @DF-RHF iter  14:  -422.97718930347497   -5.11804e-06   3.00844e-06 DIIS
   @DF-RHF iter  15:  -422.97718958100603   -2.77531e-07   7.08091e-07 DIIS

  ==> Post-Iterations <==

    Orbital Energies (a.u.)
    -----------------------

    Doubly Occupied:                                                      

       1A    -20.603005     2A    -20.540706     3A    -11.376020  
       4A    -11.278931     5A    -11.233256     6A    -11.220900  
       7A    -11.220129     8A    -11.219087     9A    -11.210889  
      10A     -1.469105    11A     -1.361589    12A     -1.091085  
      13A     -1.041023    14A     -1.002306    15A     -0.930100  
      16A     -0.846973    17A     -0.798948    18A     -0.770140  
      19A     -0.700652    20A     -0.680593    21A     -0.656437  
      22A     -0.648248    23A     -0.603051    24A     -0.588355  
      25A     -0.585104    26A     -0.572585    27A     -0.549599  
      28A     -0.539027    29A     -0.521438    30A     -0.511552  
      31A     -0.484898    32A     -0.478133    33A     -0.473578  
      34A     -0.468058    35A     -0.438931    36A     -0.434598  

    Virtual:                                                              

      37A      0.197266    38A      0.227862    39A      0.253719  
      40A      0.258383    41A      0.268785    42A      0.276624  
      43A      0.305545    44A      0.308223    45A      0.319627  
      46A      0.323591    47A      0.329534    48A      0.337579  
      49A      0.343362    50A      0.353474    51A      0.357568  
      52A      0.366097    53A      0.397448    54A      0.409028  
      55A      0.429115    56A      0.466991    57A      0.472423  
      58A      0.514238    59A      0.563325    60A      0.682445  
      61A      0.700259    62A      0.744377    63A      0.747689  
      64A      0.753622    65A      0.756281    66A      0.777430  
      67A      0.799150    68A      0.814917    69A      0.827386  
      70A      0.853426    71A      0.861742    72A      0.926276  
      73A      0.944632    74A      0.962607    75A      0.975987  
      76A      0.992542    77A      1.010096    78A      1.045749  
      79A      1.076268    80A      1.099315    81A      1.109319  
      82A      1.117837    83A      1.134176    84A      1.137008  
      85A      1.161717    86A      1.178716    87A      1.186604  
      88A      1.198210    89A      1.205368    90A      1.206747  
      91A      1.211368    92A      1.219677    93A      1.223295  
      94A      1.231245    95A      1.244864    96A      1.264340  
      97A      1.307901    98A      1.325866    99A      1.344552  
     100A      1.415170   101A      1.437161   102A      1.519869  
     103A      1.577069   104A      1.611341   105A      1.660113  
     106A      1.675549   107A      1.701888   108A      1.753709  
     109A      1.773570   110A      1.812192   111A      1.824080  
     112A      1.897539   113A      1.952193   114A      1.959026  
     115A      2.059298   116A      2.062797   117A      2.098065  
     118A      2.121246   119A      2.154755   120A      2.186115  
     121A      2.193346   122A      2.221450   123A      2.241787  
     124A      2.257440   125A      2.285039   126A      2.287820  
     127A      2.306491   128A      2.331234   129A      2.371902  
     130A      2.410438   131A      2.444121   132A      2.485730  
     133A      2.526011   134A      2.562554   135A      2.575847  
     136A      2.594852   137A      2.646412   138A      2.651541  
     139A      2.679588   140A      2.748324   141A      2.751055  
     142A      2.772938   143A      2.820777   144A      2.835337  
     145A      2.922951   146A      2.945917   147A      3.008798  
     148A      3.069065   149A      3.106021   150A      3.166499  
     151A      3.200498   152A      3.362487   153A      3.425111  
     154A      3.551989   155A      4.449965   156A      4.551897  
     157A      4.558697   158A      4.635593   159A      4.685962  
     160A      4.761476   161A      4.853879   162A      4.926431  
     163A      4.999317  

    Final Occupation by Irrep:
              A 
    DOCC [    36 ]

  Energy converged.

  @DF-RHF Final Energy:  -422.97718958100603

   => Energetics <=

    Nuclear Repulsion Energy =            456.5641396713476183
    One-Electron Energy =               -1480.7845649310215776
    Two-Electron Energy =                 601.2432356786700893
    DFT Exchange-Correlation Energy =       0.0000000000000000
    Empirical Dispersion Energy =           0.0000000000000000
    PCM Polarization Energy =               0.0000000000000000
    EFP Energy =                            0.0000000000000000
    Total Energy =                       -422.9771895810038131

    Alert: EFP and PCM quantities not currently incorporated into SCF psivars.

Properties will be evaluated at   0.000000,   0.000000,   0.000000 Bohr
  ==> Properties <==


Properties computed using the SCF density matrix

  Nuclear Dipole Moment: (a.u.)
     X:    12.3844      Y:    -0.1028      Z:    -3.6144

  Electronic Dipole Moment: (a.u.)
     X:   -12.3569      Y:    -0.1101      Z:     2.9115

  Dipole Moment: (a.u.)
     X:     0.0275      Y:    -0.2129      Z:    -0.7029     Total:     0.7349

  Dipole Moment: (Debye)
     X:     0.0700      Y:    -0.5411      Z:    -1.7865     Total:     1.8679


  Saving occupied orbitals to File 180.

*** tstop() called on cx1-3-6-3.cx1.hpc.ic.ac.uk at Thu Sep  1 22:23:24 2016
Module time:
	user time   =      25.14 seconds =       0.42 minutes
	system time =       0.29 seconds =       0.00 minutes
	total time  =         26 seconds =       0.43 minutes
Total time:
	user time   =      25.14 seconds =       0.42 minutes
	system time =       0.29 seconds =       0.00 minutes
	total time  =         26 seconds =       0.43 minutes


Properties will be evaluated at   0.000000,   0.000000,   0.000000 Bohr

Properties computed using the  density matrix

  Nuclear Dipole Moment: (a.u.)
     X:    12.3844      Y:    -0.1028      Z:    -3.6144

  Electronic Dipole Moment: (a.u.)
     X:   -12.3569      Y:    -0.1101      Z:     2.9115

  Dipole Moment: (a.u.)
     X:     0.0275      Y:    -0.2129      Z:    -0.7029     Total:     0.7349

  Dipole Moment: (Debye)
     X:     0.0700      Y:    -0.5411      Z:    -1.7865     Total:     1.8679

  Quadrupole Moment: (Debye Ang)
    XX:   -52.1908     YY:   -54.6087     ZZ:   -62.3837
    XY:     2.8085     XZ:     1.9453     YZ:    -2.2358

  Traceless Quadrupole Moment: (Debye Ang)
    XX:     4.2036     YY:     1.7857     ZZ:    -5.9893
    XY:     2.8085     XZ:     1.9453     YZ:    -2.2358

  Mulliken Charges: (a.u.)
   Center  Symbol    Alpha    Beta     Spin     Total
       1     O     4.28537  4.28537  0.00000 -0.57073
       2     C     2.61496  2.61496  0.00000  0.77008
       3     C     3.28834  3.28834  0.00000 -0.57667
       4     O     4.31075  4.31075  0.00000 -0.62150
       5     H     0.39709  0.39709  0.00000  0.20581
       6     H     0.39938  0.39938  0.00000  0.20124
       7     H     0.39755  0.39755  0.00000  0.20490
       8     C     3.01083  3.01083  0.00000 -0.02166
       9     C     3.16347  3.16347  0.00000 -0.32695
      10     H     0.41117  0.41117  0.00000  0.17766
      11     H     0.39534  0.39534  0.00000  0.20932
      12     C     3.16146  3.16146  0.00000 -0.32292
      13     H     0.41573  0.41573  0.00000  0.16855
      14     H     0.41178  0.41178  0.00000  0.17643
      15     C     3.15141  3.15141  0.00000 -0.30281
      16     H     0.42336  0.42336  0.00000  0.15328
      17     H     0.41875  0.41875  0.00000  0.16249
      18     C     3.23979  3.23979  0.00000 -0.47959
      19     H     0.42225  0.42225  0.00000  0.15549
      20     H     0.42053  0.42053  0.00000  0.15894
      21     H     0.42174  0.42174  0.00000  0.15653
      22     H     0.41837  0.41837  0.00000  0.16325
      23     H     0.42057  0.42057  0.00000  0.15887

   Total alpha = 36.00000, Total beta = 36.00000, Total charge = -0.00000


*** PSI4 exiting successfully. Buy a developer a beer!
