    -----------------------------------------------------------------------
          Psi4: An Open-Source Ab Initio Electronic Structure Package
                              Psi4 (no tag) Driver

                          Git: Rev {detached?}  

    J. M. Turney, A. C. Simmonett, R. M. Parrish, E. G. Hohenstein,
    F. A. Evangelista, J. T. Fermann, B. J. Mintz, L. A. Burns, J. J. Wilke,
    M. L. Abrams, N. J. Russ, M. L. Leininger, C. L. Janssen, E. T. Seidl,
    W. D. Allen, H. F. Schaefer, R. A. King, E. F. Valeev, C. D. Sherrill,
    and T. D. Crawford, WIREs Comput. Mol. Sci. 2, 556-565 (2012)
    (doi: 10.1002/wcms.93)

                         Additional Contributions by
    A. E. DePrince, M. Saitow, U. Bozkaya, A. Yu. Sokolov
    -----------------------------------------------------------------------


    Psi4 started on: Sat Sep  3 08:52:37 2016

    Process ID:  22843
    PSI4DATADIR: /export131/home/mjharvey/miniconda3/share
    Memory level set to 256.000 MB

  ==> Input File <==

--------------------------------------------------------------------------
set {
	reference rhf
	basis 6-31G*
}


set_num_threads( 4 )
memory 2 gb

molecule MOL {
0 1

O	 3.225979	 0.970355	 -0.599647
C	 2.701189	 0.057885	 -0.047330
C	 1.245376	 -0.013843	 0.345420
O	 3.347903	 -1.046386	 0.304773
C	 0.664603	 1.340628	 0.745700
H	 0.711645	 -0.454427	 -0.490170
H	 1.165307	 -0.729791	 1.159487
C	 -0.781706	 1.268113	 1.247124
H	 0.727726	 2.021346	 -0.097958
H	 1.288864	 1.768455	 1.522671
C	 -1.810958	 0.855263	 0.191044
H	 -1.053870	 2.247752	 1.633077
H	 -0.838309	 0.584608	 2.093071
C	 -3.249166	 0.904393	 0.710797
H	 -1.718667	 1.510585	 -0.673741
H	 -1.600281	 -0.150895	 -0.164250
C	 -4.285924	 0.488793	 -0.334449
H	 -3.472587	 1.912329	 1.056314
H	 -3.339477	 0.257548	 1.582081
C	 -5.719840	 0.544276	 0.191392
H	 -4.196392	 1.133519	 -1.206203
H	 -4.066829	 -0.520095	 -0.677847
H	 -6.431082	 0.244299	 -0.571993
H	 -5.981677	 1.549103	 0.510704
H	 -5.850845	 -0.116809	 1.043495
C	 4.728119	 -1.109107	 -0.004993
H	 4.882018	 -1.033965	 -1.071845
H	 5.068212	 -2.067527	 0.355250
H	 5.265056	 -0.311663	 0.488280

	symmetry c1
}
set optking {
	frozen_dihedral = ("
		6 3 2 1
	")
}

ee = optimize('scf')
oeprop('DIPOLE', 'QUADRUPOLE', 'MULLIKEN_CHARGES')
f=open( 'psi4out.xyz', 'w' )
f.write( "29  " )
f.write( str(ee) + "\n" )
f.write( MOL.save_string_xyz() )
f.close()
--------------------------------------------------------------------------

  Memory set to   2.000 GiB by Python script.
gradient() will perform analytic gradient computation.

*** tstart() called on cx1-3-2-4.cx1.hpc.ic.ac.uk
*** at Sat Sep  3 08:52:37 2016


         ---------------------------------------------------------
                                   SCF
            by Justin Turney, Rob Parrish, and Andy Simmonett
                              RHF Reference
                        4 Threads,   2000 MiB Core
         ---------------------------------------------------------

  ==> Geometry <==

    Molecular point group: c1
    Full point group: C1

    Geometry (in Angstrom), charge = 0, multiplicity = 1:

       Center              X                  Y                   Z               Mass       
    ------------   -----------------  -----------------  -----------------  -----------------
           O          3.178830139335     0.598975725736    -0.842238673919    15.994914619560
           C          2.654040139335    -0.313494274264    -0.289921673919    12.000000000000
           C          1.198227139335    -0.385222274264     0.102828326081    12.000000000000
           O          3.300754139335    -1.417765274264     0.062181326081    15.994914619560
           C          0.617454139335     0.969248725736     0.503108326081    12.000000000000
           H          0.664496139335    -0.825806274264    -0.732761673919     1.007825032070
           H          1.118158139335    -1.101170274264     0.916895326081     1.007825032070
           C         -0.828854860665     0.896733725736     1.004532326081    12.000000000000
           H          0.680577139335     1.649966725736    -0.340549673919     1.007825032070
           H          1.241715139335     1.397075725736     1.280079326081     1.007825032070
           C         -1.858106860665     0.483883725736    -0.051547673919    12.000000000000
           H         -1.101018860665     1.876372725736     1.390485326081     1.007825032070
           H         -0.885457860665     0.213228725736     1.850479326081     1.007825032070
           C         -3.296314860665     0.533013725736     0.468205326081    12.000000000000
           H         -1.765815860665     1.139205725736    -0.916332673919     1.007825032070
           H         -1.647429860665    -0.522274274264    -0.406841673919     1.007825032070
           C         -4.333072860665     0.117413725736    -0.577040673919    12.000000000000
           H         -3.519735860665     1.540949725736     0.813722326081     1.007825032070
           H         -3.386625860665    -0.113831274264     1.339489326081     1.007825032070
           C         -5.766988860665     0.172896725736    -0.051199673919    12.000000000000
           H         -4.243540860665     0.762139725736    -1.448794673919     1.007825032070
           H         -4.113977860665    -0.891474274264    -0.920438673919     1.007825032070
           H         -6.478230860665    -0.127080274264    -0.814584673919     1.007825032070
           H         -6.028825860665     1.177723725736     0.268112326081     1.007825032070
           H         -5.897993860665    -0.488188274264     0.800903326081     1.007825032070
           C          4.680970139335    -1.480486274264    -0.247584673919    12.000000000000
           H          4.834869139335    -1.405344274264    -1.314436673919     1.007825032070
           H          5.021063139335    -2.438906274264     0.112658326081     1.007825032070
           H          5.217907139335    -0.683042274264     0.245688326081     1.007825032070

  Running in c1 symmetry.

  Rotational constants: A =      0.11940  B =      0.00910  C =      0.00889 [cm^-1]
  Rotational constants: A =   3579.52150  B =    272.92664  C =    266.46831 [MHz]
  Nuclear repulsion =  609.929609680495105

  Charge       = 0
  Multiplicity = 1
  Electrons    = 88
  Nalpha       = 44
  Nbeta        = 44

  ==> Algorithm <==

  SCF Algorithm Type is DF.
  DIIS enabled.
  MOM disabled.
  Fractional occupation disabled.
  Guess Type is CORE.
  Energy threshold   = 1.00e-08
  Density threshold  = 1.00e-08
  Integral threshold = 0.00e+00

  ==> Primary Basis <==

  Basis Set: 6-31G*
    Number of shells: 102
    Number of basis function: 201
    Number of Cartesian functions: 201
    Spherical Harmonics?: false
    Max angular momentum: 2

  ==> Pre-Iterations <==

   -------------------------------------------------------
    Irrep   Nso     Nmo     Nalpha   Nbeta   Ndocc  Nsocc
   -------------------------------------------------------
     A        201     201       0       0       0       0
   -------------------------------------------------------
    Total     201     201      44      44      44       0
   -------------------------------------------------------

 OEINTS: Overlap, kinetic, potential, dipole, and quadrupole integrals
         stored in file 35.

  ==> Integral Setup <==

  ==> DFJK: Density-Fitted J/K Matrices <==

    J tasked:                  Yes
    K tasked:                  Yes
    wK tasked:                  No
    OpenMP threads:              4
    Integrals threads:           4
    Memory (MB):              1430
    Algorithm:                Core
    Integral Cache:           NONE
    Schwarz Cutoff:          1E-12
    Fitting Condition:       1E-12

   => Auxiliary Basis Set <=

  Basis Set: 
    Number of shells: 426
    Number of basis function: 1341
    Number of Cartesian functions: 1341
    Spherical Harmonics?: false
    Max angular momentum: 3

  Minimum eigenvalue in the overlap matrix is 2.5068659050E-03.
  Using Symmetric Orthogonalization.
  SCF Guess: Core (One-Electron) Hamiltonian.

  ==> Iterations <==

                           Total Energy        Delta E     RMS |[F,P]|

   @DF-RHF iter   1:  -322.96800419573071   -3.22968e+02   5.93417e-02 
   @DF-RHF iter   2:   125.69054216291090    4.48659e+02   7.83472e-02 DIIS
   @DF-RHF iter   3:  -188.44152239328014   -3.14132e+02   5.75200e-02 DIIS
   @DF-RHF iter   4:  -290.96119647950468   -1.02520e+02   5.77539e-02 DIIS
   @DF-RHF iter   5:  -432.16626452384617   -1.41205e+02   4.16729e-02 DIIS
   @DF-RHF iter   6:  -449.67058268542132   -1.75043e+01   2.89470e-02 DIIS
   @DF-RHF iter   7:  -468.10542414680776   -1.84348e+01   2.01245e-02 DIIS
   @DF-RHF iter   8:  -437.13673781257444    3.09687e+01   2.87178e-02 DIIS
   @DF-RHF iter   9:  -491.87918989309901   -5.47425e+01   1.16369e-02 DIIS
   @DF-RHF iter  10:  -500.89511182234855   -9.01592e+00   2.64627e-03 DIIS
   @DF-RHF iter  11:  -501.02405457085524   -1.28943e-01   8.69758e-04 DIIS
   @DF-RHF iter  12:  -501.03815875429132   -1.41042e-02   4.28782e-04 DIIS
   @DF-RHF iter  13:  -501.04165353448070   -3.49478e-03   2.18675e-04 DIIS
   @DF-RHF iter  14:  -501.04250358619538   -8.50052e-04   1.28389e-04 DIIS
   @DF-RHF iter  15:  -501.04297598888843   -4.72403e-04   4.19319e-05 DIIS
   @DF-RHF iter  16:  -501.04302784473430   -5.18558e-05   1.38825e-05 DIIS
   @DF-RHF iter  17:  -501.04303383482124   -5.99009e-06   4.52189e-06 DIIS
   @DF-RHF iter  18:  -501.04303454405363   -7.09232e-07   1.48655e-06 DIIS
   @DF-RHF iter  19:  -501.04303461705149   -7.29979e-08   2.88569e-07 DIIS
   @DF-RHF iter  20:  -501.04303462090365   -3.85216e-09   8.20011e-08 DIIS
   @DF-RHF iter  21:  -501.04303462125540   -3.51747e-10   3.25492e-08 DIIS
   @DF-RHF iter  22:  -501.04303462130065   -4.52474e-11   1.22662e-08 DIIS
   @DF-RHF iter  23:  -501.04303462130974   -9.09495e-12   3.63093e-09 DIIS

  ==> Post-Iterations <==

    Orbital Energies (a.u.)
    -----------------------

    Doubly Occupied:                                                      

       1A    -20.604275     2A    -20.543947     3A    -11.371693  
       4A    -11.280380     5A    -11.233739     6A    -11.222113  
       7A    -11.218872     8A    -11.216497     9A    -11.216020  
      10A    -11.214813    11A    -11.209164    12A     -1.469015  
      13A     -1.361997    14A     -1.098895    15A     -1.067258  
      16A     -1.019634    17A     -0.977211    18A     -0.928955  
      19A     -0.862448    20A     -0.799572    21A     -0.790819  
      22A     -0.765715    23A     -0.699621    24A     -0.681490  
      25A     -0.671909    26A     -0.651505    27A     -0.628361  
      28A     -0.604329    29A     -0.593641    30A     -0.580424  
      31A     -0.571356    32A     -0.544440    33A     -0.537650  
      34A     -0.530738    35A     -0.517524    36A     -0.511313  
      37A     -0.496031    38A     -0.477787    39A     -0.470287  
      40A     -0.462461    41A     -0.459976    42A     -0.455400  
      43A     -0.444516    44A     -0.431639  

    Virtual:                                                              

      45A      0.196819    46A      0.227530    47A      0.240024  
      48A      0.258461    49A      0.262349    50A      0.266360  
      51A      0.278451    52A      0.297839    53A      0.298515  
      54A      0.309570    55A      0.317326    56A      0.322575  
      57A      0.328814    58A      0.336269    59A      0.340602  
      60A      0.343332    61A      0.349288    62A      0.354235  
      63A      0.364642    64A      0.370385    65A      0.392462  
      66A      0.408628    67A      0.434333    68A      0.448881  
      69A      0.451605    70A      0.471629    71A      0.485648  
      72A      0.545128    73A      0.581145    74A      0.691904  
      75A      0.700772    76A      0.725453    77A      0.736656  
      78A      0.740145    79A      0.752352    80A      0.761578  
      81A      0.767461    82A      0.788201    83A      0.806364  
      84A      0.826263    85A      0.827907    86A      0.858633  
      87A      0.865441    88A      0.919324    89A      0.929874  
      90A      0.951728    91A      0.959646    92A      0.974158  
      93A      0.992702    94A      1.006932    95A      1.031071  
      96A      1.047905    97A      1.078548    98A      1.099061  
      99A      1.106403   100A      1.121872   101A      1.125981  
     102A      1.132826   103A      1.136652   104A      1.145546  
     105A      1.155284   106A      1.170673   107A      1.177373  
     108A      1.188147   109A      1.198360   110A      1.207988  
     111A      1.209574   112A      1.214653   113A      1.221986  
     114A      1.228652   115A      1.229891   116A      1.240751  
     117A      1.251864   118A      1.262919   119A      1.279756  
     120A      1.283907   121A      1.298894   122A      1.361019  
     123A      1.381692   124A      1.409710   125A      1.435875  
     126A      1.459184   127A      1.541620   128A      1.592038  
     129A      1.652567   130A      1.658501   131A      1.691271  
     132A      1.695171   133A      1.719510   134A      1.761024  
     135A      1.801862   136A      1.818372   137A      1.849338  
     138A      1.887867   139A      1.917656   140A      1.933866  
     141A      1.980598   142A      2.008872   143A      2.072202  
     144A      2.103113   145A      2.106342   146A      2.124826  
     147A      2.163504   148A      2.198975   149A      2.212698  
     150A      2.222274   151A      2.234110   152A      2.255582  
     153A      2.271914   154A      2.283396   155A      2.290907  
     156A      2.328370   157A      2.339987   158A      2.345553  
     159A      2.371992   160A      2.397629   161A      2.407100  
     162A      2.412265   163A      2.447080   164A      2.463835  
     165A      2.521263   166A      2.582053   167A      2.591314  
     168A      2.643720   169A      2.647743   170A      2.673451  
     171A      2.685281   172A      2.690966   173A      2.740561  
     174A      2.770053   175A      2.782879   176A      2.794411  
     177A      2.802771   178A      2.873356   179A      2.893411  
     180A      2.933969   181A      2.961002   182A      3.001241  
     183A      3.035008   184A      3.096723   185A      3.143558  
     186A      3.160626   187A      3.207753   188A      3.350738  
     189A      3.436849   190A      3.568367   191A      4.425844  
     192A      4.538503   193A      4.587874   194A      4.657672  
     195A      4.669803   196A      4.731612   197A      4.775717  
     198A      4.832575   199A      4.888082   200A      4.973852  
     201A      5.033689  

    Final Occupation by Irrep:
              A 
    DOCC [    44 ]

  Energy converged.

  @DF-RHF Final Energy:  -501.04303462130974

   => Energetics <=

    Nuclear Repulsion Energy =            609.9296096804951048
    One-Electron Energy =               -1890.9544302179720034
    Two-Electron Energy =                 779.9817859161676097
    DFT Exchange-Correlation Energy =       0.0000000000000000
    Empirical Dispersion Energy =           0.0000000000000000
    PCM Polarization Energy =               0.0000000000000000
    EFP Energy =                            0.0000000000000000
    Total Energy =                       -501.0430346213092889

    Alert: EFP and PCM quantities not currently incorporated into SCF psivars.

Properties will be evaluated at   0.000000,   0.000000,   0.000000 Bohr
  ==> Properties <==


Properties computed using the SCF density matrix

  Nuclear Dipole Moment: (a.u.)
     X:   -18.9900      Y:     1.0831      Z:     1.9872

  Electronic Dipole Moment: (a.u.)
     X:    18.8204      Y:    -1.6813      Z:    -1.6693

  Dipole Moment: (a.u.)
     X:    -0.1696      Y:    -0.5982      Z:     0.3179     Total:     0.6984

  Dipole Moment: (Debye)
     X:    -0.4311      Y:    -1.5206      Z:     0.8081     Total:     1.7751


  Saving occupied orbitals to File 180.

*** tstop() called on cx1-3-2-4.cx1.hpc.ic.ac.uk at Sat Sep  3 08:52:55 2016
Module time:
	user time   =      59.07 seconds =       0.98 minutes
	system time =       0.64 seconds =       0.01 minutes
	total time  =         18 seconds =       0.30 minutes
Total time:
	user time   =      59.07 seconds =       0.98 minutes
	system time =       0.64 seconds =       0.01 minutes
	total time  =         18 seconds =       0.30 minutes

*** tstart() called on cx1-3-2-4.cx1.hpc.ic.ac.uk
*** at Sat Sep  3 08:52:55 2016


         ------------------------------------------------------------
                                   SCF GRAD                          
                          Rob Parrish, Justin Turney,                
                       Andy Simmonett, and Alex Sokolov              
         ------------------------------------------------------------

  ==> Geometry <==

    Molecular point group: c1
    Full point group: C1

    Geometry (in Angstrom), charge = 0, multiplicity = 1:

       Center              X                  Y                   Z               Mass       
    ------------   -----------------  -----------------  -----------------  -----------------
           O          3.178830139335     0.598975725736    -0.842238673919    15.994914619560
           C          2.654040139335    -0.313494274264    -0.289921673919    12.000000000000
           C          1.198227139335    -0.385222274264     0.102828326081    12.000000000000
           O          3.300754139335    -1.417765274264     0.062181326081    15.994914619560
           C          0.617454139335     0.969248725736     0.503108326081    12.000000000000
           H          0.664496139335    -0.825806274264    -0.732761673919     1.007825032070
           H          1.118158139335    -1.101170274264     0.916895326081     1.007825032070
           C         -0.828854860665     0.896733725736     1.004532326081    12.000000000000
           H          0.680577139335     1.649966725736    -0.340549673919     1.007825032070
           H          1.241715139335     1.397075725736     1.280079326081     1.007825032070
           C         -1.858106860665     0.483883725736    -0.051547673919    12.000000000000
           H         -1.101018860665     1.876372725736     1.390485326081     1.007825032070
           H         -0.885457860665     0.213228725736     1.850479326081     1.007825032070
           C         -3.296314860665     0.533013725736     0.468205326081    12.000000000000
           H         -1.765815860665     1.139205725736    -0.916332673919     1.007825032070
           H         -1.647429860665    -0.522274274264    -0.406841673919     1.007825032070
           C         -4.333072860665     0.117413725736    -0.577040673919    12.000000000000
           H         -3.519735860665     1.540949725736     0.813722326081     1.007825032070
           H         -3.386625860665    -0.113831274264     1.339489326081     1.007825032070
           C         -5.766988860665     0.172896725736    -0.051199673919    12.000000000000
           H         -4.243540860665     0.762139725736    -1.448794673919     1.007825032070
           H         -4.113977860665    -0.891474274264    -0.920438673919     1.007825032070
           H         -6.478230860665    -0.127080274264    -0.814584673919     1.007825032070
           H         -6.028825860665     1.177723725736     0.268112326081     1.007825032070
           H         -5.897993860665    -0.488188274264     0.800903326081     1.007825032070
           C          4.680970139335    -1.480486274264    -0.247584673919    12.000000000000
           H          4.834869139335    -1.405344274264    -1.314436673919     1.007825032070
           H          5.021063139335    -2.438906274264     0.112658326081     1.007825032070
           H          5.217907139335    -0.683042274264     0.245688326081     1.007825032070

  Nuclear repulsion =  609.929609680495105

  ==> Basis Set <==

  Basis Set: 6-31G*
    Number of shells: 102
    Number of basis function: 201
    Number of Cartesian functions: 201
    Spherical Harmonics?: false
    Max angular momentum: 2

  ==> DFJKGrad: Density-Fitted SCF Gradients <==

    Gradient:                    1
    J tasked:                  Yes
    K tasked:                  Yes
    wK tasked:                  No
    OpenMP threads:              4
    Integrals threads:           4
    Memory (MB):              1430
    Schwarz Cutoff:          0E+00
    Fitting Condition:       1E-12

   => Auxiliary Basis Set <=

  Basis Set: 
    Number of shells: 426
    Number of basis function: 1341
    Number of Cartesian functions: 1341
    Spherical Harmonics?: false
    Max angular momentum: 3


  -Total Gradient:
     Atom            X                  Y                   Z
    ------   -----------------  -----------------  -----------------
       1        0.000648834480    -0.000844002651     0.000460822673
       2       -0.000213658601     0.000544356096    -0.001877409571
       3       -0.001230335498     0.005667082092    -0.005099154756
       4       -0.001099788238    -0.000357082627     0.001064341764
       5        0.001234567513    -0.001918871010     0.004168149286
       6        0.000344606051    -0.001509443022     0.001866130018
       7        0.001079876494    -0.002045591311     0.000878063771
       8       -0.000073468669     0.000164638529    -0.000767593635
       9       -0.000235939199     0.000451510908    -0.000303187305
      10       -0.000182594980    -0.000226597978    -0.001377965635
      11       -0.000269451962    -0.000126551988     0.000377104218
      12       -0.000066117895    -0.000053857270     0.000038516123
      13        0.000013532927    -0.000052817942     0.000065227189
      14       -0.000022935907     0.000006532117    -0.000174323481
      15       -0.000020244027     0.000073086420    -0.000054175216
      16        0.000006390610    -0.000008180679    -0.000029892237
      17       -0.000035794506    -0.000010920326     0.000072190745
      18        0.000005321221    -0.000000651803     0.000011574526
      19        0.000014212939    -0.000003549604    -0.000005298878
      20       -0.000007293652    -0.000001738090    -0.000030529308
      21       -0.000003642050     0.000015606766    -0.000017688597
      22       -0.000000775432    -0.000007643056    -0.000003003521
      23       -0.000017355688    -0.000002075113     0.000000657117
      24        0.000001129789     0.000000655052     0.000004038182
      25        0.000004026198     0.000001489344    -0.000002636324
      26        0.000095399698     0.000308536054     0.000761718021
      27       -0.000132539301    -0.000004169083     0.000006366849
      28        0.000002325310     0.000006219318    -0.000003305337
      29        0.000161712370    -0.000065969142    -0.000028736679


*** tstop() called on cx1-3-2-4.cx1.hpc.ic.ac.uk at Sat Sep  3 08:53:11 2016
Module time:
	user time   =      61.61 seconds =       1.03 minutes
	system time =       0.42 seconds =       0.01 minutes
	total time  =         16 seconds =       0.27 minutes
Total time:
	user time   =     120.70 seconds =       2.01 minutes
	system time =       1.06 seconds =       0.02 minutes
	total time  =         34 seconds =       0.57 minutes
CURRENT ENERGY: -501.0430346213

			-----------------------------------------
			 OPTKING 2.0: for geometry optimizations 
			  - R.A. King,  Bethel University        
			-----------------------------------------

	Internal coordinates to be generated automatically.
	Detected frag with atoms:  1 2 3 4 5 6 7 8 9 10 11 12 13 14 15 16 17 18 19 20
	 21 22 23 24 25 26 27 28 29
	---Fragment 1 Bond Connectivity---
	 1 : 2
	 2 : 1 3 4
	 3 : 2 5 6 7
	 4 : 2 26
	 5 : 3 8 9 10
	 6 : 3
	 7 : 3
	 8 : 5 11 12 13
	 9 : 5
	 10 : 5
	 11 : 8 14 15 16
	 12 : 8
	 13 : 8
	 14 : 11 17 18 19
	 15 : 11
	 16 : 11
	 17 : 14 20 21 22
	 18 : 14
	 19 : 14
	 20 : 17 23 24 25
	 21 : 17
	 22 : 17
	 23 : 20
	 24 : 20
	 25 : 20
	 26 : 4 27 28 29
	 27 : 26
	 28 : 26
	 29 : 26

	Assuming in current code that numbering for constraints corresponds to unified fragment.
	Frozen dihedral atom list: 
	     6     3     2     1
	---Fragment 1 Geometry and Gradient---
	 O           6.0071183863        1.1319000819       -1.5916004322
	 C           5.0154090090       -0.5924183226       -0.5478725637
	 C           2.2643211383       -0.7279645986        0.1943173750
	 O           6.2375213553       -2.6791880891        0.1175056769
	 C           1.1668192230        1.8316146463        0.9507369515
	 H           1.2557157197       -1.5605476972       -1.3847188844
	 H           2.1130126566       -2.0809102440        1.7326810588
	 C          -1.5663086906        1.6945811558        1.8982909879
	 H           1.2861044056        3.1179852400       -0.6435456184
	 H           2.3465015484        2.6400905085        2.4189993547
	 C          -3.5113130923        0.9144077218       -0.0974109865
	 H          -2.0806241138        3.5458305749        2.6276364581
	 H          -1.6732728589        0.4029438953        3.4968991409
	 C          -6.2291323344        1.0072499667        0.8847798403
	 H          -3.3369083778        2.1527868307       -1.7316178003
	 H          -3.1131912598       -0.9869553446       -0.7688193432
	 C          -8.1883210205        0.2218797859       -1.0904488412
	 H          -6.6513368368        2.9119729662        1.5377123445
	 H          -6.3997953912       -0.2151099337        2.5312679842
	 C         -10.8980295581        0.3267274609       -0.0967533618
	 H          -8.0191300604        1.4402353566       -2.7378251565
	 H          -7.7742914734       -1.6846422329       -1.7393770158
	 H         -12.2420821523       -0.2401469153       -1.5393419458
	 H         -11.3928297795        2.2255753018        0.5066588691
	 H         -11.1455931301       -0.9225421396        1.5134879452
	 C           8.8457515996       -2.7977136019       -0.4678672284
	 H           9.1365785617       -2.6557158008       -2.4839253327
	 H           9.4884342293       -4.6088649221        0.2128933829
	 H           9.8604154802       -1.2907628355        0.4642836503
	             0.0006488345       -0.0008440027        0.0004608227
	            -0.0002136586        0.0005443561       -0.0018774096
	            -0.0012303355        0.0056670821       -0.0050991548
	            -0.0010997882       -0.0003570826        0.0010643418
	             0.0012345675       -0.0019188710        0.0041681493
	             0.0003446061       -0.0015094430        0.0018661300
	             0.0010798765       -0.0020455913        0.0008780638
	            -0.0000734687        0.0001646385       -0.0007675936
	            -0.0002359392        0.0004515109       -0.0003031873
	            -0.0001825950       -0.0002265980       -0.0013779656
	            -0.0002694520       -0.0001265520        0.0003771042
	            -0.0000661179       -0.0000538573        0.0000385161
	             0.0000135329       -0.0000528179        0.0000652272
	            -0.0000229359        0.0000065321       -0.0001743235
	            -0.0000202440        0.0000730864       -0.0000541752
	             0.0000063906       -0.0000081807       -0.0000298922
	            -0.0000357945       -0.0000109203        0.0000721907
	             0.0000053212       -0.0000006518        0.0000115745
	             0.0000142129       -0.0000035496       -0.0000052989
	            -0.0000072937       -0.0000017381       -0.0000305293
	            -0.0000036421        0.0000156068       -0.0000176886
	            -0.0000007754       -0.0000076431       -0.0000030035
	            -0.0000173557       -0.0000020751        0.0000006571
	             0.0000011298        0.0000006551        0.0000040382
	             0.0000040262        0.0000014893       -0.0000026363
	             0.0000953997        0.0003085361        0.0007617180
	            -0.0001325393       -0.0000041691        0.0000063668
	             0.0000023253        0.0000062193       -0.0000033053
	             0.0001617124       -0.0000659691       -0.0000287367

	Previous optimization step data not found.  Starting new optimization.

	---Fragment 1 Intrafragment Coordinates---
	 - Coordinate -           - BOHR/RAD -       - ANG/DEG -
	 R(1,2)           =         2.246359	       1.188722
	 R(2,3)           =         2.852666	       1.509566
	 R(2,4)           =         2.508166	       1.327264
	 R(3,5)           =         2.885849	       1.527126
	 R(3,6)           =         2.050326	       1.084986
	 R(3,7)           =         2.054244	       1.087059
	 R(4,26)          =         2.675738	       1.415940
	 R(5,8)           =         2.895967	       1.532480
	 R(5,9)           =         2.052003	       1.085873
	 R(5,10)          =         2.049653	       1.084630
	 R(8,11)          =         2.893880	       1.531375
	 R(8,12)          =         2.055137	       1.087532
	 R(8,13)          =         2.057988	       1.089041
	 R(11,14)         =         2.891342	       1.530033
	 R(11,15)         =         2.057822	       1.088953
	 R(11,16)         =         2.055352	       1.087645
	 R(14,17)         =         2.890805	       1.529748
	 R(14,18)         =         2.057316	       1.088685
	 R(14,19)         =         2.057720	       1.088899
	 R(17,20)         =         2.888069	       1.528301
	 R(17,21)         =         2.055934	       1.087953
	 R(17,22)         =         2.056053	       1.088017
	 R(20,23)         =         2.051557	       1.085637
	 R(20,24)         =         2.052939	       1.086368
	 R(20,25)         =         2.053007	       1.086405
	 R(26,27)         =         2.041870	       1.080511
	 R(26,28)         =         2.038810	       1.078892
	 R(26,29)         =         2.041898	       1.080526
	 B(1,2,3)         =         2.193351	     125.669742
	 B(1,2,4)         =         2.149322	     123.147102
	 B(2,3,5)         =         1.974486	     113.129722
	 B(2,3,6)         =         1.868507	     107.057575
	 B(2,3,7)         =         1.872518	     107.287399
	 B(2,4,26)        =         2.041797	     116.986327
	 B(3,2,4)         =         1.940512	     111.183155
	 B(3,5,8)         =         1.985277	     113.747967
	 B(3,5,9)         =         1.907372	     109.284364
	 B(3,5,10)        =         1.895184	     108.586056
	 B(4,26,27)       =         1.930250	     110.595168
	 B(4,26,28)       =         1.847903	     105.877042
	 B(4,26,29)       =         1.930313	     110.598792
	 B(5,3,6)         =         1.955135	     112.020979
	 B(5,3,7)         =         1.938901	     111.090828
	 B(5,8,11)        =         2.005817	     114.924846
	 B(5,8,12)        =         1.885654	     108.040011
	 B(5,8,13)        =         1.910187	     109.445626
	 B(6,3,7)         =         1.847366	     105.846277
	 B(8,5,9)         =         1.916372	     109.800055
	 B(8,5,10)        =         1.904417	     109.115084
	 B(8,11,14)       =         1.970178	     112.882909
	 B(8,11,15)       =         1.905471	     109.175460
	 B(8,11,16)       =         1.922486	     110.150348
	 B(9,5,10)        =         1.850248	     106.011416
	 B(11,8,12)       =         1.895881	     108.625952
	 B(11,8,13)       =         1.908748	     109.363179
	 B(11,14,17)      =         1.978196	     113.342272
	 B(11,14,18)      =         1.907571	     109.295772
	 B(11,14,19)      =         1.907839	     109.311128
	 B(12,8,13)       =         1.851131	     106.061986
	 B(14,11,15)      =         1.907220	     109.275642
	 B(14,11,16)      =         1.899427	     108.829176
	 B(14,17,20)      =         1.972425	     113.011603
	 B(14,17,21)      =         1.907870	     109.312871
	 B(14,17,22)      =         1.908266	     109.335584
	 B(15,11,16)      =         1.855497	     106.312143
	 B(17,14,18)      =         1.906355	     109.226089
	 B(17,14,19)      =         1.906179	     109.216029
	 B(17,20,23)      =         1.941969	     111.266625
	 B(17,20,24)      =         1.939970	     111.152118
	 B(17,20,25)      =         1.940042	     111.156239
	 B(18,14,19)      =         1.853560	     106.201146
	 B(20,17,21)      =         1.908576	     109.353360
	 B(20,17,22)      =         1.908364	     109.341190
	 B(21,17,22)      =         1.854628	     106.262352
	 B(23,20,24)      =         1.880055	     107.719194
	 B(23,20,25)      =         1.880082	     107.720752
	 B(24,20,25)      =         1.878881	     107.651939
	 B(27,26,28)      =         1.924697	     110.277038
	 B(27,26,29)      =         1.905659	     109.186237
	 B(28,26,29)      =         1.924670	     110.275491
	 D(1,2,3,5)       =        -0.591422	     -33.885991
	*D(1,2,3,6)       =         1.570796	      90.000008
	 D(1,2,3,7)       =        -2.735930	    -156.757243
	 D(1,2,4,26)      =         0.001238	       0.070917
	 D(2,3,5,8)       =        -3.066052	    -175.671861
	 D(2,3,5,9)       =         1.068738	      61.234203
	 D(2,3,5,10)      =        -0.942081	     -53.977265
	 D(2,4,26,27)     =        -1.056956	     -60.559119
	 D(2,4,26,28)     =         3.141294	     179.982889
	 D(2,4,26,29)     =         1.056357	      60.524795
	 D(3,2,4,26)      =        -3.140188	    -179.919535
	 D(3,5,8,11)      =        -1.156709	     -66.274517
	 D(3,5,8,12)      =         3.006776	     172.275590
	 D(3,5,8,13)      =         0.998597	      57.215421
	 D(4,2,3,5)       =         2.549999	     146.104169
	 D(4,2,3,6)       =        -1.570968	     -90.009833
	 D(4,2,3,7)       =         0.405491	      23.232916
	 D(5,8,11,14)     =        -3.062607	    -175.474471
	 D(5,8,11,15)     =        -0.937761	     -53.729745
	 D(5,8,11,16)     =         1.093500	      62.652949
	 D(6,3,5,8)       =         1.103187	      63.207948
	 D(6,3,5,9)       =        -1.045208	     -59.885988
	 D(6,3,5,10)      =        -3.056027	    -175.097456
	 D(7,3,5,8)       =        -0.958809	     -54.935722
	 D(7,3,5,9)       =        -3.107204	    -178.029658
	 D(7,3,5,10)      =         1.165162	      66.758874
	 D(8,11,14,17)    =        -3.137830	    -179.784427
	 D(8,11,14,18)    =         1.014678	      58.136761
	 D(8,11,14,19)    =        -1.007183	     -57.707361
	 D(9,5,8,11)      =         0.986758	      56.537046
	 D(9,5,8,12)      =        -1.132943	     -64.912847
	 D(9,5,8,13)      =        -3.141122	    -179.973016
	 D(10,5,8,11)     =         3.007640	     172.325081
	 D(10,5,8,12)     =         0.887940	      50.875188
	 D(10,5,8,13)     =        -1.120239	     -64.184981
	 D(11,14,17,20)   =        -3.138841	    -179.842345
	 D(11,14,17,21)   =        -1.009029	     -57.813091
	 D(11,14,17,22)   =         1.014519	      58.127635
	 D(12,8,11,14)    =        -0.948482	     -54.344034
	 D(12,8,11,15)    =         1.176364	      67.400693
	 D(12,8,11,16)    =        -3.075560	    -176.216614
	 D(13,8,11,14)    =         1.064507	      60.991733
	 D(13,8,11,15)    =        -3.093832	    -177.263540
	 D(13,8,11,16)    =        -1.062571	     -60.880847
	 D(14,17,20,23)   =        -3.141540	    -179.996966
	 D(14,17,20,24)   =         1.046353	      59.951589
	 D(14,17,20,25)   =        -1.046164	     -59.940772
	 D(15,11,14,17)   =         1.021495	      58.527379
	 D(15,11,14,18)   =        -1.109182	     -63.551433
	 D(15,11,14,19)   =        -3.131043	    -179.395555
	 D(16,11,14,17)   =        -0.997814	     -57.170551
	 D(16,11,14,18)   =        -3.128492	    -179.249363
	 D(16,11,14,19)   =         1.132832	      64.906515
	 D(18,14,17,20)   =        -1.007486	     -57.724715
	 D(18,14,17,21)   =         1.122326	      64.304539
	 D(18,14,17,22)   =        -3.137312	    -179.754735
	 D(19,14,17,20)   =         1.012773	      58.027615
	 D(19,14,17,21)   =        -3.140600	    -179.943132
	 D(19,14,17,22)   =        -1.117053	     -64.002406
	 D(21,17,20,23)   =         1.012230	      57.996499
	 D(21,17,20,24)   =        -1.083063	     -62.054947
	 D(21,17,20,25)   =         3.107606	     178.052693
	 D(22,17,20,23)   =        -1.011769	     -57.970091
	 D(22,17,20,24)   =        -3.107062	    -178.021536
	 D(22,17,20,25)   =         1.083607	      62.086103

	Current energy   :      -501.0430346213

	Generating empirical Hessian (Schlegel '84) for each fragment.
	Taking RFO optimization step.
	Going to follow RFO solution 1.
	Using RFO vector 1.
	Norm of target step-size    0.36929
	Projected energy change by RFO approximation:        -0.0012966949

	Back-transformation to cartesian coordinates...
	Successfully converged to displaced geometry.

	Back-transformation to cartesian coordinates to adjust frozen coordinates...
	Successfully converged to displaced geometry.

	--- Internal Coordinate Step in ANG or DEG, aJ/ANG or AJ/DEG ---
	 ---------------------------------------------------------------------------
	   Coordinate                Previous        Force       Change         New 
	   ----------                --------       ------       ------       ------
	    1 R(1,2)          =      1.188722     0.004742     0.000275     1.188997
	    2 R(2,3)          =      1.509566     0.005256     0.001071     1.510637
	    3 R(2,4)          =      1.327264    -0.000800    -0.000085     1.327179
	    4 R(3,5)          =      1.527126     0.009242     0.001991     1.529116
	    5 R(3,6)          =      1.084986     0.008187     0.001480     1.086466
	    6 R(3,7)          =      1.087059    -0.015862    -0.002887     1.084172
	    7 R(4,26)         =      1.415940     0.000397     0.000059     1.415999
	    8 R(5,8)          =      1.532480    -0.002285    -0.000501     1.531979
	    9 R(5,9)          =      1.085873    -0.004160    -0.000754     1.085119
	   10 R(5,10)         =      1.084630     0.009735     0.001758     1.086388
	   11 R(8,11)         =      1.531375    -0.001219    -0.000266     1.531109
	   12 R(8,12)         =      1.087532     0.000151     0.000027     1.087559
	   13 R(8,13)         =      1.089041    -0.000685    -0.000125     1.088915
	   14 R(11,14)        =      1.530033    -0.000082    -0.000018     1.530015
	   15 R(11,15)        =      1.088953    -0.000703    -0.000129     1.088824
	   16 R(11,16)        =      1.087645    -0.000153    -0.000028     1.087618
	   17 R(14,17)        =      1.529748    -0.000214    -0.000046     1.529702
	   18 R(14,18)        =      1.088685    -0.000016    -0.000003     1.088682
	   19 R(14,19)        =      1.088899     0.000027     0.000005     1.088904
	   20 R(17,20)        =      1.528301    -0.000069    -0.000015     1.528286
	   21 R(17,21)        =      1.087953    -0.000190    -0.000035     1.087919
	   22 R(17,22)        =      1.088017    -0.000065    -0.000012     1.088005
	   23 R(20,23)        =      1.085637    -0.000095    -0.000017     1.085620
	   24 R(20,24)        =      1.086368    -0.000013    -0.000002     1.086366
	   25 R(20,25)        =      1.086405     0.000028     0.000005     1.086410
	   26 R(26,27)        =      1.080511     0.000210     0.000037     1.080549
	   27 R(26,28)        =      1.078892     0.000049     0.000009     1.078900
	   28 R(26,29)        =      1.080526    -0.000153    -0.000027     1.080499
	   29 B(1,2,3)        =    125.669742    -0.000219    -0.869631   124.800111
	   30 B(1,2,4)        =    123.147102    -0.000050    -0.371858   122.775244
	   31 B(2,3,5)        =    113.129722    -0.000154    -0.761524   112.368197
	   32 B(2,3,6)        =    107.057575     0.000004    -0.913243   106.144332
	   33 B(2,3,7)        =    107.287399     0.000154     1.720704   109.008103
	   34 B(2,4,26)       =    116.986327    -0.000022    -0.066600   116.919727
	   35 B(3,2,4)        =    111.183155     0.000269     0.587077   111.770232
	   36 B(3,5,8)        =    113.747967     0.000010    -0.001479   113.746488
	   37 B(3,5,9)        =    109.284364    -0.000017     0.011989   109.296353
	   38 B(3,5,10)       =    108.586056     0.000013    -0.031853   108.554202
	   39 B(4,26,27)      =    110.595168     0.000019     0.093649   110.688817
	   40 B(4,26,28)      =    105.877042     0.000001     0.009699   105.886741
	   41 B(4,26,29)      =    110.598792    -0.000024    -0.120667   110.478126
	   42 B(5,3,6)        =    112.020979    -0.000019    -1.379441   110.641538
	   43 B(5,3,7)        =    111.090828     0.000028     0.654902   111.745731
	   44 B(5,8,11)       =    114.924846    -0.000036    -0.140597   114.784248
	   45 B(5,8,12)       =    108.040011     0.000005    -0.030651   108.009360
	   46 B(5,8,13)       =    109.445626     0.000014     0.065850   109.511476
	   47 B(6,3,7)        =    105.846277     0.000002     0.775706   106.621983
	   48 B(8,5,9)        =    109.800055     0.000020     0.215847   110.015902
	   49 B(8,5,10)       =    109.115084    -0.000038    -0.354230   108.760854
	   50 B(8,11,14)      =    112.882909    -0.000015    -0.055484   112.827425
	   51 B(8,11,15)      =    109.175460     0.000004     0.026144   109.201604
	   52 B(8,11,16)      =    110.150348     0.000003    -0.009529   110.140820
	   53 B(9,5,10)       =    106.011416     0.000013     0.167293   106.178708
	   54 B(11,8,12)      =    108.625952     0.000013     0.023436   108.649388
	   55 B(11,8,13)      =    109.363179     0.000011     0.050945   109.414123
	   56 B(11,14,17)     =    113.342272    -0.000007    -0.025673   113.316599
	   57 B(11,14,18)     =    109.295772     0.000002     0.003793   109.299564
	   58 B(11,14,19)     =    109.311128     0.000003     0.015455   109.326583
	   59 B(12,8,13)      =    106.061986    -0.000004     0.043423   106.105408
	   60 B(14,11,15)     =    109.275642     0.000006     0.040038   109.315680
	   61 B(14,11,16)     =    108.829176     0.000004    -0.005890   108.823286
	   62 B(14,17,20)     =    113.011603    -0.000003    -0.010777   113.000827
	   63 B(14,17,21)     =    109.312871     0.000001     0.002949   109.315820
	   64 B(14,17,22)     =    109.335584     0.000001    -0.000737   109.334847
	   65 B(15,11,16)     =    106.312143    -0.000002     0.008866   106.321009
	   66 B(17,14,18)     =    109.226089     0.000002    -0.001361   109.224729
	   67 B(17,14,19)     =    109.216029     0.000002     0.004622   109.220652
	   68 B(17,20,23)     =    111.266625    -0.000002    -0.009000   111.257625
	   69 B(17,20,24)     =    111.152118     0.000000     0.001282   111.153400
	   70 B(17,20,25)     =    111.156239     0.000001     0.004526   111.160765
	   71 B(18,14,19)     =    106.201146    -0.000001     0.005115   106.206261
	   72 B(20,17,21)     =    109.353360     0.000001     0.007010   109.360370
	   73 B(20,17,22)     =    109.341190     0.000001     0.001204   109.342394
	   74 B(21,17,22)     =    106.262352    -0.000001     0.001071   106.263424
	   75 B(23,20,24)     =    107.719194     0.000000    -0.000146   107.719048
	   76 B(23,20,25)     =    107.720752     0.000000     0.001268   107.722020
	   77 B(24,20,25)     =    107.651939    -0.000000     0.002281   107.654220
	   78 B(27,26,28)     =    110.277038    -0.000002     0.008630   110.285668
	   79 B(27,26,29)     =    109.186237    -0.000000    -0.008218   109.178019
	   80 B(28,26,29)     =    110.275491     0.000006     0.017548   110.293039
	   81 D(1,2,3,5)      =    -33.885991     0.000028     2.823183   -31.062808
	   82 *D(1,2,3,6)     =     90.000008     0.000000     0.000000    90.000008
	   83 D(1,2,3,7)      =   -156.757243     0.000018     1.257317  -155.499926
	   84 D(1,2,4,26)     =      0.070917    -0.000009     1.881548     1.952465
	   85 D(2,3,5,8)      =   -175.671861    -0.000015    -3.223113  -178.894974
	   86 D(2,3,5,9)      =     61.234203    -0.000020    -3.511984    57.722219
	   87 D(2,3,5,10)     =    -53.977265    -0.000023    -3.699749   -57.677014
	   88 D(2,4,26,27)    =    -60.559119     0.000001    -0.220693   -60.779812
	   89 D(2,4,26,28)    =    179.982889    -0.000001    -0.287347   179.695542
	   90 D(2,4,26,29)    =     60.524795    -0.000000    -0.249125    60.275670
	   91 D(3,2,4,26)     =   -179.919535    -0.000016    -6.999552  -186.919087
	   92 D(3,5,8,11)     =    -66.274517    -0.000000    -0.220697   -66.495215
	   93 D(3,5,8,12)     =    172.275590     0.000000    -0.134759   172.140830
	   94 D(3,5,8,13)     =     57.215421    -0.000001    -0.204077    57.011344
	   95 D(4,2,3,5)      =    146.104169     0.000035    11.918674   158.022843
	   96 D(4,2,3,6)      =    -90.009833     0.000007     9.095491   -80.914342
	   97 D(4,2,3,7)      =     23.232916     0.000024    10.352808    33.585724
	   98 D(5,8,11,14)    =   -175.474471     0.000000     0.094402  -175.380069
	   99 D(5,8,11,15)    =    -53.729745     0.000001     0.126875   -53.602869
	  100 D(5,8,11,16)    =     62.652949     0.000001     0.147374    62.800323
	  101 D(6,3,5,8)      =     63.207948     0.000012    -0.548898    62.659051
	  102 D(6,3,5,9)      =    -59.885988     0.000008    -0.837768   -60.723756
	  103 D(6,3,5,10)     =   -175.097456     0.000005    -1.025534  -176.122990
	  104 D(7,3,5,8)      =    -54.935722     0.000010    -1.048556   -55.984278
	  105 D(7,3,5,9)      =   -178.029658     0.000006    -1.337426  -179.367084
	  106 D(7,3,5,10)     =     66.758874     0.000003    -1.525192    65.233682
	  107 D(8,11,14,17)   =   -179.784427     0.000000     0.074499  -179.709928
	  108 D(8,11,14,18)   =     58.136761     0.000000     0.091032    58.227794
	  109 D(8,11,14,19)   =    -57.707361     0.000000     0.074145   -57.633216
	  110 D(9,5,8,11)     =     56.537046    -0.000001    -0.042421    56.494624
	  111 D(9,5,8,12)     =    -64.912847     0.000000     0.043517   -64.869331
	  112 D(9,5,8,13)     =   -179.973016    -0.000001    -0.025801  -179.998817
	  113 D(10,5,8,11)    =    172.325081     0.000001     0.077141   172.402222
	  114 D(10,5,8,12)    =     50.875188     0.000001     0.163079    51.038267
	  115 D(10,5,8,13)    =    -64.184981     0.000000     0.093762   -64.091219
	  116 D(11,14,17,20)  =   -179.842345     0.000000    -0.011910  -179.854255
	  117 D(11,14,17,21)  =    -57.813091     0.000000    -0.008124   -57.821215
	  118 D(11,14,17,22)  =     58.127635     0.000000    -0.005599    58.122036
	  119 D(12,8,11,14)   =    -54.344034    -0.000002    -0.022345   -54.366379
	  120 D(12,8,11,15)   =     67.400693    -0.000001     0.010128    67.410821
	  121 D(12,8,11,16)   =   -176.216614    -0.000001     0.030627  -176.185987
	  122 D(13,8,11,14)   =     60.991733     0.000000     0.069725    61.061459
	  123 D(13,8,11,15)   =   -177.263540     0.000001     0.102198  -177.161342
	  124 D(13,8,11,16)   =    -60.880847     0.000001     0.122697   -60.758149
	  125 D(14,17,20,23)  =   -179.996966     0.000000     0.014227  -179.982739
	  126 D(14,17,20,24)  =     59.951589     0.000000     0.019598    59.971187
	  127 D(14,17,20,25)  =    -59.940772    -0.000000     0.012831   -59.927941
	  128 D(15,11,14,17)  =     58.527379     0.000000     0.049914    58.577292
	  129 D(15,11,14,18)  =    -63.551433     0.000000     0.066447   -63.484986
	  130 D(15,11,14,19)  =   -179.395555     0.000000     0.049559  -179.345996
	  131 D(16,11,14,17)  =    -57.170551    -0.000000     0.020697   -57.149854
	  132 D(16,11,14,18)  =   -179.249363    -0.000000     0.037230  -179.212133
	  133 D(16,11,14,19)  =     64.906515    -0.000001     0.020343    64.926858
	  134 D(18,14,17,20)  =    -57.724715    -0.000000    -0.025545   -57.750260
	  135 D(18,14,17,21)  =     64.304539    -0.000000    -0.021759    64.282780
	  136 D(18,14,17,22)  =   -179.754735    -0.000000    -0.019234  -179.773969
	  137 D(19,14,17,20)  =     58.027615    -0.000000    -0.017617    58.009998
	  138 D(19,14,17,21)  =   -179.943132     0.000000    -0.013831  -179.956963
	  139 D(19,14,17,22)  =    -64.002406     0.000000    -0.011306   -64.013712
	  140 D(21,17,20,23)  =     57.996499     0.000000     0.012724    58.009222
	  141 D(21,17,20,24)  =    -62.054947     0.000000     0.018095   -62.036852
	  142 D(21,17,20,25)  =    178.052693     0.000000     0.011328   178.064020
	  143 D(22,17,20,23)  =    -57.970091    -0.000000     0.006826   -57.963264
	  144 D(22,17,20,24)  =   -178.021536    -0.000000     0.012197  -178.009339
	  145 D(22,17,20,25)  =     62.086103    -0.000000     0.005430    62.091534
	 ---------------------------------------------------------------------------

  ==> Convergence Check <==

  Measures of convergence in internal coordinates in au.
  Criteria marked as inactive (o), active & met (*), and active & unmet ( ).
  --------------------------------------------------------------------------------------------- ~
   Step     Total Energy     Delta E     MAX Force     RMS Force      MAX Disp      RMS Disp    ~
  --------------------------------------------------------------------------------------------- ~
    Convergence Criteria    1.00e-06 *    3.00e-04 *             o    1.20e-03 *             o  ~
  --------------------------------------------------------------------------------------------- ~
      1    -501.04303462   -5.01e+02      3.53e-03      6.15e-04 o    2.08e-01      3.07e-02 o  ~
  ---------------------------------------------------------------------------------------------

	Writing optimization data to binary file.
	Structure for next step:
	Cartesian Geometry (in Angstrom)
	    O     3.1463176969   0.6319448139  -0.7142622935
	    C     2.6634777597  -0.2825865395  -0.1275666878
	    C     1.2152211657  -0.3688422366   0.2933094995
	    O     3.3003364361  -1.4314983847   0.0616857723
	    C     0.6146335435   1.0042690147   0.5967189034
	    H     0.6890501295  -0.8435260512  -0.5302360842
	    H     1.1332656812  -1.0393750235   1.1413057137
	    C    -0.8468961231   0.9512176385   1.0528735771
	    H     0.7075295670   1.6378027579  -0.2793452380
	    H     1.2068766813   1.4761490146   1.3757025386
	    C    -1.8359511502   0.4774140099  -0.0155717298
	    H    -1.1349247057   1.9491344430   1.3753438638
	    H    -0.9306755396   0.3138233558   1.9317625094
	    C    -3.2916993189   0.5483050543   0.4499565362
	    H    -1.7141539871   1.0849385415  -0.9109023386
	    H    -1.6102831194  -0.5457220547  -0.3074253879
	    C    -4.2892577502   0.0706783513  -0.6068015865
	    H    -3.5301342663   1.5727214009   0.7309325726
	    H    -3.4111371661  -0.0498720939   1.3519710025
	    C    -5.7410535999   0.1478537907  -0.1356440528
	    H    -4.1707241166   0.6668666740  -1.5090634078
	    H    -4.0550216128  -0.9544682445  -0.8860184846
	    H    -6.4237275810  -0.1974307715  -0.9059075241
	    H    -6.0172061099   1.1674451158   0.1180577938
	    H    -5.9002000044  -0.4658313781   0.7465971692
	    C     4.6234953567  -1.5203722187  -0.4347055844
	    H     4.6396534692  -1.3792416768  -1.5058761582
	    H     4.9675026099  -2.5114369773  -0.1827620100
	    H     5.2527545113  -0.7756171775   0.0309667409
			--------------------------
			 OPTKING Finished Execution 
			--------------------------

    Structure for next step:
    Molecular point group: c1
    Full point group: C1

    Geometry (in Angstrom), charge = 0, multiplicity = 1:

    O            3.146337028089     0.627761716674    -0.741024864635
    C            2.663497127726    -0.286769566884    -0.154329303752
    C            1.215240644308    -0.373025257444     0.266546851362
    O            3.300355755536    -1.435681324407     0.034923141832
    C            0.614653067972     1.000085889043     0.569956232166
    H            0.689069648323    -0.847709035811    -0.556998669395
    H            1.133285166105    -1.043557993139     1.114543000807
    C           -0.846876487028     0.947034516837     1.026110870941
    H            0.707549084387     1.633619583786    -0.306107842430
    H            1.206896160543     1.471965852905     1.348939807871
    C           -1.835931438582     0.473230924456    -0.042334354296
    H           -1.134905047622     1.944951245161     1.348581133058
    H           -0.930655897114     0.309640282825     1.904999736209
    C           -3.291679496145     0.544121963388     0.423193876078
    H           -1.714134284741     1.080755409662    -0.937664894805
    H           -1.610263425040    -0.549905062019    -0.334187990129
    C           -4.289237851203     0.066495296941    -0.633564165864
    H           -3.530114425275     1.568538231805     0.704169891061
    H           -3.411117334165    -0.054055139128     1.325208273547
    C           -5.741033590040     0.143670730412    -0.162406668148
    H           -4.170704226714     0.662683574116    -1.535825918244
    H           -4.055001731689    -0.958651220610    -0.912781042615
    H           -6.423707519028    -0.201613805446    -0.932670080676
    H           -6.017186078921     1.163261977605     0.091295159055
    H           -5.900179982357    -0.470014391572     0.719834486436
    C            4.623514575103    -1.524555151620    -0.461468176890
    H            4.639672686292    -1.383424620526    -1.532638668963
    H            4.967521801959    -2.515619834554    -0.209524621784
    H            5.252773681652    -0.779800167256     0.004204112792

gradient() will perform analytic gradient computation.

*** tstart() called on cx1-3-2-4.cx1.hpc.ic.ac.uk
*** at Sat Sep  3 08:53:13 2016


         ---------------------------------------------------------
                                   SCF
            by Justin Turney, Rob Parrish, and Andy Simmonett
                              RHF Reference
                        4 Threads,   2000 MiB Core
         ---------------------------------------------------------

  ==> Geometry <==

    Molecular point group: c1
    Full point group: C1

    Geometry (in Angstrom), charge = 0, multiplicity = 1:

       Center              X                  Y                   Z               Mass       
    ------------   -----------------  -----------------  -----------------  -----------------
           O          3.146337028089     0.627761716674    -0.741024864635    15.994914619560
           C          2.663497127726    -0.286769566884    -0.154329303752    12.000000000000
           C          1.215240644308    -0.373025257444     0.266546851362    12.000000000000
           O          3.300355755536    -1.435681324407     0.034923141832    15.994914619560
           C          0.614653067972     1.000085889043     0.569956232166    12.000000000000
           H          0.689069648323    -0.847709035811    -0.556998669395     1.007825032070
           H          1.133285166105    -1.043557993139     1.114543000807     1.007825032070
           C         -0.846876487028     0.947034516837     1.026110870941    12.000000000000
           H          0.707549084387     1.633619583786    -0.306107842430     1.007825032070
           H          1.206896160543     1.471965852905     1.348939807871     1.007825032070
           C         -1.835931438582     0.473230924456    -0.042334354296    12.000000000000
           H         -1.134905047622     1.944951245161     1.348581133058     1.007825032070
           H         -0.930655897114     0.309640282825     1.904999736209     1.007825032070
           C         -3.291679496145     0.544121963388     0.423193876078    12.000000000000
           H         -1.714134284741     1.080755409662    -0.937664894805     1.007825032070
           H         -1.610263425040    -0.549905062019    -0.334187990129     1.007825032070
           C         -4.289237851203     0.066495296941    -0.633564165864    12.000000000000
           H         -3.530114425275     1.568538231805     0.704169891061     1.007825032070
           H         -3.411117334165    -0.054055139128     1.325208273547     1.007825032070
           C         -5.741033590040     0.143670730412    -0.162406668148    12.000000000000
           H         -4.170704226714     0.662683574116    -1.535825918244     1.007825032070
           H         -4.055001731689    -0.958651220610    -0.912781042615     1.007825032070
           H         -6.423707519028    -0.201613805446    -0.932670080676     1.007825032070
           H         -6.017186078921     1.163261977605     0.091295159055     1.007825032070
           H         -5.900179982357    -0.470014391572     0.719834486436     1.007825032070
           C          4.623514575103    -1.524555151620    -0.461468176890    12.000000000000
           H          4.639672686292    -1.383424620526    -1.532638668963     1.007825032070
           H          4.967521801959    -2.515619834554    -0.209524621784     1.007825032070
           H          5.252773681652    -0.779800167256     0.004204112792     1.007825032070

  Running in c1 symmetry.

  Rotational constants: A =      0.11256  B =      0.00923  C =      0.00895 [cm^-1]
  Rotational constants: A =   3374.50957  B =    276.67542  C =    268.16645 [MHz]
  Nuclear repulsion =  610.436751486245043

  Charge       = 0
  Multiplicity = 1
  Electrons    = 88
  Nalpha       = 44
  Nbeta        = 44

  ==> Algorithm <==

  SCF Algorithm Type is DF.
  DIIS enabled.
  MOM disabled.
  Fractional occupation disabled.
  Guess Type is READ.
  Energy threshold   = 1.00e-08
  Density threshold  = 1.00e-08
  Integral threshold = 0.00e+00

  ==> Primary Basis <==

  Basis Set: 6-31G*
    Number of shells: 102
    Number of basis function: 201
    Number of Cartesian functions: 201
    Spherical Harmonics?: false
    Max angular momentum: 2

  ==> Pre-Iterations <==

   -------------------------------------------------------
    Irrep   Nso     Nmo     Nalpha   Nbeta   Ndocc  Nsocc
   -------------------------------------------------------
     A        201     201       0       0       0       0
   -------------------------------------------------------
    Total     201     201      44      44      44       0
   -------------------------------------------------------

 OEINTS: Overlap, kinetic, potential, dipole, and quadrupole integrals
         stored in file 35.

  ==> Integral Setup <==

  ==> DFJK: Density-Fitted J/K Matrices <==

    J tasked:                  Yes
    K tasked:                  Yes
    wK tasked:                  No
    OpenMP threads:              4
    Integrals threads:           4
    Memory (MB):              1430
    Algorithm:                Core
    Integral Cache:           NONE
    Schwarz Cutoff:          1E-12
    Fitting Condition:       1E-12

   => Auxiliary Basis Set <=

  Basis Set: 
    Number of shells: 426
    Number of basis function: 1341
    Number of Cartesian functions: 1341
    Spherical Harmonics?: false
    Max angular momentum: 3

  Minimum eigenvalue in the overlap matrix is 2.5111052426E-03.
  Using Symmetric Orthogonalization.
  SCF Guess: Reading in previously saved MOs, projecting if necessary.

  Using orbitals from previous SCF, no projection.
  Recomputing DOCC and SOCC from number of alpha and beta electrons from previous calculation.
              A 
    DOCC [    44 ]

  ==> Iterations <==

                           Total Energy        Delta E     RMS |[F,P]|

   @DF-RHF iter   0:  -500.99480216316681   -5.00995e+02   1.66247e-03 
   @DF-RHF iter   1:  -501.03910445520989   -4.43023e-02   2.72584e-04 
   @DF-RHF iter   2:  -501.04194625311391   -2.84180e-03   1.04202e-04 DIIS
   @DF-RHF iter   3:  -501.04237885309988   -4.32600e-04   5.48665e-05 DIIS
   @DF-RHF iter   4:  -501.04245726513943   -7.84120e-05   1.32715e-05 DIIS
   @DF-RHF iter   5:  -501.04246648048877   -9.21535e-06   6.82364e-06 DIIS
   @DF-RHF iter   6:  -501.04247070955068   -4.22906e-06   2.71835e-06 DIIS
   @DF-RHF iter   7:  -501.04247135391972   -6.44369e-07   1.12377e-06 DIIS
   @DF-RHF iter   8:  -501.04247143938267   -8.54629e-08   2.32866e-07 DIIS
   @DF-RHF iter   9:  -501.04247144259477   -3.21211e-09   6.77865e-08 DIIS
   @DF-RHF iter  10:  -501.04247144283420   -2.39424e-10   2.35218e-08 DIIS
   @DF-RHF iter  11:  -501.04247144286558   -3.13776e-11   7.25590e-09 DIIS

  ==> Post-Iterations <==

    Orbital Energies (a.u.)
    -----------------------

    Doubly Occupied:                                                      

       1A    -20.603958     2A    -20.543983     3A    -11.371847  
       4A    -11.280359     5A    -11.234778     6A    -11.220515  
       7A    -11.218016     8A    -11.216078     9A    -11.215768  
      10A    -11.214502    11A    -11.208983    12A     -1.469201  
      13A     -1.361682    14A     -1.098436    15A     -1.066756  
      16A     -1.019058    17A     -0.977010    18A     -0.928885  
      19A     -0.861765    20A     -0.799018    21A     -0.790544  
      22A     -0.764757    23A     -0.700616    24A     -0.681443  
      25A     -0.671899    26A     -0.651042    27A     -0.629173  
      28A     -0.604274    29A     -0.594457    30A     -0.580085  
      31A     -0.570148    32A     -0.545225    33A     -0.536304  
      34A     -0.530217    35A     -0.516124    36A     -0.510913  
      37A     -0.496964    38A     -0.477428    39A     -0.470096  
      40A     -0.462288    41A     -0.458622    42A     -0.455776  
      43A     -0.443668    44A     -0.432160  

    Virtual:                                                              

      45A      0.192119    46A      0.228405    47A      0.241460  
      48A      0.258845    49A      0.262533    50A      0.267204  
      51A      0.278452    52A      0.298379    53A      0.300942  
      54A      0.310489    55A      0.317258    56A      0.322229  
      57A      0.327459    58A      0.336405    59A      0.341098  
      60A      0.343891    61A      0.350817    62A      0.354401  
      63A      0.365093    64A      0.371255    65A      0.392821  
      66A      0.407877    67A      0.433521    68A      0.450093  
      69A      0.454347    70A      0.470012    71A      0.487734  
      72A      0.541187    73A      0.581021    74A      0.692187  
      75A      0.702448    76A      0.726835    77A      0.734841  
      78A      0.740216    79A      0.752288    80A      0.761007  
      81A      0.769185    82A      0.788583    83A      0.804823  
      84A      0.824764    85A      0.829607    86A      0.860470  
      87A      0.865619    88A      0.914196    89A      0.933112  
      90A      0.951656    91A      0.961128    92A      0.973542  
      93A      0.991239    94A      1.002583    95A      1.035107  
      96A      1.047790    97A      1.080960    98A      1.102789  
      99A      1.107618   100A      1.122092   101A      1.127163  
     102A      1.130620   103A      1.136560   104A      1.145699  
     105A      1.157866   106A      1.170886   107A      1.177364  
     108A      1.188524   109A      1.196145   110A      1.209171  
     111A      1.210215   112A      1.215029   113A      1.224136  
     114A      1.227750   115A      1.233021   116A      1.241807  
     117A      1.253583   118A      1.262185   119A      1.279621  
     120A      1.286333   121A      1.301182   122A      1.349175  
     123A      1.377211   124A      1.417423   125A      1.442002  
     126A      1.462785   127A      1.551815   128A      1.600115  
     129A      1.644466   130A      1.659139   131A      1.683260  
     132A      1.697023   133A      1.725290   134A      1.763273  
     135A      1.801886   136A      1.819731   137A      1.848019  
     138A      1.892732   139A      1.908393   140A      1.933143  
     141A      1.971212   142A      2.019493   143A      2.077352  
     144A      2.101525   145A      2.112781   146A      2.123925  
     147A      2.168507   148A      2.199798   149A      2.213526  
     150A      2.223193   151A      2.244146   152A      2.259438  
     153A      2.265975   154A      2.284612   155A      2.295381  
     156A      2.324047   157A      2.341523   158A      2.350534  
     159A      2.373234   160A      2.399293   161A      2.405455  
     162A      2.414902   163A      2.448544   164A      2.460362  
     165A      2.526421   166A      2.580558   167A      2.591684  
     168A      2.640028   169A      2.643620   170A      2.672865  
     171A      2.685558   172A      2.696561   173A      2.736770  
     174A      2.756931   175A      2.770282   176A      2.793874  
     177A      2.800598   178A      2.887224   179A      2.899336  
     180A      2.934702   181A      2.959874   182A      3.002295  
     183A      3.034598   184A      3.084625   185A      3.148903  
     186A      3.165133   187A      3.206763   188A      3.349778  
     189A      3.437099   190A      3.570973   191A      4.425410  
     192A      4.540167   193A      4.590189   194A      4.654961  
     195A      4.671416   196A      4.743420   197A      4.770436  
     198A      4.827053   199A      4.879893   200A      4.968348  
     201A      5.032037  

    Final Occupation by Irrep:
              A 
    DOCC [    44 ]

  Energy converged.

  @DF-RHF Final Energy:  -501.04247144286558

   => Energetics <=

    Nuclear Repulsion Energy =            610.4367514862450435
    One-Electron Energy =               -1891.9887982992781872
    Two-Electron Energy =                 780.5095753701673402
    DFT Exchange-Correlation Energy =       0.0000000000000000
    Empirical Dispersion Energy =           0.0000000000000000
    PCM Polarization Energy =               0.0000000000000000
    EFP Energy =                            0.0000000000000000
    Total Energy =                       -501.0424714428656898

    Alert: EFP and PCM quantities not currently incorporated into SCF psivars.

Properties will be evaluated at   0.000000,   0.000000,   0.000000 Bohr
  ==> Properties <==


Properties computed using the SCF density matrix

  Nuclear Dipole Moment: (a.u.)
     X:   -19.0008      Y:     0.9627      Z:     1.2185

  Electronic Dipole Moment: (a.u.)
     X:    18.8463      Y:    -1.5720      Z:    -0.9564

  Dipole Moment: (a.u.)
     X:    -0.1545      Y:    -0.6093      Z:     0.2620     Total:     0.6810

  Dipole Moment: (Debye)
     X:    -0.3927      Y:    -1.5487      Z:     0.6660     Total:     1.7310


  Saving occupied orbitals to File 180.

*** tstop() called on cx1-3-2-4.cx1.hpc.ic.ac.uk at Sat Sep  3 08:53:26 2016
Module time:
	user time   =      42.75 seconds =       0.71 minutes
	system time =       0.48 seconds =       0.01 minutes
	total time  =         13 seconds =       0.22 minutes
Total time:
	user time   =     165.66 seconds =       2.76 minutes
	system time =       1.60 seconds =       0.03 minutes
	total time  =         49 seconds =       0.82 minutes

*** tstart() called on cx1-3-2-4.cx1.hpc.ic.ac.uk
*** at Sat Sep  3 08:53:26 2016


         ------------------------------------------------------------
                                   SCF GRAD                          
                          Rob Parrish, Justin Turney,                
                       Andy Simmonett, and Alex Sokolov              
         ------------------------------------------------------------

  ==> Geometry <==

    Molecular point group: c1
    Full point group: C1

    Geometry (in Angstrom), charge = 0, multiplicity = 1:

       Center              X                  Y                   Z               Mass       
    ------------   -----------------  -----------------  -----------------  -----------------
           O          3.146337028089     0.627761716674    -0.741024864635    15.994914619560
           C          2.663497127726    -0.286769566884    -0.154329303752    12.000000000000
           C          1.215240644308    -0.373025257444     0.266546851362    12.000000000000
           O          3.300355755536    -1.435681324407     0.034923141832    15.994914619560
           C          0.614653067972     1.000085889043     0.569956232166    12.000000000000
           H          0.689069648323    -0.847709035811    -0.556998669395     1.007825032070
           H          1.133285166105    -1.043557993139     1.114543000807     1.007825032070
           C         -0.846876487028     0.947034516837     1.026110870941    12.000000000000
           H          0.707549084387     1.633619583786    -0.306107842430     1.007825032070
           H          1.206896160543     1.471965852905     1.348939807871     1.007825032070
           C         -1.835931438582     0.473230924456    -0.042334354296    12.000000000000
           H         -1.134905047622     1.944951245161     1.348581133058     1.007825032070
           H         -0.930655897114     0.309640282825     1.904999736209     1.007825032070
           C         -3.291679496145     0.544121963388     0.423193876078    12.000000000000
           H         -1.714134284741     1.080755409662    -0.937664894805     1.007825032070
           H         -1.610263425040    -0.549905062019    -0.334187990129     1.007825032070
           C         -4.289237851203     0.066495296941    -0.633564165864    12.000000000000
           H         -3.530114425275     1.568538231805     0.704169891061     1.007825032070
           H         -3.411117334165    -0.054055139128     1.325208273547     1.007825032070
           C         -5.741033590040     0.143670730412    -0.162406668148    12.000000000000
           H         -4.170704226714     0.662683574116    -1.535825918244     1.007825032070
           H         -4.055001731689    -0.958651220610    -0.912781042615     1.007825032070
           H         -6.423707519028    -0.201613805446    -0.932670080676     1.007825032070
           H         -6.017186078921     1.163261977605     0.091295159055     1.007825032070
           H         -5.900179982357    -0.470014391572     0.719834486436     1.007825032070
           C          4.623514575103    -1.524555151620    -0.461468176890    12.000000000000
           H          4.639672686292    -1.383424620526    -1.532638668963     1.007825032070
           H          4.967521801959    -2.515619834554    -0.209524621784     1.007825032070
           H          5.252773681652    -0.779800167256     0.004204112792     1.007825032070

  Nuclear repulsion =  610.436751486245043

  ==> Basis Set <==

  Basis Set: 6-31G*
    Number of shells: 102
    Number of basis function: 201
    Number of Cartesian functions: 201
    Spherical Harmonics?: false
    Max angular momentum: 2

  ==> DFJKGrad: Density-Fitted SCF Gradients <==

    Gradient:                    1
    J tasked:                  Yes
    K tasked:                  Yes
    wK tasked:                  No
    OpenMP threads:              4
    Integrals threads:           4
    Memory (MB):              1430
    Schwarz Cutoff:          0E+00
    Fitting Condition:       1E-12

   => Auxiliary Basis Set <=

  Basis Set: 
    Number of shells: 426
    Number of basis function: 1341
    Number of Cartesian functions: 1341
    Spherical Harmonics?: false
    Max angular momentum: 3


  -Total Gradient:
     Atom            X                  Y                   Z
    ------   -----------------  -----------------  -----------------
       1       -0.002533955300    -0.004728776970    -0.007239847435
       2        0.005931071478     0.009799525918     0.020194656365
       3       -0.001831592610    -0.003824815870    -0.005725179942
       4       -0.000779768496    -0.001582902985    -0.005332269744
       5        0.000593958404    -0.000190682706    -0.000829850228
       6       -0.002027235758     0.000868072256     0.000327009139
       7        0.000463354972    -0.000347857726    -0.000348588731
       8        0.000013663421    -0.000251745013    -0.000032046183
       9       -0.000125205753     0.000672453627    -0.000246081632
      10        0.000020577382    -0.000257061644    -0.000028541011
      11        0.000153222663    -0.000022262937    -0.000130988581
      12        0.000119417567     0.000037283184    -0.000025053309
      13        0.000055867367    -0.000012440616     0.000015631221
      14        0.000052497173     0.000044396198     0.000124195516
      15        0.000005714142    -0.000009651011    -0.000027614954
      16        0.000104000522     0.000024236146     0.000013044200
      17        0.000050756137    -0.000004942934    -0.000042302681
      18       -0.000017259448     0.000005793728     0.000003709841
      19       -0.000018225538    -0.000000591697     0.000010490186
      20        0.000015742839     0.000007917506     0.000032739220
      21        0.000001627596    -0.000003042042    -0.000001945205
      22        0.000002200349     0.000006031594     0.000000835169
      23        0.000020468527     0.000000923940    -0.000001122121
      24       -0.000001601903    -0.000000141754    -0.000000975843
      25       -0.000003959155    -0.000000036066     0.000000400142
      26       -0.000391247336    -0.000301625721    -0.000777740893
      27        0.000386437498    -0.000091739193    -0.000049290050
      28        0.000043574051    -0.000015726094    -0.000076124686
      29       -0.000304100797     0.000179408888     0.000192852232


*** tstop() called on cx1-3-2-4.cx1.hpc.ic.ac.uk at Sat Sep  3 08:53:43 2016
Module time:
	user time   =      61.42 seconds =       1.02 minutes
	system time =       0.35 seconds =       0.01 minutes
	total time  =         17 seconds =       0.28 minutes
Total time:
	user time   =     227.10 seconds =       3.78 minutes
	system time =       1.95 seconds =       0.03 minutes
	total time  =         66 seconds =       1.10 minutes
CURRENT ENERGY: -501.0424714429

			-----------------------------------------
			 OPTKING 2.0: for geometry optimizations 
			  - R.A. King,  Bethel University        
			-----------------------------------------

	Previous internal coordinate definitions found.
	---Fragment 1 Geometry and Gradient---
	 O           5.9457153048        1.1862977212       -1.4003340518
	 C           5.0332801271       -0.5419159447       -0.2916401184
	 C           2.2964720033       -0.7049155772        0.5037005507
	 O           6.2367685191       -2.7130445172        0.0659951738
	 C           1.1615259652        1.8898884397        1.0770611865
	 H           1.3021529218       -1.6019379181       -1.0525749415
	 H           2.1415985944       -1.9720388108        2.1061810348
	 C          -1.6003646289        1.7896358752        1.9390685281
	 H           1.3370739951        3.0870936187       -0.5784599893
	 H           2.2807032143        2.7816123389        2.5491268066
	 C          -3.4694076177        0.8942768448       -0.0800003356
	 H          -2.1446597268        3.6754251952        2.5484490095
	 H          -1.7586847695        0.5851353342        3.5999277847
	 C          -6.2203727649        1.0282414937        0.7997205269
	 H          -3.2392443531        2.0423317409       -1.7719298556
	 H          -3.0429568751       -1.0391699663       -0.6315237782
	 C          -8.1054848576        0.1256579003       -1.1972627611
	 H          -6.6709494815        2.9641076871        1.3306882451
	 H          -6.4460775687       -0.1021494090        2.5042807060
	 C         -10.8489812049        0.2714983338       -0.3069041250
	 H          -7.8814887698        1.2522904678       -2.9022903733
	 H          -7.6628427413       -1.8115882639       -1.7249061898
	 H         -12.1390479687       -0.3809948769       -1.7624910248
	 H         -11.3708337798        2.1982465585        0.1725228479
	 H         -11.1497243014       -0.8881984786        1.3602900404
	 C           8.7371763184       -2.8809917110       -0.8720484734
	 H           8.7677107233       -2.6142936583       -2.8962673450
	 H           9.3872557648       -4.7538325418       -0.3959441533
	 H           9.9263036964       -1.4736087545        0.0079446218
	            -0.0025339553       -0.0047287770       -0.0072398474
	             0.0059310715        0.0097995259        0.0201946564
	            -0.0018315926       -0.0038248159       -0.0057251799
	            -0.0007797685       -0.0015829030       -0.0053322697
	             0.0005939584       -0.0001906827       -0.0008298502
	            -0.0020272358        0.0008680723        0.0003270091
	             0.0004633550       -0.0003478577       -0.0003485887
	             0.0000136634       -0.0002517450       -0.0000320462
	            -0.0001252058        0.0006724536       -0.0002460816
	             0.0000205774       -0.0002570616       -0.0000285410
	             0.0001532227       -0.0000222629       -0.0001309886
	             0.0001194176        0.0000372832       -0.0000250533
	             0.0000558674       -0.0000124406        0.0000156312
	             0.0000524972        0.0000443962        0.0001241955
	             0.0000057141       -0.0000096510       -0.0000276150
	             0.0001040005        0.0000242361        0.0000130442
	             0.0000507561       -0.0000049429       -0.0000423027
	            -0.0000172594        0.0000057937        0.0000037098
	            -0.0000182255       -0.0000005917        0.0000104902
	             0.0000157428        0.0000079175        0.0000327392
	             0.0000016276       -0.0000030420       -0.0000019452
	             0.0000022003        0.0000060316        0.0000008352
	             0.0000204685        0.0000009239       -0.0000011221
	            -0.0000016019       -0.0000001418       -0.0000009758
	            -0.0000039592       -0.0000000361        0.0000004001
	            -0.0003912473       -0.0003016257       -0.0007777409
	             0.0003864375       -0.0000917392       -0.0000492900
	             0.0000435741       -0.0000157261       -0.0000761247
	            -0.0003041008        0.0001794089        0.0001928522

	---Fragment 1 Intrafragment Coordinates---
	 - Coordinate -           - BOHR/RAD -       - ANG/DEG -
	 R(1,2)           =         2.246878	       1.188997
	 R(2,3)           =         2.854690	       1.510637
	 R(2,4)           =         2.508005	       1.327179
	 R(3,5)           =         2.889611	       1.529116
	 R(3,6)           =         2.053123	       1.086466
	 R(3,7)           =         2.048788	       1.084172
	 R(4,26)          =         2.675850	       1.415999
	 R(5,8)           =         2.895021	       1.531979
	 R(5,9)           =         2.050577	       1.085119
	 R(5,10)          =         2.052975	       1.086388
	 R(8,11)          =         2.893377	       1.531109
	 R(8,12)          =         2.055189	       1.087559
	 R(8,13)          =         2.057751	       1.088915
	 R(11,14)         =         2.891308	       1.530015
	 R(11,15)         =         2.057579	       1.088824
	 R(11,16)         =         2.055299	       1.087618
	 R(14,17)         =         2.890717	       1.529702
	 R(14,18)         =         2.057310	       1.088682
	 R(14,19)         =         2.057730	       1.088904
	 R(17,20)         =         2.888041	       1.528286
	 R(17,21)         =         2.055868	       1.087919
	 R(17,22)         =         2.056031	       1.088005
	 R(20,23)         =         2.051525	       1.085620
	 R(20,24)         =         2.052934	       1.086366
	 R(20,25)         =         2.053017	       1.086410
	 R(26,27)         =         2.041941	       1.080549
	 R(26,28)         =         2.038826	       1.078900
	 R(26,29)         =         2.041847	       1.080499
	 B(1,2,3)         =         2.178173	     124.800111
	 B(1,2,4)         =         2.142832	     122.775244
	 B(2,3,5)         =         1.961195	     112.368197
	 B(2,3,6)         =         1.852568	     106.144332
	 B(2,3,7)         =         1.902550	     109.008103
	 B(2,4,26)        =         2.040634	     116.919727
	 B(3,2,4)         =         1.950759	     111.770232
	 B(3,5,8)         =         1.985251	     113.746488
	 B(3,5,9)         =         1.907581	     109.296353
	 B(3,5,10)        =         1.894628	     108.554202
	 B(4,26,27)       =         1.931884	     110.688817
	 B(4,26,28)       =         1.848072	     105.886741
[...]
	    5 R(3,6)          =      1.086740    -0.000059    -0.000005     1.086735
	    6 R(3,7)          =      1.083638    -0.000010    -0.000005     1.083633
	    7 R(4,26)         =      1.416230     0.000052     0.000010     1.416240
	    8 R(5,8)          =      1.532415     0.000099     0.000017     1.532432
	    9 R(5,9)          =      1.084386    -0.000012    -0.000001     1.084385
	   10 R(5,10)         =      1.086494     0.000057     0.000010     1.086504
	   11 R(8,11)         =      1.531355     0.000119     0.000019     1.531374
	   12 R(8,12)         =      1.087564    -0.000018    -0.000002     1.087562
	   13 R(8,13)         =      1.088895     0.000033     0.000004     1.088899
	   14 R(11,14)        =      1.530099    -0.000022    -0.000003     1.530096
	   15 R(11,15)        =      1.088802     0.000058     0.000009     1.088811
	   16 R(11,16)        =      1.087623    -0.000068    -0.000007     1.087616
	   17 R(14,17)        =      1.529743     0.000003     0.000003     1.529746
	   18 R(14,18)        =      1.088679    -0.000030    -0.000005     1.088674
	   19 R(14,19)        =      1.088899     0.000017     0.000002     1.088900
	   20 R(17,20)        =      1.528302     0.000003     0.000002     1.528303
	   21 R(17,21)        =      1.087920    -0.000000    -0.000000     1.087919
	   22 R(17,22)        =      1.088011    -0.000000     0.000000     1.088011
	   23 R(20,23)        =      1.085632    -0.000000     0.000000     1.085632
	   24 R(20,24)        =      1.086366     0.000004     0.000000     1.086367
	   25 R(20,25)        =      1.086411    -0.000003    -0.000001     1.086410
	   26 R(26,27)        =      1.080519    -0.000012     0.000001     1.080521
	   27 R(26,28)        =      1.078863    -0.000021    -0.000004     1.078860
	   28 R(26,29)        =      1.080413    -0.000023    -0.000008     1.080405
	   29 B(1,2,3)        =    124.971533    -0.000001    -0.003662   124.967870
	   30 B(1,2,4)        =    123.119311    -0.000001    -0.004430   123.114882
	   31 B(2,3,5)        =    112.518812     0.000001     0.007400   112.526213
	   32 B(2,3,6)        =    105.999892    -0.000000     0.002130   106.002022
	   33 B(2,3,7)        =    108.970327    -0.000000     0.003040   108.973367
	   34 B(2,4,26)       =    116.946611     0.000000     0.003033   116.949645
	   35 B(3,2,4)        =    111.878963     0.000002     0.007853   111.886816
	   36 B(3,5,8)        =    113.780943     0.000002     0.005325   113.786268
	   37 B(3,5,9)        =    109.088370    -0.000001    -0.003199   109.085171
	   38 B(3,5,10)       =    108.646047    -0.000000     0.004667   108.650714
	   39 B(4,26,27)      =    110.590808     0.000000    -0.004965   110.585843
	   40 B(4,26,28)      =    105.866214    -0.000001    -0.003289   105.862925
	   41 B(4,26,29)      =    110.559714    -0.000000     0.004385   110.564099
	   42 B(5,3,6)        =    110.578340     0.000000     0.001564   110.579904
	   43 B(5,3,7)        =    111.573648    -0.000001    -0.007855   111.565793
	   44 B(5,8,11)       =    114.870811     0.000001     0.001501   114.872311
	   45 B(5,8,12)       =    107.998350    -0.000001    -0.002076   107.996274
	   46 B(5,8,13)       =    109.508460     0.000000     0.002921   109.511380
	   47 B(6,3,7)        =    106.898163    -0.000000    -0.006433   106.891731
	   48 B(8,5,9)        =    110.060785    -0.000000    -0.001071   110.059714
	   49 B(8,5,10)       =    108.769530    -0.000001    -0.003082   108.766448
	   50 B(8,11,14)      =    112.849205     0.000000     0.001260   112.850465
	   51 B(8,11,15)      =    109.184587     0.000000     0.004867   109.189454
	   52 B(8,11,16)      =    110.162830     0.000000    -0.002866   110.159965
	   53 B(9,5,10)       =    106.209326     0.000000    -0.003127   106.206199
	   54 B(11,8,12)      =    108.616156    -0.000000    -0.002131   108.614024
	   55 B(11,8,13)      =    109.392064    -0.000000     0.001110   109.393174
	   56 B(11,14,17)     =    113.331665     0.000000     0.001176   113.332841
	   57 B(11,14,18)     =    109.297273    -0.000000    -0.001962   109.295310
	   58 B(11,14,19)     =    109.316655     0.000000     0.000373   109.317028
	   59 B(12,8,13)      =    106.079489     0.000000    -0.001688   106.077802
	   60 B(14,11,15)     =    109.300827    -0.000000     0.000783   109.301611
	   61 B(14,11,16)     =    108.805878    -0.000000    -0.004604   108.801274
	   62 B(14,17,20)     =    113.008037     0.000000     0.000560   113.008597
	   63 B(14,17,21)     =    109.313205    -0.000000    -0.000914   109.312291
	   64 B(14,17,22)     =    109.334782     0.000000     0.000583   109.335366
	   65 B(15,11,16)     =    106.325299     0.000000     0.000518   106.325817
	   66 B(17,14,18)     =    109.223893     0.000000    -0.000067   109.223827
	   67 B(17,14,19)     =    109.218617    -0.000000     0.000293   109.218911
	   68 B(17,20,23)     =    111.263186     0.000000     0.000415   111.263601
	   69 B(17,20,24)     =    111.152172     0.000000     0.000059   111.152232
	   70 B(17,20,25)     =    111.158469    -0.000000    -0.000298   111.158171
	   71 B(18,14,19)     =    106.205279     0.000000     0.000123   106.205402
	   72 B(20,17,21)     =    109.357515    -0.000000    -0.000535   109.356980
	   73 B(20,17,22)     =    109.340750    -0.000000     0.000288   109.341037
	   74 B(21,17,22)     =    106.262925     0.000000    -0.000017   106.262907
	   75 B(23,20,24)     =    107.718604    -0.000000    -0.000158   107.718447
	   76 B(23,20,25)     =    107.721419     0.000000     0.000020   107.721439
	   77 B(24,20,25)     =    107.653094     0.000000    -0.000050   107.653044
	   78 B(27,26,28)     =    110.301156     0.000000     0.000080   110.301236
	   79 B(27,26,29)     =    109.189345     0.000000     0.001366   109.190711
	   80 B(28,26,29)     =    110.302520     0.000000     0.002322   110.304842
	   81 D(1,2,3,5)      =    -30.978491    -0.000000    -0.007637   -30.986129
	   82 *D(1,2,3,6)     =     90.000008    -0.000000     0.000000    90.000008
	   83 D(1,2,3,7)      =   -155.271456    -0.000000    -0.004926  -155.276382
	   84 D(1,2,4,26)     =     -0.715570    -0.000000    -0.004860    -0.720430
	   85 D(2,3,5,8)      =   -178.649821     0.000000    -0.023394  -178.673215
	   86 D(2,3,5,9)      =     58.041895     0.000000    -0.023334    58.018561
	   87 D(2,3,5,10)     =    -57.331922     0.000000    -0.020436   -57.352359
	   88 D(2,4,26,27)    =    -60.310848    -0.000000     0.017450   -60.293398
	   89 D(2,4,26,28)    =   -179.788934    -0.000000     0.021977  -179.766957
	   90 D(2,4,26,29)    =     60.748096     0.000000     0.018784    60.766879
	   91 D(3,2,4,26)     =    177.374584    -0.000000    -0.012440   177.362144
	   92 D(3,5,8,11)     =    -66.476234    -0.000000    -0.168833   -66.645067
	   93 D(3,5,8,12)     =    172.153326    -0.000000    -0.165549   171.987777
	   94 D(3,5,8,13)     =     57.062088    -0.000000    -0.163956    56.898133
	   95 D(4,2,3,5)      =    150.973551    -0.000000     0.000122   150.973673
	   96 D(4,2,3,6)      =    -88.047950     0.000000     0.007759   -88.040191
	   97 D(4,2,3,7)      =     26.680586     0.000000     0.002833    26.683419
	   98 D(5,8,11,14)    =   -175.188155    -0.000000    -0.155132  -175.343287
	   99 D(5,8,11,15)    =    -53.427398     0.000000    -0.149828   -53.577226
	  100 D(5,8,11,16)    =     62.983631     0.000000    -0.148002    62.835629
	  101 D(6,3,5,8)      =     63.031078     0.000000    -0.031946    62.999132
	  102 D(6,3,5,9)      =    -60.277206    -0.000000    -0.031886   -60.309092
	  103 D(6,3,5,10)     =   -175.651023    -0.000000    -0.028989  -175.680012
	  104 D(7,3,5,8)      =    -55.806013     0.000000    -0.019829   -55.825842
	  105 D(7,3,5,9)      =   -179.114297     0.000000    -0.019769  -179.134066
	  106 D(7,3,5,10)     =     65.511885     0.000000    -0.016871    65.495014
	  107 D(8,11,14,17)   =   -179.724035     0.000000     0.069045  -179.654991
	  108 D(8,11,14,18)   =     58.206134     0.000000     0.069756    58.275890
	  109 D(8,11,14,19)   =    -57.646868     0.000000     0.070498   -57.576370
	  110 D(9,5,8,11)     =     56.300457    -0.000000    -0.170006    56.130451
	  111 D(9,5,8,12)     =    -65.069983    -0.000000    -0.166722   -65.236705
	  112 D(9,5,8,13)     =    179.838779     0.000000    -0.165129   179.673651
	  113 D(10,5,8,11)    =    172.274687    -0.000000    -0.176120   172.098567
	  114 D(10,5,8,12)    =     50.904246    -0.000000    -0.172835    50.731411
	  115 D(10,5,8,13)    =    -64.186991    -0.000000    -0.171242   -64.358233
	  116 D(11,14,17,20)  =   -179.860437     0.000000     0.038713  -179.821724
	  117 D(11,14,17,21)  =    -57.828043     0.000000     0.037750   -57.790293
	  118 D(11,14,17,22)  =     58.113108     0.000000     0.037544    58.150651
	  119 D(12,8,11,14)   =    -54.155209    -0.000000    -0.158389   -54.313598
	  120 D(12,8,11,15)   =     67.605548    -0.000000    -0.153084    67.452464
	  121 D(12,8,11,16)   =   -175.983423     0.000000    -0.151258  -176.134682
	  122 D(13,8,11,14)   =     61.211584    -0.000000    -0.160968    61.050616
	  123 D(13,8,11,15)   =   -177.027659    -0.000000    -0.155664  -177.183323
	  124 D(13,8,11,16)   =    -60.616630    -0.000000    -0.153838   -60.770468
	  125 D(14,17,20,23)  =   -179.982939    -0.000000    -0.009059  -179.991998
	  126 D(14,17,20,24)  =     59.968637    -0.000000    -0.009178    59.959459
	  127 D(14,17,20,25)  =    -59.926710    -0.000000    -0.008955   -59.935665
	  128 D(15,11,14,17)  =     58.580834    -0.000000     0.061429    58.642264
	  129 D(15,11,14,18)  =    -63.488996    -0.000000     0.062141   -63.426856
	  130 D(15,11,14,19)  =   -179.341998    -0.000000     0.062882  -179.279115
	  131 D(16,11,14,17)  =    -57.133677     0.000000     0.062929   -57.070748
	  132 D(16,11,14,18)  =   -179.203508     0.000000     0.063640  -179.139867
	  133 D(16,11,14,19)  =     64.943491     0.000000     0.064382    65.007873
	  134 D(18,14,17,20)  =    -57.749717     0.000000     0.036945   -57.712772
	  135 D(18,14,17,21)  =     64.282678    -0.000000     0.035982    64.318660
	  136 D(18,14,17,22)  =   -179.776171    -0.000000     0.035775  -179.740396
	  137 D(19,14,17,20)  =     58.007773     0.000000     0.037217    58.044990
	  138 D(19,14,17,21)  =   -179.959832     0.000000     0.036254  -179.923578
	  139 D(19,14,17,22)  =    -64.018682     0.000000     0.036048   -63.982634
	  140 D(21,17,20,23)  =     58.009529     0.000000    -0.007883    58.001646
	  141 D(21,17,20,24)  =    -62.038895     0.000000    -0.008003   -62.046897
	  142 D(21,17,20,25)  =    178.065758     0.000000    -0.007780   178.057978
	  143 D(22,17,20,23)  =    -57.959832     0.000000    -0.007724   -57.967556
	  144 D(22,17,20,24)  =   -178.008256     0.000000    -0.007843  -178.016099
	  145 D(22,17,20,25)  =     62.096396     0.000000    -0.007620    62.088776
	 ---------------------------------------------------------------------------

  ==> Convergence Check <==

  Measures of convergence in internal coordinates in au.
  Criteria marked as inactive (o), active & met (*), and active & unmet ( ).
  ---------------------------------------------------------------------------------------------
   Step     Total Energy     Delta E     MAX Force     RMS Force      MAX Disp      RMS Disp   
  ---------------------------------------------------------------------------------------------
    Convergence Criteria    1.00e-06 *    3.00e-04 *             o    1.20e-03 *             o
  ---------------------------------------------------------------------------------------------
      7    -501.04342925   -3.13e-07 *    4.22e-05 *    7.46e-06 o    3.07e-03      1.05e-03 o  ~
  ---------------------------------------------------------------------------------------------


  **** Optimization is complete! (in 7 steps) ****

  ==> Optimization Summary <==

  Measures of convergence in internal coordinates in au.
  --------------------------------------------------------------------------------------------------------------- ~
   Step         Total Energy             Delta E       MAX Force       RMS Force        MAX Disp        RMS Disp  ~
  --------------------------------------------------------------------------------------------------------------- ~
      1    -501.043034621310   -501.043034621310      0.00352903      0.00061505      0.20802010      0.03065217  ~
      2    -501.042471442866      0.000563178444      0.00525327      0.00082162      0.14554298      0.02138336  ~
      3    -501.043159789563     -0.000688346698      0.00241749      0.00055095      0.04339668      0.00954763  ~
      4    -501.043427581232     -0.000267791669      0.00055257      0.00006158      0.02801390      0.00840232  ~
      5    -501.043416154691      0.000011426541      0.00045662      0.00008141      0.02272599      0.00659097  ~
      6    -501.043428936480     -0.000012781789      0.00009728      0.00002138      0.00455232      0.00147042  ~
      7    -501.043429249310     -0.000000312830      0.00004220      0.00000746      0.00307387      0.00105459  ~
  --------------------------------------------------------------------------------------------------------------- ~

	Writing optimization data to binary file.
	Final energy is   -501.0434292493100
	Final (previous) structure:
	Cartesian Geometry (in Angstrom)
	    O     3.1375836872   0.6088551567  -0.8054890243
	    C     2.6497693913  -0.3144928297  -0.2362061288
	    C     1.2064314810  -0.3984793199   0.1987570695
	    O     3.3189006189  -1.4216430694   0.0551615524
	    C     0.6173029401   0.9713230851   0.5426327411
	    H     0.6688913006  -0.8478350173  -0.6319858776
	    H     1.1292726059  -1.0861379815   1.0326897472
	    C    -0.8379834395   0.9160367638   1.0194764914
	    H     0.7010415108   1.6205307527  -0.3218961502
	    H     1.2236017122   1.4244763940   1.3220710085
	    C    -1.8474161692   0.4718608027  -0.0429737189
	    H    -1.1151678354   1.9080815856   1.3684916490
	    H    -0.9122355203   0.2600167127   1.8853961815
	    C    -3.2954905614   0.5452141772   0.4458022929
	    H    -1.7340738903   1.0965367621  -0.9275206150
	    H    -1.6352215904  -0.5469796276  -0.3589833610
	    C    -4.3130344171   0.0974050513  -0.6049991690
	    H    -3.5209141020   1.5656119841   0.7510783399
	    H    -3.4063699897  -0.0702014686   1.3372448498
	    C    -5.7568783060   0.1768197525  -0.1103133750
	    H    -4.2031052271   0.7108873270  -1.4966966516
	    H    -4.0917743930  -0.9237195387  -0.9085075168
	    H    -6.4540659639  -0.1470933096  -0.8768677778
	    H    -6.0204921039   1.1932508762   0.1681957979
	    H    -5.9078670968  -0.4533900616   0.7616534559
	    C     4.6721782644  -1.4811910059  -0.3581196021
	    H     4.7457884659  -1.3907624426  -1.4323291155
	    H     5.0362737384  -2.4449152204  -0.0377825109
	    H     5.2454176862  -0.6910546202   0.1048843873
	Saving final (previous) structure.
			--------------------------
			 OPTKING Finished Execution 
			--------------------------

    Final optimized geometry and variables:
    Molecular point group: c1
    Full point group: C1

    Geometry (in Angstrom), charge = 0, multiplicity = 1:

    O            3.137583447609     0.608855110226    -0.805488962743
    C            2.649769188950    -0.314492805685    -0.236206110742
    C            1.206431388889    -0.398479289452     0.198757054344
    O            3.318900365469    -1.421642960837     0.055161548212
    C            0.617302892946     0.971323010974     0.542632699672
    H            0.668891249551    -0.847834952517    -0.631985829300
    H            1.129272519678    -1.086137898572     1.032689668339
    C           -0.837983375514     0.916036693879     1.019476413591
    H            0.701041457223     1.620530628975    -0.321896125604
    H            1.223601618782     1.424476285258     1.322070907499
    C           -1.847416028083     0.471860766699    -0.042973715595
    H           -1.115167750253     1.908081439917     1.368491544480
    H           -0.912235450597     0.260016692884     1.885396037565
    C           -3.295490309742     0.545214135589     0.445802258864
    H           -1.734073757890     1.096536678365    -0.927520544128
    H           -1.635221465486    -0.546979585860    -0.358983333584
    C           -4.313034087748     0.097405043846    -0.604999122771
    H           -3.520913833178     1.565611864584     0.751078282524
    H           -3.406369729537    -0.070201463254     1.337244747680
    C           -5.756877866369     0.176819738960    -0.110313366591
    H           -4.203104906183     0.710887272730    -1.496696537330
    H           -4.091774080578    -0.923719468136    -0.908507447430
    H           -6.454065471044    -0.147093298403    -0.876867710870
    H           -6.020491644114     1.193250785126     0.168195785058
    H           -5.907866645649    -0.453390027020     0.761653397772
    C            4.672177907615    -1.481190892814    -0.358119574801
    H            4.745788103512    -1.390762336409    -1.432329006165
    H            5.036273353824    -2.444915033658    -0.037782508014
    H            5.245417285597    -0.691054567478     0.104884379302

	Cleaning optimization helper files.


Properties will be evaluated at   0.000000,   0.000000,   0.000000 Bohr

Properties computed using the  density matrix

  Nuclear Dipole Moment: (a.u.)
     X:   -18.9537      Y:     1.0998      Z:     1.6268

  Electronic Dipole Moment: (a.u.)
     X:    18.8084      Y:    -1.7082      Z:    -1.3411

  Dipole Moment: (a.u.)
     X:    -0.1452      Y:    -0.6084      Z:     0.2857     Total:     0.6876

  Dipole Moment: (Debye)
     X:    -0.3691      Y:    -1.5464      Z:     0.7261     Total:     1.7478

  Quadrupole Moment: (Debye Ang)
    XX:   -67.0773     YY:   -71.0153     ZZ:   -70.7767
    XY:    -7.5494     XZ:     2.4081     YZ:     2.4610

  Traceless Quadrupole Moment: (Debye Ang)
    XX:     2.5458     YY:    -1.3922     ZZ:    -1.1536
    XY:    -7.5494     XZ:     2.4081     YZ:     2.4610

  Mulliken Charges: (a.u.)
   Center  Symbol    Alpha    Beta     Spin     Total
       1     O     4.28681  4.28681  0.00000 -0.57362
       2     C     2.60393  2.60393  0.00000  0.79213
       3     C     3.20978  3.20978  0.00000 -0.41956
       4     O     4.30652  4.30652  0.00000 -0.61303
       5     C     3.15748  3.15748  0.00000 -0.31496
       6     H     0.39850  0.39850  0.00000  0.20299
       7     H     0.40127  0.40127  0.00000  0.19746
       8     C     3.15571  3.15571  0.00000 -0.31142
       9     H     0.40587  0.40587  0.00000  0.18825
      10     H     0.41519  0.41519  0.00000  0.16962
      11     C     3.15532  3.15532  0.00000 -0.31064
      12     H     0.41829  0.41829  0.00000  0.16341
      13     H     0.42355  0.42355  0.00000  0.15290
      14     C     3.15036  3.15036  0.00000 -0.30072
      15     H     0.42161  0.42161  0.00000  0.15679
      16     H     0.42379  0.42379  0.00000  0.15241
      17     C     3.15151  3.15151  0.00000 -0.30302
      18     H     0.42332  0.42332  0.00000  0.15335
      19     H     0.42400  0.42400  0.00000  0.15199
      20     C     3.23937  3.23937  0.00000 -0.47874
      21     H     0.42255  0.42255  0.00000  0.15491
      22     H     0.42343  0.42343  0.00000  0.15313
      23     H     0.41917  0.41917  0.00000  0.16166
      24     H     0.42155  0.42155  0.00000  0.15690
      25     H     0.42188  0.42188  0.00000  0.15624
      26     C     3.09313  3.09313  0.00000 -0.18626
      27     H     0.40910  0.40910  0.00000  0.18180
      28     H     0.40846  0.40846  0.00000  0.18308
      29     H     0.40853  0.40853  0.00000  0.18294

   Total alpha = 44.00000, Total beta = 44.00000, Total charge = -0.00000


*** PSI4 exiting successfully. Buy a developer a beer!
