    -----------------------------------------------------------------------
          Psi4: An Open-Source Ab Initio Electronic Structure Package
                              Psi4 (no tag) Driver

                          Git: Rev {detached?}  

    J. M. Turney, A. C. Simmonett, R. M. Parrish, E. G. Hohenstein,
    F. A. Evangelista, J. T. Fermann, B. J. Mintz, L. A. Burns, J. J. Wilke,
    M. L. Abrams, N. J. Russ, M. L. Leininger, C. L. Janssen, E. T. Seidl,
    W. D. Allen, H. F. Schaefer, R. A. King, E. F. Valeev, C. D. Sherrill,
    and T. D. Crawford, WIREs Comput. Mol. Sci. 2, 556-565 (2012)
    (doi: 10.1002/wcms.93)

                         Additional Contributions by
    A. E. DePrince, M. Saitow, U. Bozkaya, A. Yu. Sokolov
    -----------------------------------------------------------------------


    Psi4 started on: Fri Sep  9 22:03:18 2016

    Process ID:  23392
    PSI4DATADIR: /export131/home/mjharvey/miniconda3/share
    Memory level set to 256.000 MB

  ==> Input File <==

--------------------------------------------------------------------------
set {
	reference rhf
	basis cc-pvtz
}


set_num_threads( 4 )
memory 2 gb

molecule MOL {
0 1

O	 -2.071633	 -1.227563	 -0.223463
C	 -1.652164	 -0.152425	 0.058082
C	 -0.327811	 0.006324	 0.778296
C	 -2.402515	 1.108629	 -0.298924
C	 0.843231	 -0.001575	 -0.211665
H	 -0.319484	 0.928173	 1.350354
H	 -0.227804	 -0.823091	 1.466705
C	 2.197693	 0.138030	 0.476937
H	 0.722944	 0.805202	 -0.930230
H	 0.813976	 -0.926978	 -0.776588
C	 3.251599	 0.787766	 -0.413169
H	 2.081651	 0.722716	 1.385342
H	 2.542471	 -0.843986	 0.787278
H	 2.950841	 1.786443	 -0.711874
H	 3.412357	 0.207903	 -1.315546
H	 4.201710	 0.869043	 0.101693
H	 -3.240910	 0.874416	 -0.936711
H	 -1.747554	 1.818823	 -0.790984
H	 -2.760419	 1.579708	 0.610998

	symmetry c1
}
set optking {
	frozen_dihedral = ("
		11 8 5 9
	")
}

ee = optimize('scf')
oeprop('DIPOLE', 'QUADRUPOLE', 'MULLIKEN_CHARGES')
f=open( 'psi4out.xyz', 'w' )
f.write( "19  " )
f.write( str(ee) + "\n" )
f.write( MOL.save_string_xyz() )
f.close()
--------------------------------------------------------------------------

  Memory set to   2.000 GiB by Python script.
gradient() will perform analytic gradient computation.

*** tstart() called on cx1-27-4-1
*** at Fri Sep  9 22:03:18 2016


         ---------------------------------------------------------
                                   SCF
            by Justin Turney, Rob Parrish, and Andy Simmonett
                              RHF Reference
                        4 Threads,   2000 MiB Core
         ---------------------------------------------------------

  ==> Geometry <==

    Molecular point group: c1
    Full point group: C1

    Geometry (in Angstrom), charge = 0, multiplicity = 1:

       Center              X                  Y                   Z               Mass       
    ------------   -----------------  -----------------  -----------------  -----------------
           O         -2.054453711116    -1.328067308196    -0.236878393334    15.994914619560
           C         -1.634984711116    -0.252929308196     0.044666606666    12.000000000000
           C         -0.310631711116    -0.094180308196     0.764880606666    12.000000000000
           C         -2.385335711116     1.008124691804    -0.312339393334    12.000000000000
           C          0.860410288884    -0.102079308196    -0.225080393334    12.000000000000
           H         -0.302304711116     0.827668691804     1.336938606666     1.007825032070
           H         -0.210624711116    -0.923595308196     1.453289606666     1.007825032070
           C          2.214872288884     0.037525691804     0.463521606666    12.000000000000
           H          0.740123288884     0.704697691804    -0.943645393334     1.007825032070
           H          0.831155288884    -1.027482308196    -0.790003393334     1.007825032070
           C          3.268778288884     0.687261691804    -0.426584393334    12.000000000000
           H          2.098830288884     0.622211691804     1.371926606666     1.007825032070
           H          2.559650288884    -0.944490308196     0.773862606666     1.007825032070
           H          2.968020288884     1.685938691804    -0.725289393334     1.007825032070
           H          3.429536288884     0.107398691804    -1.328961393334     1.007825032070
           H          4.218889288884     0.768538691804     0.088277606666     1.007825032070
           H         -3.223730711116     0.773911691804    -0.950126393334     1.007825032070
           H         -1.730374711116     1.718318691804    -0.804399393334     1.007825032070
           H         -2.743239711116     1.479203691804     0.597582606666     1.007825032070

  Running in c1 symmetry.

  Rotational constants: A =      0.20516  B =      0.03603  C =      0.03377 [cm^-1]
  Rotational constants: A =   6150.59394  B =   1080.11132  C =   1012.50949 [MHz]
  Nuclear repulsion =  302.189438041245694

  Charge       = 0
  Multiplicity = 1
  Electrons    = 56
  Nalpha       = 28
  Nbeta        = 28

  ==> Algorithm <==

  SCF Algorithm Type is DF.
  DIIS enabled.
  MOM disabled.
  Fractional occupation disabled.
  Guess Type is CORE.
  Energy threshold   = 1.00e-08
  Density threshold  = 1.00e-08
  Integral threshold = 0.00e+00

  ==> Primary Basis <==

  Basis Set: CC-PVTZ
    Number of shells: 142
    Number of basis function: 378
    Number of Cartesian functions: 425
    Spherical Harmonics?: true
    Max angular momentum: 3

  ==> Pre-Iterations <==

   -------------------------------------------------------
    Irrep   Nso     Nmo     Nalpha   Nbeta   Ndocc  Nsocc
   -------------------------------------------------------
     A        378     378       0       0       0       0
   -------------------------------------------------------
    Total     378     378      28      28      28       0
   -------------------------------------------------------

 OEINTS: Overlap, kinetic, potential, dipole, and quadrupole integrals
         stored in file 35.

  ==> Integral Setup <==

  ==> DFJK: Density-Fitted J/K Matrices <==

    J tasked:                  Yes
    K tasked:                  Yes
    wK tasked:                  No
    OpenMP threads:              4
    Integrals threads:           4
    Memory (MB):              1430
    Algorithm:                Core
    Integral Cache:           NONE
    Schwarz Cutoff:          1E-12
    Fitting Condition:       1E-12

   => Auxiliary Basis Set <=

  Basis Set: 
    Number of shells: 295
    Number of basis function: 913
    Number of Cartesian functions: 1092
    Spherical Harmonics?: true
    Max angular momentum: 4

  Minimum eigenvalue in the overlap matrix is 3.2626882246E-04.
  Using Symmetric Orthogonalization.
  SCF Guess: Core (One-Electron) Hamiltonian.

  ==> Iterations <==

                           Total Energy        Delta E     RMS |[F,P]|

   @DF-RHF iter   1:  -207.95033806904337   -2.07950e+02   3.90323e-02 
   @DF-RHF iter   2:  -142.63592081285913    6.53144e+01   3.17452e-02 DIIS
   @DF-RHF iter   3:  -244.96715274491737   -1.02331e+02   1.94832e-02 DIIS
   @DF-RHF iter   4:  -167.57681611485714    7.73903e+01   3.26124e-02 DIIS
   @DF-RHF iter   5:  -307.55341510826815   -1.39977e+02   4.61992e-03 DIIS
   @DF-RHF iter   6:  -308.82871488552837   -1.27530e+00   2.49313e-03 DIIS
   @DF-RHF iter   7:  -309.14929978713474   -3.20585e-01   5.97762e-04 DIIS
   @DF-RHF iter   8:  -309.17205419714605   -2.27544e-02   1.76293e-04 DIIS
   @DF-RHF iter   9:  -309.17443890171774   -2.38470e-03   4.25934e-05 DIIS
   @DF-RHF iter  10:  -309.17464134588135   -2.02444e-04   1.35472e-05 DIIS
   @DF-RHF iter  11:  -309.17466799590397   -2.66500e-05   4.43600e-06 DIIS
   @DF-RHF iter  12:  -309.17467048331093   -2.48741e-06   1.84284e-06 DIIS
   @DF-RHF iter  13:  -309.17467098461361   -5.01303e-07   7.27057e-07 DIIS
   @DF-RHF iter  14:  -309.17467107107962   -8.64660e-08   2.19712e-07 DIIS
   @DF-RHF iter  15:  -309.17467108078858   -9.70897e-09   6.80956e-08 DIIS
   @DF-RHF iter  16:  -309.17467108157678   -7.88191e-10   2.01283e-08 DIIS
   @DF-RHF iter  17:  -309.17467108164942   -7.26459e-11   5.22742e-09 DIIS

  ==> Post-Iterations <==

    Orbital Energies (a.u.)
    -----------------------

    Doubly Occupied:                                                      

       1A    -20.536805     2A    -11.319277     3A    -11.228404  
       4A    -11.227765     5A    -11.227015     6A    -11.222380  
       7A    -11.213966     8A     -1.396965     9A     -1.093159  
      10A     -1.030511    11A     -0.984738    12A     -0.891483  
      13A     -0.807321    14A     -0.735073    15A     -0.665363  
      16A     -0.646168    17A     -0.625351    18A     -0.615249  
      19A     -0.586307    20A     -0.571528    21A     -0.557485  
      22A     -0.536687    23A     -0.510245    24A     -0.507673  
      25A     -0.483575    26A     -0.473714    27A     -0.468972  
      28A     -0.398955  

    Virtual:                                                              

      29A      0.130736    30A      0.147002    31A      0.153895  
      32A      0.170949    33A      0.175251    34A      0.190017  
      35A      0.206833    36A      0.218359    37A      0.220641  
      38A      0.236794    39A      0.242115    40A      0.245605  
      41A      0.262903    42A      0.291647    43A      0.305329  
      44A      0.343487    45A      0.354946    46A      0.360857  
      47A      0.375691    48A      0.394537    49A      0.406929  
      50A      0.420562    51A      0.429106    52A      0.449354  
      53A      0.469926    54A      0.474958    55A      0.514760  
      56A      0.526530    57A      0.542379    58A      0.555488  
      59A      0.570396    60A      0.579369    61A      0.595946  
      62A      0.604489    63A      0.612377    64A      0.620720  
      65A      0.627112    66A      0.638203    67A      0.642406  
      68A      0.645078    69A      0.658148    70A      0.672254  
      71A      0.672682    72A      0.684520    73A      0.690251  
      74A      0.704012    75A      0.708338    76A      0.713699  
      77A      0.748984    78A      0.772826    79A      0.795173  
      80A      0.808300    81A      0.820475    82A      0.845458  
      83A      0.854129    84A      0.879248    85A      0.897789  
      86A      0.934051    87A      0.952049    88A      0.971766  
      89A      0.982407    90A      1.002837    91A      1.008024  
      92A      1.029112    93A      1.048367    94A      1.070133  
      95A      1.079867    96A      1.095885    97A      1.122576  
      98A      1.148520    99A      1.151427   100A      1.167810  
     101A      1.176696   102A      1.208778   103A      1.214967  
     104A      1.231720   105A      1.252378   106A      1.259052  
     107A      1.273400   108A      1.279133   109A      1.291230  
     110A      1.299927   111A      1.309865   112A      1.318075  
     113A      1.336341   114A      1.342617   115A      1.346144  
     116A      1.353264   117A      1.393800   118A      1.403768  
     119A      1.419310   120A      1.432443   121A      1.448319  
     122A      1.464748   123A      1.484215   124A      1.491334  
     125A      1.497253   126A      1.504768   127A      1.514643  
     128A      1.525824   129A      1.528813   130A      1.549430  
     131A      1.560913   132A      1.572378   133A      1.582728  
     134A      1.592101   135A      1.607498   136A      1.622542  
     137A      1.639090   138A      1.650964   139A      1.689844  
     140A      1.693077   141A      1.708058   142A      1.732024  
     143A      1.765463   144A      1.772541   145A      1.785898  
     146A      1.813459   147A      1.821429   148A      1.866240  
     149A      1.884065   150A      1.909991   151A      1.960670  
     152A      1.972166   153A      2.029358   154A      2.103652  
     155A      2.206874   156A      2.260557   157A      2.429539  
     158A      2.452238   159A      2.479330   160A      2.513434  
     161A      2.548042   162A      2.576489   163A      2.600829  
     164A      2.636844   165A      2.665386   166A      2.671946  
     167A      2.680194   168A      2.713191   169A      2.729777  
     170A      2.756922   171A      2.775070   172A      2.790624  
     173A      2.821165   174A      2.836290   175A      2.842170  
     176A      2.860193   177A      2.879057   178A      2.898153  
     179A      2.922732   180A      2.941368   181A      2.944368  
     182A      2.950979   183A      2.970223   184A      3.002699  
     185A      3.029902   186A      3.036998   187A      3.048565  
     188A      3.067767   189A      3.099306   190A      3.113461  
     191A      3.115164   192A      3.137413   193A      3.154751  
     194A      3.171605   195A      3.185010   196A      3.201722  
     197A      3.206008   198A      3.232064   199A      3.237119  
     200A      3.267664   201A      3.273221   202A      3.285148  
     203A      3.326733   204A      3.334482   205A      3.342730  
     206A      3.358031   207A      3.369328   208A      3.373768  
     209A      3.389967   210A      3.397378   211A      3.400137  
     212A      3.423502   213A      3.430468   214A      3.437530  
     215A      3.456855   216A      3.459007   217A      3.461549  
     218A      3.479862   219A      3.485190   220A      3.514943  
     221A      3.518812   222A      3.545391   223A      3.556820  
     224A      3.570407   225A      3.587783   226A      3.611014  
     227A      3.622463   228A      3.627442   229A      3.648190  
     230A      3.671410   231A      3.685519   232A      3.709675  
     233A      3.718087   234A      3.730343   235A      3.749346  
     236A      3.767708   237A      3.780956   238A      3.791485  
     239A      3.821673   240A      3.823716   241A      3.850969  
     242A      3.857354   243A      3.875628   244A      3.888621  
     245A      3.915453   246A      3.937290   247A      3.942279  
     248A      3.957430   249A      3.986443   250A      4.003967  
     251A      4.027896   252A      4.050870   253A      4.066428  
     254A      4.082404   255A      4.084954   256A      4.101925  
     257A      4.129446   258A      4.137424   259A      4.145771  
     260A      4.163380   261A      4.181309   262A      4.184586  
     263A      4.191708   264A      4.197893   265A      4.217440  
     266A      4.233461   267A      4.246178   268A      4.254471  
     269A      4.258322   270A      4.298265   271A      4.303310  
     272A      4.318779   273A      4.338209   274A      4.354057  
     275A      4.359543   276A      4.371563   277A      4.397095  
     278A      4.411013   279A      4.416968   280A      4.431783  
     281A      4.435476   282A      4.443214   283A      4.456945  
     284A      4.483792   285A      4.497994   286A      4.520691  
     287A      4.532025   288A      4.552567   289A      4.578850  
     290A      4.594908   291A      4.611055   292A      4.619347  
     293A      4.634302   294A      4.651150   295A      4.675618  
     296A      4.692907   297A      4.700561   298A      4.724507  
     299A      4.726855   300A      4.748321   301A      4.761242  
     302A      4.815764   303A      4.822483   304A      4.898454  
     305A      4.932417   306A      4.941554   307A      4.970069  
     308A      4.997723   309A      5.001165   310A      5.052159  
     311A      5.101998   312A      5.117109   313A      5.138400  
     314A      5.174652   315A      5.183144   316A      5.196299  
     317A      5.238930   318A      5.247775   319A      5.260476  
     320A      5.274859   321A      5.294857   322A      5.303761  
     323A      5.347565   324A      5.392026   325A      5.408360  
     326A      5.419794   327A      5.432720   328A      5.467634  
     329A      5.507490   330A      5.511501   331A      5.525115  
     332A      5.543142   333A      5.575594   334A      5.603469  
     335A      5.611121   336A      5.634263   337A      5.644064  
     338A      5.649070   339A      5.717474   340A      5.724939  
     341A      5.734565   342A      5.747903   343A      5.754656  
     344A      5.764235   345A      5.782252   346A      5.830124  
     347A      5.842259   348A      5.866188   349A      5.880255  
     350A      5.899443   351A      5.922048   352A      5.938596  
     353A      6.021343   354A      6.083269   355A      6.126361  
     356A      6.235248   357A      6.252942   358A      6.277791  
     359A      6.310351   360A      6.324146   361A      6.333876  
     362A      6.393264   363A      6.478627   364A      6.824012  
     365A      6.837311   366A      6.954320   367A      7.027387  
     368A      7.241241   369A      7.392971   370A      7.574250  
     371A      7.609443   372A      9.745699   373A     13.135924  
     374A     13.470291   375A     13.913679   376A     14.252110  
     377A     14.336441   378A     14.445865  

    Final Occupation by Irrep:
              A 
    DOCC [    28 ]

  Energy converged.

  @DF-RHF Final Energy:  -309.17467108164942

   => Energetics <=

    Nuclear Repulsion Energy =            302.1894380412456940
    One-Electron Energy =               -1017.6039569082711296
    Two-Electron Energy =                 406.2398477853760141
    DFT Exchange-Correlation Energy =       0.0000000000000000
    Empirical Dispersion Energy =           0.0000000000000000
    PCM Polarization Energy =               0.0000000000000000
    EFP Energy =                            0.0000000000000000
    Total Energy =                       -309.1746710816494215

    Alert: EFP and PCM quantities not currently incorporated into SCF psivars.

Properties will be evaluated at   0.000000,   0.000000,   0.000000 Bohr
  ==> Properties <==


Properties computed using the SCF density matrix

  Nuclear Dipole Moment: (a.u.)
     X:     8.0860      Y:     5.4237      Z:     0.0733

  Electronic Dipole Moment: (a.u.)
     X:    -7.5240      Y:    -4.3631      Z:     0.1972

  Dipole Moment: (a.u.)
     X:     0.5621      Y:     1.0606      Z:     0.2705     Total:     1.2305

  Dipole Moment: (Debye)
     X:     1.4287      Y:     2.6959      Z:     0.6877     Total:     3.1276


  Saving occupied orbitals to File 180.

*** tstop() called on cx1-27-4-1 at Fri Sep  9 22:03:38 2016
Module time:
	user time   =      64.40 seconds =       1.07 minutes
	system time =       0.94 seconds =       0.02 minutes
	total time  =         20 seconds =       0.33 minutes
Total time:
	user time   =      64.40 seconds =       1.07 minutes
	system time =       0.94 seconds =       0.02 minutes
	total time  =         20 seconds =       0.33 minutes

*** tstart() called on cx1-27-4-1
*** at Fri Sep  9 22:03:38 2016


         ------------------------------------------------------------
                                   SCF GRAD                          
                          Rob Parrish, Justin Turney,                
                       Andy Simmonett, and Alex Sokolov              
         ------------------------------------------------------------

  ==> Geometry <==

    Molecular point group: c1
    Full point group: C1

    Geometry (in Angstrom), charge = 0, multiplicity = 1:

       Center              X                  Y                   Z               Mass       
    ------------   -----------------  -----------------  -----------------  -----------------
           O         -2.054453711116    -1.328067308196    -0.236878393334    15.994914619560
           C         -1.634984711116    -0.252929308196     0.044666606666    12.000000000000
           C         -0.310631711116    -0.094180308196     0.764880606666    12.000000000000
           C         -2.385335711116     1.008124691804    -0.312339393334    12.000000000000
           C          0.860410288884    -0.102079308196    -0.225080393334    12.000000000000
           H         -0.302304711116     0.827668691804     1.336938606666     1.007825032070
           H         -0.210624711116    -0.923595308196     1.453289606666     1.007825032070
           C          2.214872288884     0.037525691804     0.463521606666    12.000000000000
           H          0.740123288884     0.704697691804    -0.943645393334     1.007825032070
           H          0.831155288884    -1.027482308196    -0.790003393334     1.007825032070
           C          3.268778288884     0.687261691804    -0.426584393334    12.000000000000
           H          2.098830288884     0.622211691804     1.371926606666     1.007825032070
           H          2.559650288884    -0.944490308196     0.773862606666     1.007825032070
           H          2.968020288884     1.685938691804    -0.725289393334     1.007825032070
           H          3.429536288884     0.107398691804    -1.328961393334     1.007825032070
           H          4.218889288884     0.768538691804     0.088277606666     1.007825032070
           H         -3.223730711116     0.773911691804    -0.950126393334     1.007825032070
           H         -1.730374711116     1.718318691804    -0.804399393334     1.007825032070
           H         -2.743239711116     1.479203691804     0.597582606666     1.007825032070

  Nuclear repulsion =  302.189438041245694

  ==> Basis Set <==

  Basis Set: CC-PVTZ
    Number of shells: 142
    Number of basis function: 378
    Number of Cartesian functions: 425
    Spherical Harmonics?: true
    Max angular momentum: 3

  ==> DFJKGrad: Density-Fitted SCF Gradients <==

    Gradient:                    1
    J tasked:                  Yes
    K tasked:                  Yes
    wK tasked:                  No
    OpenMP threads:              4
    Integrals threads:           4
    Memory (MB):              1430
    Schwarz Cutoff:          0E+00
    Fitting Condition:       1E-12

   => Auxiliary Basis Set <=

  Basis Set: 
    Number of shells: 295
    Number of basis function: 913
    Number of Cartesian functions: 1092
    Spherical Harmonics?: true
    Max angular momentum: 4


  -Total Gradient:
     Atom            X                  Y                   Z
    ------   -----------------  -----------------  -----------------
       1        0.000135829912     0.000076123993     0.000112889404
       2       -0.000003167728     0.000355160136    -0.000192401920
       3        0.000814507635     0.001413112871     0.000590557763
       4       -0.000086944435    -0.000048159728     0.000020679327
       5        0.002411288643     0.000069659357     0.001899289835
       6       -0.000211929550     0.000057456575     0.000402384776
       7       -0.000038384031     0.000081749461    -0.000368178576
       8       -0.002289045437    -0.000651701883    -0.001917765150
       9        0.001330579779    -0.000111152502    -0.001030029862
      10        0.000447872522    -0.001253734916     0.001045710689
      11       -0.001326115875     0.001280747188    -0.000396391531
      12       -0.001303110741    -0.000682604562     0.000903620551
      13        0.000185104114    -0.000988983921    -0.001332612098
      14        0.000224010919     0.000165524219    -0.000281772094
      15       -0.000045700324    -0.000002604834     0.000360957142
      16       -0.000274027610     0.000221700429     0.000211641145
      17       -0.000007129473     0.000014907116    -0.000012287136
      18        0.000018436148    -0.000001450349    -0.000003953443
      19        0.000017925530     0.000004251351    -0.000012338822


*** tstop() called on cx1-27-4-1 at Fri Sep  9 22:04:09 2016
Module time:
	user time   =     118.92 seconds =       1.98 minutes
	system time =       0.74 seconds =       0.01 minutes
	total time  =         31 seconds =       0.52 minutes
Total time:
	user time   =     183.34 seconds =       3.06 minutes
	system time =       1.68 seconds =       0.03 minutes
	total time  =         51 seconds =       0.85 minutes
CURRENT ENERGY: -309.1746710816

			-----------------------------------------
			 OPTKING 2.0: for geometry optimizations 
			  - R.A. King,  Bethel University        
			-----------------------------------------

	Internal coordinates to be generated automatically.
	Detected frag with atoms:  1 2 3 4 5 6 7 8 9 10 11 12 13 14 15 16 17 18 19
	---Fragment 1 Bond Connectivity---
	 1 : 2
	 2 : 1 3 4
	 3 : 2 5 6 7
	 4 : 2 17 18 19
	 5 : 3 8 9 10
	 6 : 3
	 7 : 3
	 8 : 5 11 12 13
	 9 : 5
	 10 : 5
	 11 : 8 14 15 16
	 12 : 8
	 13 : 8
	 14 : 11
	 15 : 11
	 16 : 11
	 17 : 4
	 18 : 4
	 19 : 4

	Assuming in current code that numbering for constraints corresponds to unified fragment.
	Frozen dihedral atom list: 
	    11     8     5     9
	---Fragment 1 Geometry and Gradient---
	 O          -3.8823548667       -2.5096834985       -0.4476352902
	 C          -3.0896733355       -0.4779671235        0.0844076539
	 C          -0.5870088622       -0.1779749896        1.4454148710
	 C          -4.5076312290        1.9050795753       -0.5902359139
	 C           1.6259398079       -0.1929019363       -0.4253403013
	 H          -0.5712731127        1.5640671563        2.5264478231
	 H          -0.3980230208       -1.7453421901        2.7463193484
	 C           4.1855020453        0.0709132805        0.8759288933
	 H           1.3986303206        1.3316856440       -1.7832313600
	 H           1.5706558699       -1.9416601689       -1.4928900575
	 C           6.1770957551        1.2987363791       -0.8061276760
	 H           3.9662144454        1.1758096942        2.5925655610
	 H           4.8370380420       -1.7848280177        1.4623883911
	 H           5.6087455028        3.1859624043       -1.3705983205
	 H           6.4808843488        0.2029541145       -2.5113730746
	 H           7.9725453410        1.4523276500        0.1668205003
	 H          -6.0919681702        1.4624811485       -1.7954786750
	 H          -3.2699343113        3.2471517365       -1.5200945549
	 H          -5.1839717709        2.7952898723        1.1292674684
	             0.0001358299        0.0000761240        0.0001128894
	            -0.0000031677        0.0003551601       -0.0001924019
	             0.0008145076        0.0014131129        0.0005905578
	            -0.0000869444       -0.0000481597        0.0000206793
	             0.0024112886        0.0000696594        0.0018992898
	            -0.0002119295        0.0000574566        0.0004023848
	            -0.0000383840        0.0000817495       -0.0003681786
	            -0.0022890454       -0.0006517019       -0.0019177651
	             0.0013305798       -0.0001111525       -0.0010300299
	             0.0004478725       -0.0012537349        0.0010457107
	            -0.0013261159        0.0012807472       -0.0003963915
	            -0.0013031107       -0.0006826046        0.0009036206
	             0.0001851041       -0.0009889839       -0.0013326121
	             0.0002240109        0.0001655242       -0.0002817721
	            -0.0000457003       -0.0000026048        0.0003609571
	            -0.0002740276        0.0002217004        0.0002116411
	            -0.0000071295        0.0000149071       -0.0000122871
	             0.0000184361       -0.0000014503       -0.0000039534
	             0.0000179255        0.0000042514       -0.0000123388

	Previous optimization step data not found.  Starting new optimization.

	---Fragment 1 Intrafragment Coordinates---
	 - Coordinate -           - BOHR/RAD -       - ANG/DEG -
	 R(1,2)           =         2.244835	       1.187916
	 R(2,3)           =         2.864553	       1.515856
	 R(2,4)           =         2.853885	       1.510211
	 R(3,5)           =         2.897773	       1.533436
	 R(3,6)           =         2.050266	       1.084954
	 R(3,7)           =         2.045656	       1.082515
	 R(4,17)          =         2.039271	       1.079136
	 R(4,18)          =         2.048826	       1.084192
	 R(4,19)          =         2.051000	       1.085343
	 R(5,8)           =         2.883446	       1.525854
	 R(5,9)           =         2.054241	       1.087057
	 R(5,10)          =         2.049603	       1.084603
	 R(8,11)          =         2.881546	       1.524849
	 R(8,12)          =         2.053223	       1.086519
	 R(8,13)          =         2.052367	       1.086066
	 R(11,14)         =         2.050188	       1.084913
	 R(11,15)         =         2.049607	       1.084605
	 R(11,16)         =         2.047891	       1.083697
	 B(1,2,3)         =         2.112847	     121.057215
	 B(1,2,4)         =         2.122656	     121.619217
	 B(2,3,5)         =         1.938984	     111.095620
	 B(2,3,6)         =         1.924315	     110.255149
	 B(2,3,7)         =         1.878235	     107.614939
	 B(2,4,17)        =         1.922496	     110.150887
	 B(2,4,18)        =         1.932762	     110.739118
	 B(2,4,19)        =         1.905071	     109.152552
	 B(3,2,4)         =         2.047610	     117.319433
	 B(3,5,8)         =         1.967170	     112.710557
	 B(3,5,9)         =         1.916030	     109.780429
	 B(3,5,10)        =         1.896582	     108.666141
	 B(5,3,6)         =         1.916553	     109.810427
	 B(5,3,7)         =         1.913518	     109.636492
	 B(5,8,11)        =         1.970421	     112.896795
	 B(5,8,12)        =         1.908943	     109.374374
	 B(5,8,13)        =         1.905009	     109.148950
	 B(6,3,7)         =         1.891246	     108.360405
	 B(8,5,9)         =         1.905651	     109.185785
	 B(8,5,10)        =         1.914593	     109.698098
	 B(8,11,14)       =         1.940507	     111.182885
	 B(8,11,15)       =         1.939380	     111.118317
	 B(8,11,16)       =         1.939689	     111.136018
	 B(9,5,10)        =         1.860793	     106.615564
	 B(11,8,12)       =         1.909816	     109.424410
	 B(11,8,13)       =         1.909926	     109.430688
	 B(12,8,13)       =         1.856229	     106.354088
	 B(14,11,15)      =         1.879848	     107.707372
	 B(14,11,16)      =         1.880540	     107.747018
	 B(15,11,16)      =         1.881181	     107.783716
	 B(17,4,18)       =         1.921193	     110.076256
	 B(17,4,19)       =         1.910809	     109.481266
	 B(18,4,19)       =         1.870661	     107.180955
	 D(1,2,3,5)       =         1.478464	      84.709759
	 D(1,2,3,6)       =        -2.675844	    -153.314547
	 D(1,2,3,7)       =        -0.616391	     -35.316579
	 D(1,2,4,17)      =        -0.141341	      -8.098229
	 D(1,2,4,18)      =        -2.270661	    -130.099285
	 D(1,2,4,19)      =         1.957107	     112.133985
	 D(2,3,5,8)       =        -3.128620	    -179.256727
	 D(2,3,5,9)       =         1.026219	      58.797994
	 D(2,3,5,10)      =        -1.002676	     -57.449122
	 D(3,2,4,17)      =         2.987468	     171.169315
	 D(3,2,4,18)      =         0.858148	      49.168259
	 D(3,2,4,19)      =        -1.197269	     -68.598472
	 D(3,5,8,11)      =        -2.657796	    -152.280502
	 D(3,5,8,12)      =        -0.526984	     -30.193982
	 D(3,5,8,13)      =         1.497256	      85.786470
	 D(4,2,3,5)       =        -1.650421	     -94.562147
	 D(4,2,3,6)       =         0.478457	      27.413547
	 D(4,2,3,7)       =         2.537910	     145.411515
	 D(5,8,11,14)     =         1.050931	      60.213919
	 D(5,8,11,15)     =        -1.042724	     -59.743704
	 D(5,8,11,16)     =        -3.137517	    -179.766461
	 D(6,3,5,8)       =         1.021177	      58.509132
	 D(6,3,5,9)       =        -1.107170	     -63.436147
	 D(6,3,5,10)      =        -3.136065	    -179.683263
	 D(7,3,5,8)       =        -1.054852	     -60.438552
	 D(7,3,5,9)       =         3.099987	     177.616169
	 D(7,3,5,10)      =         1.071092	      61.369053
	*D(9,5,8,11)      =        -0.523599	     -30.000019
	 D(9,5,8,12)      =         1.607213	      92.086501
	 D(9,5,8,13)      =        -2.651732	    -151.933047
	 D(10,5,8,11)     =         1.509665	      86.497405
	 D(10,5,8,12)     =        -2.642709	    -151.416075
	 D(10,5,8,13)     =        -0.618468	     -35.435623
	 D(12,8,11,14)    =        -1.079390	     -61.844482
	 D(12,8,11,15)    =         3.110140	     178.197894
	 D(12,8,11,16)    =         1.015348	      58.175138
	 D(13,8,11,14)    =        -3.106891	    -178.011758
	 D(13,8,11,15)    =         1.082639	      62.030619
	 D(13,8,11,16)    =        -1.012154	     -57.992138

	Current energy   :      -309.1746710816

	Generating empirical Hessian (Schlegel '84) for each fragment.
	Taking RFO optimization step.
	Going to follow RFO solution 1.
	Using RFO vector 1.
	Norm of target step-size    0.40669
	Projected energy change by RFO approximation:        -0.0014905038

	Back-transformation to cartesian coordinates...
	Successfully converged to displaced geometry.

	Back-transformation to cartesian coordinates to adjust frozen coordinates...
	Successfully converged to displaced geometry.

	--- Internal Coordinate Step in ANG or DEG, aJ/ANG or AJ/DEG ---
	 ---------------------------------------------------------------------------
	   Coordinate                Previous        Force       Change         New 
	   ----------                --------       ------       ------       ------
	    1 R(1,2)          =      1.187916     0.001183     0.000068     1.187984
	    2 R(2,3)          =      1.515856     0.000543     0.000113     1.515970
	    3 R(2,4)          =      1.510211    -0.000042    -0.000009     1.510202
	    4 R(3,5)          =      1.533436     0.001080     0.000238     1.533673
	    5 R(3,6)          =      1.084954    -0.002137    -0.000387     1.084567
	    6 R(3,7)          =      1.082515     0.002474     0.000444     1.082959
	    7 R(4,17)         =      1.079136    -0.000079    -0.000014     1.079122
	    8 R(4,18)         =      1.084192    -0.000099    -0.000018     1.084174
	    9 R(4,19)         =      1.085343     0.000119     0.000022     1.085364
	   10 R(5,8)          =      1.525854     0.044929     0.009657     1.535510
	   11 R(5,9)          =      1.087057    -0.003717    -0.000678     1.086380
	   12 R(5,10)         =      1.084603    -0.004226    -0.000764     1.083839
	   13 R(8,11)         =      1.524849     0.001742     0.000373     1.525222
	   14 R(8,12)         =      1.086519    -0.004345    -0.000791     1.085728
	   15 R(8,13)         =      1.086066    -0.004714    -0.000857     1.085209
	   16 R(11,14)        =      1.084913    -0.001383    -0.000250     1.084663
	   17 R(11,15)        =      1.084605     0.002518     0.000455     1.085061
	   18 R(11,16)        =      1.083697     0.001014     0.000183     1.083880
	   19 B(1,2,3)        =    121.057215     0.000017     0.050097   121.107311
	   20 B(1,2,4)        =    121.619217    -0.000004    -0.013547   121.605670
	   21 B(2,3,5)        =    111.095620     0.000021     0.077214   111.172834
	   22 B(2,3,6)        =    110.255149     0.000013     0.091483   110.346631
	   23 B(2,3,7)        =    107.614939    -0.000014    -0.027717   107.587222
	   24 B(2,4,17)       =    110.150887    -0.000002    -0.013660   110.137227
	   25 B(2,4,18)       =    110.739118     0.000002     0.014478   110.753596
	   26 B(2,4,19)       =    109.152552    -0.000000    -0.002236   109.150315
	   27 B(3,2,4)        =    117.319433    -0.000013    -0.039555   117.279878
	   28 B(3,5,8)        =    112.710557     0.000078     0.672797   113.383354
	   29 B(3,5,9)        =    109.780429     0.000001     1.089707   110.870137
	   30 B(3,5,10)       =    108.666141    -0.000065    -0.675315   107.990826
	   31 B(5,3,6)        =    109.810427    -0.000032    -0.202647   109.607780
	   32 B(5,3,7)        =    109.636492     0.000007     0.063712   109.700204
	   33 B(5,8,11)       =    112.896795     0.000085     0.379003   113.275798
	   34 B(5,8,12)       =    109.374374     0.000036     0.007234   109.381608
	   35 B(5,8,13)       =    109.148950    -0.000009     0.573401   109.722352
	   36 B(6,3,7)        =    108.360405     0.000005     0.001035   108.361439
	   37 B(8,5,9)        =    109.185785     0.000017     0.676628   109.862414
	   38 B(8,5,10)       =    109.698098    -0.000002    -0.485130   109.212968
	   39 B(8,11,14)      =    111.182885    -0.000044    -0.222430   110.960456
	   40 B(8,11,15)      =    111.118317     0.000016     0.065178   111.183495
	   41 B(8,11,16)      =    111.136018     0.000026     0.148980   111.284998
	   42 B(9,5,10)       =    106.615564    -0.000036    -1.451808   105.163756
	   43 B(11,8,12)      =    109.424410    -0.000085    -1.251923   108.172487
	   44 B(11,8,13)      =    109.430688    -0.000027     0.574231   110.004919
	   45 B(12,8,13)      =    106.354088    -0.000006    -0.340492   106.013595
	   46 B(14,11,15)     =    107.707372     0.000008    -0.015411   107.691961
	   47 B(14,11,16)     =    107.747018     0.000013     0.082463   107.829480
	   48 B(15,11,16)     =    107.783716    -0.000019    -0.058532   107.725185
	   49 B(17,4,18)      =    110.076256     0.000000     0.002546   110.078802
	   50 B(17,4,19)      =    109.481266     0.000000    -0.005883   109.475383
	   51 B(18,4,19)      =    107.180955     0.000000     0.005053   107.186008
	   52 D(1,2,3,5)      =     84.709759     0.000002    -0.143055    84.566704
	   53 D(1,2,3,6)      =   -153.314547    -0.000002    -0.284989  -153.599536
	   54 D(1,2,3,7)      =    -35.316579    -0.000001    -0.249158   -35.565737
	   55 D(1,2,4,17)     =     -8.098229     0.000000     0.083694    -8.014535
	   56 D(1,2,4,18)     =   -130.099285     0.000000     0.080025  -130.019260
	   57 D(1,2,4,19)     =    112.133985    -0.000000     0.066645   112.200630
	   58 D(2,3,5,8)      =   -179.256727     0.000009     7.569450  -171.687277
	   59 D(2,3,5,9)      =     58.797994    -0.000009     5.388856    64.186851
	   60 D(2,3,5,10)     =    -57.449122     0.000010     6.918101   -50.531022
	   61 D(3,2,4,17)     =    171.169315    -0.000000    -0.145868   171.023446
	   62 D(3,2,4,18)     =     49.168259    -0.000000    -0.149537    49.018722
	   63 D(3,2,4,19)     =    -68.598472    -0.000000    -0.162917   -68.761389
	   64 D(3,5,8,11)     =   -152.280502    -0.000015    -2.391768  -154.672271
	   65 D(3,5,8,12)     =    -30.193982    -0.000021    -3.732018   -33.926001
	   66 D(3,5,8,13)     =     85.786470    -0.000019    -3.814017    81.972453
	   67 D(4,2,3,5)      =    -94.562147     0.000002     0.085783   -94.476364
	   68 D(4,2,3,6)      =     27.413547    -0.000002    -0.056151    27.357396
	   69 D(4,2,3,7)      =    145.411515    -0.000001    -0.020319   145.391196
	   70 D(5,8,11,14)    =     60.213919     0.000002     2.012424    62.226343
	   71 D(5,8,11,15)    =    -59.743704     0.000004     2.136954   -57.606751
	   72 D(5,8,11,16)    =   -179.766461     0.000003     2.067159  -177.699302
	   73 D(6,3,5,8)      =     58.509132     0.000007     7.540802    66.049934
	   74 D(6,3,5,9)      =    -63.436147    -0.000011     5.360209   -58.075938
	   75 D(6,3,5,10)     =   -179.683263     0.000008     6.889453  -172.793810
	   76 D(7,3,5,8)      =    -60.438552     0.000009     7.623716   -52.814836
	   77 D(7,3,5,9)      =    177.616169    -0.000009     5.443122   183.059292
	   78 D(7,3,5,10)     =     61.369053     0.000010     6.972367    68.341420
	   79 *D(9,5,8,11)    =    -30.000019    -0.000000     0.000000   -30.000019
	   80 D(9,5,8,12)     =     92.086501    -0.000006    -1.340250    90.746251
	   81 D(9,5,8,13)     =   -151.933047    -0.000004    -1.422248  -153.355295
	   82 D(10,5,8,11)    =     86.497405    -0.000008    -1.636194    84.861211
	   83 D(10,5,8,12)    =   -151.416075    -0.000014    -2.976444  -154.392519
	   84 D(10,5,8,13)    =    -35.435623    -0.000012    -3.058442   -38.494065
	   85 D(12,8,11,14)   =    -61.844482    -0.000008     2.642741   -59.201741
	   86 D(12,8,11,15)   =    178.197894    -0.000006     2.767271   180.965165
	   87 D(12,8,11,16)   =     58.175138    -0.000007     2.697476    60.872614
	   88 D(13,8,11,14)   =   -178.011758     0.000008     3.437834  -174.573924
	   89 D(13,8,11,15)   =     62.030619     0.000011     3.562363    65.592982
	   90 D(13,8,11,16)   =    -57.992138     0.000009     3.492569   -54.499569
	 ---------------------------------------------------------------------------

  ==> Convergence Check <==

  Measures of convergence in internal coordinates in au.
  Criteria marked as inactive (o), active & met (*), and active & unmet ( ).
  --------------------------------------------------------------------------------------------- ~
   Step     Total Energy     Delta E     MAX Force     RMS Force      MAX Disp      RMS Disp    ~
  --------------------------------------------------------------------------------------------- ~
    Convergence Criteria    1.00e-06 *    3.00e-04 *             o    1.20e-03 *             o  ~
  --------------------------------------------------------------------------------------------- ~
      1    -309.17467108   -3.09e+02      5.45e-03      7.12e-04 o    1.33e-01      4.29e-02 o  ~
  ---------------------------------------------------------------------------------------------

	Writing optimization data to binary file.
	Structure for next step:
	Cartesian Geometry (in Angstrom)
	    O    -2.0060566678  -1.3623483946  -0.1993654870
	    C    -1.6339858634  -0.2641664884   0.0592190073
	    C    -0.3151712735  -0.0309780451   0.7695111451
	    C    -2.4392607277   0.9548692265  -0.3231365599
	    C     0.8528083505  -0.0085448535  -0.2242063055
	    H    -0.3431122839   0.9033843269   1.3194860815
	    H    -0.1771278429  -0.8392366177   1.4769445544
	    C     2.2298709201   0.0213739246   0.4544657110
	    H     0.7611801078   0.8287549380  -0.9103217632
	    H     0.7806199780  -0.8935606624  -0.8456911284
	    C     3.3175739804   0.6418780547  -0.4162689799
	    H     2.1655457263   0.5935144584   1.3749673324
	    H     2.5162921224  -0.9838809707   0.7461923699
	    H     3.0920122793   1.6793153066  -0.6383922190
	    H     3.4118842610   0.1154795215  -1.3603913041
	    H     4.2821995544   0.6102418690   0.0769782509
	    H    -3.2675206021   0.6702339189  -0.9535907440
	    H    -1.8169243924   1.6822896667  -0.8320481493
	    H    -2.8162414815   1.4293574039   0.5772867259
			--------------------------
			 OPTKING Finished Execution 
			--------------------------

    Structure for next step:
    Molecular point group: c1
    Full point group: C1

    Geometry (in Angstrom), charge = 0, multiplicity = 1:

    O           -2.013163548285    -1.360587672211    -0.206137857803
    C           -1.641092772269    -0.262405849845     0.052446616764
    C           -0.322278283145    -0.029217424401     0.762738700343
    C           -2.446367575095     0.956629771926    -0.329908921291
    C            0.845701251681    -0.006784234478    -0.230978674377
    H           -0.350219291361     0.905144876335     1.312713594710
    H           -0.184234863022    -0.837475935286     1.470172055621
    C            2.222763716141     0.023134541342     0.447693290262
    H            0.754073015969     0.830515493107    -0.917094079765
    H            0.773512884663    -0.891799975773    -0.852463449810
    C            3.310466693400     0.643638624065    -0.423041334173
    H            2.158438527247     0.595275031443     1.368194841326
    H            2.509184896576    -0.982120277204     0.739419926903
    H            3.084905009469     1.681075796708    -0.645164556274
    H            3.404776966751     0.117240131051    -1.367163586289
    H            4.275092193740     0.612002440792     0.070205859024
    H           -3.274627386253     0.671994486058    -0.960363057243
    H           -1.824031287365     1.684050156627    -0.838820471799
    H           -2.823348300161     1.431117913164     0.570514295781

gradient() will perform analytic gradient computation.

*** tstart() called on cx1-27-4-1
*** at Fri Sep  9 22:04:10 2016


         ---------------------------------------------------------
                                   SCF
            by Justin Turney, Rob Parrish, and Andy Simmonett
                              RHF Reference
                        4 Threads,   2000 MiB Core
         ---------------------------------------------------------

  ==> Geometry <==

    Molecular point group: c1
    Full point group: C1

    Geometry (in Angstrom), charge = 0, multiplicity = 1:

       Center              X                  Y                   Z               Mass       
    ------------   -----------------  -----------------  -----------------  -----------------
           O         -2.013163548285    -1.360587672211    -0.206137857803    15.994914619560
           C         -1.641092772269    -0.262405849845     0.052446616764    12.000000000000
           C         -0.322278283145    -0.029217424401     0.762738700343    12.000000000000
           C         -2.446367575095     0.956629771926    -0.329908921291    12.000000000000
           C          0.845701251681    -0.006784234478    -0.230978674377    12.000000000000
           H         -0.350219291361     0.905144876335     1.312713594710     1.007825032070
           H         -0.184234863022    -0.837475935286     1.470172055621     1.007825032070
           C          2.222763716141     0.023134541342     0.447693290262    12.000000000000
           H          0.754073015969     0.830515493107    -0.917094079765     1.007825032070
           H          0.773512884663    -0.891799975773    -0.852463449810     1.007825032070
           C          3.310466693400     0.643638624065    -0.423041334173    12.000000000000
           H          2.158438527247     0.595275031443     1.368194841326     1.007825032070
           H          2.509184896576    -0.982120277204     0.739419926903     1.007825032070
           H          3.084905009469     1.681075796708    -0.645164556274     1.007825032070
           H          3.404776966751     0.117240131051    -1.367163586289     1.007825032070
           H          4.275092193740     0.612002440792     0.070205859024     1.007825032070
           H         -3.274627386253     0.671994486058    -0.960363057243     1.007825032070
           H         -1.824031287365     1.684050156627    -0.838820471799     1.007825032070
           H         -2.823348300161     1.431117913164     0.570514295781     1.007825032070

  Running in c1 symmetry.

  Rotational constants: A =      0.20904  B =      0.03555  C =      0.03342 [cm^-1]
  Rotational constants: A =   6266.96797  B =   1065.72758  C =   1001.92132 [MHz]
  Nuclear repulsion =  301.618385681403993

  Charge       = 0
  Multiplicity = 1
  Electrons    = 56
  Nalpha       = 28
  Nbeta        = 28

  ==> Algorithm <==

  SCF Algorithm Type is DF.
  DIIS enabled.
  MOM disabled.
  Fractional occupation disabled.
  Guess Type is READ.
  Energy threshold   = 1.00e-08
  Density threshold  = 1.00e-08
  Integral threshold = 0.00e+00

  ==> Primary Basis <==

  Basis Set: CC-PVTZ
    Number of shells: 142
    Number of basis function: 378
    Number of Cartesian functions: 425
    Spherical Harmonics?: true
    Max angular momentum: 3

  ==> Pre-Iterations <==

   -------------------------------------------------------
    Irrep   Nso     Nmo     Nalpha   Nbeta   Ndocc  Nsocc
   -------------------------------------------------------
     A        378     378       0       0       0       0
   -------------------------------------------------------
    Total     378     378      28      28      28       0
   -------------------------------------------------------

 OEINTS: Overlap, kinetic, potential, dipole, and quadrupole integrals
         stored in file 35.

  ==> Integral Setup <==

  ==> DFJK: Density-Fitted J/K Matrices <==

    J tasked:                  Yes
    K tasked:                  Yes
    wK tasked:                  No
    OpenMP threads:              4
    Integrals threads:           4
    Memory (MB):              1430
    Algorithm:                Core
    Integral Cache:           NONE
    Schwarz Cutoff:          1E-12
    Fitting Condition:       1E-12

   => Auxiliary Basis Set <=

  Basis Set: 
    Number of shells: 295
    Number of basis function: 913
    Number of Cartesian functions: 1092
    Spherical Harmonics?: true
    Max angular momentum: 4

  Minimum eigenvalue in the overlap matrix is 3.3430324597E-04.
  Using Symmetric Orthogonalization.
  SCF Guess: Reading in previously saved MOs, projecting if necessary.

  Using orbitals from previous SCF, no projection.
  Recomputing DOCC and SOCC from number of alpha and beta electrons from previous calculation.
              A 
    DOCC [    28 ]

  ==> Iterations <==

                           Total Energy        Delta E     RMS |[F,P]|

   @DF-RHF iter   0:  -309.14947304433429   -3.09149e+02   4.31704e-04 
   @DF-RHF iter   1:  -309.17404044072987   -2.45674e-02   7.51919e-05 
   @DF-RHF iter   2:  -309.17471699527300   -6.76555e-04   2.51953e-05 DIIS
   @DF-RHF iter   3:  -309.17480335772564   -8.63625e-05   1.03930e-05 DIIS
   @DF-RHF iter   4:  -309.17481321266507   -9.85494e-06   2.36800e-06 DIIS
   @DF-RHF iter   5:  -309.17481377763681   -5.64972e-07   1.02480e-06 DIIS
   @DF-RHF iter   6:  -309.17481391550257   -1.37866e-07   2.82348e-07 DIIS
   @DF-RHF iter   7:  -309.17481393672915   -2.12266e-08   1.50040e-07 DIIS
   @DF-RHF iter   8:  -309.17481394556501   -8.83585e-09   7.25916e-08 DIIS
   @DF-RHF iter   9:  -309.17481394815502   -2.59001e-09   1.93786e-08 DIIS
   @DF-RHF iter  10:  -309.17481394829872   -1.43700e-10   4.38684e-09 DIIS

  ==> Post-Iterations <==

    Orbital Energies (a.u.)
    -----------------------

    Doubly Occupied:                                                      

       1A    -20.537175     2A    -11.319707     3A    -11.228917  
       4A    -11.228321     5A    -11.227053     6A    -11.223074  
       7A    -11.213810     8A     -1.397247     9A     -1.091103  
      10A     -1.030455    11A     -0.984968    12A     -0.890903  
      13A     -0.808068    14A     -0.735314    15A     -0.664146  
      16A     -0.645443    17A     -0.624694    18A     -0.615371  
      19A     -0.585451    20A     -0.573633    21A     -0.556814  
      22A     -0.535571    23A     -0.511198    24A     -0.506778  
      25A     -0.482706    26A     -0.471998    27A     -0.470398  
      28A     -0.399457  

    Virtual:                                                              

      29A      0.131139    30A      0.146325    31A      0.153865  
      32A      0.170944    33A      0.176810    34A      0.189160  
      35A      0.206701    36A      0.217829    37A      0.220726  
      38A      0.235750    39A      0.239360    40A      0.245379  
      41A      0.263696    42A      0.291054    43A      0.308266  
      44A      0.342143    45A      0.356555    46A      0.359357  
      47A      0.374103    48A      0.394073    49A      0.409675  
      50A      0.419099    51A      0.429053    52A      0.447574  
      53A      0.467947    54A      0.477054    55A      0.511369  
      56A      0.525216    57A      0.541748    58A      0.556758  
      59A      0.571834    60A      0.577555    61A      0.597373  
      62A      0.602456    63A      0.612640    64A      0.623059  
      65A      0.627946    66A      0.640119    67A      0.644532  
      68A      0.646844    69A      0.659370    70A      0.669748  
      71A      0.674599    72A      0.682828    73A      0.691229  
      74A      0.701947    75A      0.707565    76A      0.713724  
      77A      0.743679    78A      0.774391    79A      0.796841  
      80A      0.803780    81A      0.821871    82A      0.845850  
      83A      0.856663    84A      0.874085    85A      0.894344  
      86A      0.944530    87A      0.950537    88A      0.972633  
      89A      0.990099    90A      0.994979    91A      0.996827  
      92A      1.032437    93A      1.046459    94A      1.068854  
      95A      1.078102    96A      1.097449    97A      1.122402  
      98A      1.140287    99A      1.150198   100A      1.170096  
     101A      1.177610   102A      1.206707   103A      1.214325  
     104A      1.236293   105A      1.244690   106A      1.260765  
     107A      1.268529   108A      1.282712   109A      1.292446  
     110A      1.303295   111A      1.311081   112A      1.316641  
     113A      1.337116   114A      1.344562   115A      1.350379  
     116A      1.357895   117A      1.392101   118A      1.404861  
     119A      1.419834   120A      1.429904   121A      1.447144  
     122A      1.460138   123A      1.485337   124A      1.489731  
     125A      1.497165   126A      1.506021   127A      1.511633  
     128A      1.525715   129A      1.536584   130A      1.549645  
     131A      1.553863   132A      1.567377   133A      1.583550  
     134A      1.596824   135A      1.614986   136A      1.625582  
     137A      1.642903   138A      1.651574   139A      1.682645  
     140A      1.696427   141A      1.710741   142A      1.734009  
     143A      1.760954   144A      1.770616   145A      1.791955  
     146A      1.815018   147A      1.829256   148A      1.861783  
     149A      1.884565   150A      1.910728   151A      1.963705  
     152A      1.974112   153A      2.025930   154A      2.107002  
     155A      2.208335   156A      2.259558   157A      2.430653  
     158A      2.448818   159A      2.483370   160A      2.511327  
     161A      2.545967   162A      2.579248   163A      2.596187  
     164A      2.635015   165A      2.658766   166A      2.669816  
     167A      2.683874   168A      2.706791   169A      2.731566  
     170A      2.746330   171A      2.776372   172A      2.796388  
     173A      2.811024   174A      2.834326   175A      2.840597  
     176A      2.854488   177A      2.882952   178A      2.898226  
     179A      2.920569   180A      2.942245   181A      2.948242  
     182A      2.955686   183A      2.970156   184A      3.002906  
     185A      3.021744   186A      3.037606   187A      3.055593  
     188A      3.066803   189A      3.099907   190A      3.114321  
     191A      3.116756   192A      3.138888   193A      3.154591  
     194A      3.173297   195A      3.182032   196A      3.196373  
     197A      3.204024   198A      3.229697   199A      3.239017  
     200A      3.264523   201A      3.272309   202A      3.284632  
     203A      3.322758   204A      3.339875   205A      3.342342  
     206A      3.359062   207A      3.366902   208A      3.377250  
     209A      3.384456   210A      3.399858   211A      3.402389  
     212A      3.427182   213A      3.429982   214A      3.436116  
     215A      3.455424   216A      3.460253   217A      3.462664  
     218A      3.482201   219A      3.490515   220A      3.512681  
     221A      3.522921   222A      3.551181   223A      3.560776  
     224A      3.562564   225A      3.580930   226A      3.611756  
     227A      3.623138   228A      3.632305   229A      3.645699  
     230A      3.667924   231A      3.681594   232A      3.701986  
     233A      3.718708   234A      3.728298   235A      3.750517  
     236A      3.766134   237A      3.779741   238A      3.788720  
     239A      3.819582   240A      3.823178   241A      3.848032  
     242A      3.854707   243A      3.875630   244A      3.886797  
     245A      3.911380   246A      3.937256   247A      3.940044  
     248A      3.957783   249A      3.983505   250A      3.994769  
     251A      4.021914   252A      4.050261   253A      4.063115  
     254A      4.075326   255A      4.086684   256A      4.101049  
     257A      4.132365   258A      4.136344   259A      4.143288  
     260A      4.165304   261A      4.173013   262A      4.181907  
     263A      4.192817   264A      4.200016   265A      4.217891  
     266A      4.226413   267A      4.244584   268A      4.252251  
     269A      4.262370   270A      4.299451   271A      4.306089  
     272A      4.319450   273A      4.335979   274A      4.350453  
     275A      4.358608   276A      4.371319   277A      4.395281  
     278A      4.412924   279A      4.423123   280A      4.431503  
     281A      4.435913   282A      4.443749   283A      4.451945  
     284A      4.489195   285A      4.499257   286A      4.518867  
     287A      4.533139   288A      4.557295   289A      4.581282  
     290A      4.594336   291A      4.613653   292A      4.624604  
     293A      4.633847   294A      4.643821   295A      4.668425  
     296A      4.682970   297A      4.704012   298A      4.723905  
     299A      4.728184   300A      4.746906   301A      4.770579  
     302A      4.807310   303A      4.831804   304A      4.893321  
     305A      4.930567   306A      4.948107   307A      4.974417  
     308A      4.989482   309A      5.000282   310A      5.048515  
     311A      5.091526   312A      5.108265   313A      5.129133  
     314A      5.176542   315A      5.183117   316A      5.197467  
     317A      5.243605   318A      5.246227   319A      5.260108  
     320A      5.269686   321A      5.289221   322A      5.298919  
     323A      5.350841   324A      5.392021   325A      5.410878  
     326A      5.414201   327A      5.433358   328A      5.468018  
     329A      5.506351   330A      5.515146   331A      5.525400  
     332A      5.543813   333A      5.574571   334A      5.598807  
     335A      5.607444   336A      5.628405   337A      5.641917  
     338A      5.649099   339A      5.718433   340A      5.720256  
     341A      5.736642   342A      5.749139   343A      5.753431  
     344A      5.765089   345A      5.794277   346A      5.827331  
     347A      5.841116   348A      5.867880   349A      5.873470  
     350A      5.901810   351A      5.913287   352A      5.943986  
     353A      6.023196   354A      6.069017   355A      6.126066  
     356A      6.235750   357A      6.253301   358A      6.277525  
     359A      6.306982   360A      6.325482   361A      6.337615  
     362A      6.386170   363A      6.489364   364A      6.823163  
     365A      6.835242   366A      6.953503   367A      7.026771  
     368A      7.240961   369A      7.392040   370A      7.573084  
     371A      7.610441   372A      9.751620   373A     13.149608  
     374A     13.419862   375A     13.849979   376A     14.241577  
     377A     14.334389   378A     14.446253  

    Final Occupation by Irrep:
              A 
    DOCC [    28 ]

  Energy converged.

  @DF-RHF Final Energy:  -309.17481394829872

   => Energetics <=

    Nuclear Repulsion Energy =            301.6183856814039927
    One-Electron Energy =               -1016.4668529664629659
    Two-Electron Energy =                 405.6736533367601396
    DFT Exchange-Correlation Energy =       0.0000000000000000
    Empirical Dispersion Energy =           0.0000000000000000
    PCM Polarization Energy =               0.0000000000000000
    EFP Energy =                            0.0000000000000000
    Total Energy =                       -309.1748139482988336

    Alert: EFP and PCM quantities not currently incorporated into SCF psivars.

Properties will be evaluated at   0.000000,   0.000000,   0.000000 Bohr
  ==> Properties <==


Properties computed using the SCF density matrix

  Nuclear Dipole Moment: (a.u.)
     X:     7.9621      Y:     5.4467      Z:    -0.0477

  Electronic Dipole Moment: (a.u.)
     X:    -7.4503      Y:    -4.3591      Z:     0.2926

  Dipole Moment: (a.u.)
     X:     0.5118      Y:     1.0877      Z:     0.2449     Total:     1.2268

  Dipole Moment: (Debye)
     X:     1.3008      Y:     2.7646      Z:     0.6224     Total:     3.1181


  Saving occupied orbitals to File 180.

*** tstop() called on cx1-27-4-1 at Fri Sep  9 22:04:26 2016
Module time:
	user time   =      51.44 seconds =       0.86 minutes
	system time =       0.68 seconds =       0.01 minutes
	total time  =         16 seconds =       0.27 minutes
Total time:
	user time   =     235.95 seconds =       3.93 minutes
	system time =       2.41 seconds =       0.04 minutes
	total time  =         68 seconds =       1.13 minutes

*** tstart() called on cx1-27-4-1
*** at Fri Sep  9 22:04:26 2016


         ------------------------------------------------------------
                                   SCF GRAD                          
                          Rob Parrish, Justin Turney,                
                       Andy Simmonett, and Alex Sokolov              
         ------------------------------------------------------------

  ==> Geometry <==

    Molecular point group: c1
    Full point group: C1

    Geometry (in Angstrom), charge = 0, multiplicity = 1:

       Center              X                  Y                   Z               Mass       
    ------------   -----------------  -----------------  -----------------  -----------------
           O         -2.013163548285    -1.360587672211    -0.206137857803    15.994914619560
           C         -1.641092772269    -0.262405849845     0.052446616764    12.000000000000
           C         -0.322278283145    -0.029217424401     0.762738700343    12.000000000000
           C         -2.446367575095     0.956629771926    -0.329908921291    12.000000000000
           C          0.845701251681    -0.006784234478    -0.230978674377    12.000000000000
           H         -0.350219291361     0.905144876335     1.312713594710     1.007825032070
           H         -0.184234863022    -0.837475935286     1.470172055621     1.007825032070
           C          2.222763716141     0.023134541342     0.447693290262    12.000000000000
           H          0.754073015969     0.830515493107    -0.917094079765     1.007825032070
           H          0.773512884663    -0.891799975773    -0.852463449810     1.007825032070
           C          3.310466693400     0.643638624065    -0.423041334173    12.000000000000
           H          2.158438527247     0.595275031443     1.368194841326     1.007825032070
           H          2.509184896576    -0.982120277204     0.739419926903     1.007825032070
           H          3.084905009469     1.681075796708    -0.645164556274     1.007825032070
           H          3.404776966751     0.117240131051    -1.367163586289     1.007825032070
           H          4.275092193740     0.612002440792     0.070205859024     1.007825032070
           H         -3.274627386253     0.671994486058    -0.960363057243     1.007825032070
           H         -1.824031287365     1.684050156627    -0.838820471799     1.007825032070
           H         -2.823348300161     1.431117913164     0.570514295781     1.007825032070

  Nuclear repulsion =  301.618385681403993

  ==> Basis Set <==

  Basis Set: CC-PVTZ
    Number of shells: 142
    Number of basis function: 378
    Number of Cartesian functions: 425
    Spherical Harmonics?: true
    Max angular momentum: 3

  ==> DFJKGrad: Density-Fitted SCF Gradients <==

    Gradient:                    1
    J tasked:                  Yes
    K tasked:                  Yes
    wK tasked:                  No
    OpenMP threads:              4
    Integrals threads:           4
    Memory (MB):              1430
    Schwarz Cutoff:          0E+00
    Fitting Condition:       1E-12

   => Auxiliary Basis Set <=

  Basis Set: 
    Number of shells: 295
    Number of basis function: 913
    Number of Cartesian functions: 1092
    Spherical Harmonics?: true
    Max angular momentum: 4


  -Total Gradient:
     Atom            X                  Y                   Z
    ------   -----------------  -----------------  -----------------
       1       -0.000153990944    -0.000199903208    -0.000400637596
       2       -0.000002877749    -0.000488240976     0.000779531064
       3       -0.000971463337    -0.000700536739    -0.000201302653
       4        0.000192499016     0.000080293421    -0.000183336925
       5       -0.002556223452     0.005305868167     0.003644615831
       6        0.000125251506     0.000082448191    -0.000590209394
       7       -0.000167020920     0.000137208241     0.000421747502
       8        0.001841247346    -0.005099475071    -0.002311051807
       9        0.001326908427    -0.002525830551    -0.003417170324
      10       -0.000928049425     0.000821097582     0.000530973145
      11       -0.000096702473     0.002820442547     0.001890661651
      12        0.000504648622    -0.000335682587    -0.000608244205
      13        0.000907665206    -0.000015417827     0.000397316870
      14        0.000136932415     0.000097163934    -0.000044015949
      15       -0.000347422324    -0.000098538309     0.000233556093
      16        0.000229855386     0.000128528967    -0.000134877143
      17        0.000033975490    -0.000010574680    -0.000010498042
      18       -0.000091782693     0.000053902448    -0.000006883781
      19        0.000016549903    -0.000052753556     0.000009825663


*** tstop() called on cx1-27-4-1 at Fri Sep  9 22:04:57 2016
Module time:
	user time   =     120.09 seconds =       2.00 minutes
	system time =       0.76 seconds =       0.01 minutes
	total time  =         31 seconds =       0.52 minutes
Total time:
	user time   =     356.07 seconds =       5.93 minutes
	system time =       3.17 seconds =       0.05 minutes
	total time  =         99 seconds =       1.65 minutes
CURRENT ENERGY: -309.1748139483

			-----------------------------------------
			 OPTKING 2.0: for geometry optimizations 
			  - R.A. King,  Bethel University        
			-----------------------------------------

	Previous internal coordinate definitions found.
	---Fragment 1 Geometry and Gradient---
	 O          -3.8043277670       -2.5711380803       -0.3895440969
	 C          -3.1012158982       -0.4958751919        0.0991097423
	 C          -0.6090176937       -0.0552129304        1.4413672546
	 C          -4.6229647373        1.8077682795       -0.6234375100
	 C           1.5981437559       -0.0128203452       -0.4364864371
	 H          -0.6618185471        1.7104759269        2.4806691849
	 H          -0.3481534352       -1.5826001606        2.7782225533
	 C           4.2004146816        0.0437179473        0.8460177101
	 H           1.4249914844        1.5694468311       -1.7330566488
	 H           1.4617275123       -1.6852577195       -1.6109224584
	 C           6.2558754226        1.2163007280       -0.7994322645
	 H           4.0788576912        1.1249067832        2.5855135465
	 H           4.7416722713       -1.8559383535        1.3973011590
	 H           5.8296256139        3.1767728644       -1.2191843220
	 H           6.4340960107        0.2215517395       -2.5835647569
	 H           8.0787534390        1.1565170058        0.1326698465
	 H          -6.1881489473        1.2698855415       -1.8148231663
	 H          -3.4469195909        3.1823935901       -1.5851409664
	 H          -5.3353550651        2.7044209197        1.0781157739
	            -0.0001539909       -0.0001999032       -0.0004006376
	            -0.0000028777       -0.0004882410        0.0007795311
	            -0.0009714633       -0.0007005367       -0.0002013027
	             0.0001924990        0.0000802934       -0.0001833369
	            -0.0025562235        0.0053058682        0.0036446158
	             0.0001252515        0.0000824482       -0.0005902094
	            -0.0001670209        0.0001372082        0.0004217475
	             0.0018412473       -0.0050994751       -0.0023110518
	             0.0013269084       -0.0025258306       -0.0034171703
	            -0.0009280494        0.0008210976        0.0005309731
	            -0.0000967025        0.0028204425        0.0018906617
	             0.0005046486       -0.0003356826       -0.0006082442
	             0.0009076652       -0.0000154178        0.0003973169
	             0.0001369324        0.0000971639       -0.0000440159
	            -0.0003474223       -0.0000985383        0.0002335561
	             0.0002298554        0.0001285290       -0.0001348771
	             0.0000339755       -0.0000105747       -0.0000104980
	            -0.0000917827        0.0000539024       -0.0000068838
	             0.0000165499       -0.0000527536        0.0000098257

	---Fragment 1 Intrafragment Coordinates---
	 - Coordinate -           - BOHR/RAD -       - ANG/DEG -
	 R(1,2)           =         2.244964	       1.187984
	 R(2,3)           =         2.864767	       1.515970
	 R(2,4)           =         2.853869	       1.510202
	 R(3,5)           =         2.898222	       1.533673
	 R(3,6)           =         2.049535	       1.084567
	 R(3,7)           =         2.046496	       1.082959
	 R(4,17)          =         2.039245	       1.079122
	 R(4,18)          =         2.048792	       1.084174
	 R(4,19)          =         2.051041	       1.085364
	 R(5,8)           =         2.901694	       1.535510
	 R(5,9)           =         2.052960	       1.086380
	 R(5,10)          =         2.048159	       1.083839
	 R(8,11)          =         2.882252	       1.525222
	 R(8,12)          =         2.051729	       1.085728
	 R(8,13)          =         2.050748	       1.085209
	 R(11,14)         =         2.049715	       1.084663
	 R(11,15)         =         2.050467	       1.085061
	 R(11,16)         =         2.048236	       1.083880
	 B(1,2,3)         =         2.113721	     121.107311
	 B(1,2,4)         =         2.122419	     121.605670
	 B(2,3,5)         =         1.940332	     111.172834
	 B(2,3,6)         =         1.925912	     110.346631
	 B(2,3,7)         =         1.877751	     107.587222
	 B(2,4,17)        =         1.922257	     110.137227
	 B(2,4,18)        =         1.933015	     110.753596
	 B(2,4,19)        =         1.905032	     109.150315
	 B(3,2,4)         =         2.046920	     117.279878
	 B(3,5,8)         =         1.978913	     113.383354
	 B(3,5,9)         =         1.935049	     110.870137
	 B(3,5,10)        =         1.884795	     107.990826
	 B(5,3,6)         =         1.913017	     109.607780
	 B(5,3,7)         =         1.914630	     109.700204
	 B(5,8,11)        =         1.977036	     113.275798
	 B(5,8,12)        =         1.909069	     109.381608
	 B(5,8,13)        =         1.915016	     109.722352
	 B(6,3,7)         =         1.891264	     108.361439
	 B(8,5,9)         =         1.917461	     109.862414
	 B(8,5,10)        =         1.906126	     109.212968
	 B(8,11,14)       =         1.936625	     110.960456
	 B(8,11,15)       =         1.940518	     111.183495
	 B(8,11,16)       =         1.942290	     111.284998
	 B(9,5,10)        =         1.835454	     105.163756
	 B(11,8,12)       =         1.887966	     108.172487
	 B(11,8,13)       =         1.919948	     110.004919
	 B(12,8,13)       =         1.850286	     106.013595
	 B(14,11,15)      =         1.879579	     107.691961
	 B(14,11,16)      =         1.881979	     107.829480
	 B(15,11,16)      =         1.880159	     107.725185
	 B(17,4,18)       =         1.921238	     110.078802
	 B(17,4,19)       =         1.910706	     109.475383
	 B(18,4,19)       =         1.870749	     107.186008
	 D(1,2,3,5)       =         1.475967	      84.566704
	 D(1,2,3,6)       =        -2.680818	    -153.599536
	 D(1,2,3,7)       =        -0.620739	     -35.565737
	 D(1,2,4,17)      =        -0.139880	      -8.014535
	 D(1,2,4,18)      =        -2.269264	    -130.019260
	 D(1,2,4,19)      =         1.958270	     112.200630
	 D(2,3,5,8)       =        -2.996508	    -171.687277
	 D(2,3,5,9)       =         1.120272	      64.186851
	 D(2,3,5,10)      =        -0.881933	     -50.531022
	 D(3,2,4,17)      =         2.984922	     171.023446
	 D(3,2,4,18)      =         0.855538	      49.018722
	 D(3,2,4,19)      =        -1.200113	     -68.761389
	 D(3,5,8,11)      =        -2.699540	    -154.672271
	 D(3,5,8,12)      =        -0.592120	     -33.926001
	 D(3,5,8,13)      =         1.430689	      81.972453
	 D(4,2,3,5)       =        -1.648924	     -94.476364
	 D(4,2,3,6)       =         0.477477	      27.357396
	 D(4,2,3,7)       =         2.537555	     145.391196
	 D(5,8,11,14)     =         1.086055	      62.226343
	 D(5,8,11,15)     =        -1.005427	     -57.606751
	 D(5,8,11,16)     =        -3.101438	    -177.699302
	 D(6,3,5,8)       =         1.152789	      66.049934
	 D(6,3,5,9)       =        -1.013616	     -58.075938
	 D(6,3,5,10)      =        -3.015821	    -172.793810
	 D(7,3,5,8)       =        -0.921793	     -52.814836
	 D(7,3,5,9)       =        -3.088198	    -176.940708
	 D(7,3,5,10)      =         1.192783	      68.341420
	*D(9,5,8,11)      =        -0.523599	     -30.000019
	 D(9,5,8,12)      =         1.583821	      90.746251
	 D(9,5,8,13)      =        -2.676555	    -153.355295
	 D(10,5,8,11)     =         1.481108	      84.861211
	 D(10,5,8,12)     =        -2.694658	    -154.392519
	 D(10,5,8,13)     =        -0.671848	     -38.494065
	 D(12,8,11,14)    =        -1.033265	     -59.201741
	 D(12,8,11,15)    =        -3.124747	    -179.034835
	 D(12,8,11,16)    =         1.062428	      60.872614
	 D(13,8,11,14)    =        -3.046890	    -174.573924
	 D(13,8,11,15)    =         1.144814	      65.592982
	 D(13,8,11,16)    =        -0.951197	     -54.499569

	Current energy   :      -309.1748139483

	Energy change for the previous step:
		Projected    :        -0.0014905038
		Actual       :        -0.0001428666
	Energy ratio indicates iffy step: Trust radius decreased to 1.250e-01.


	Performing BFGS update.
	Previous computed or guess Hessian on step 1.
	Steps to be used in Hessian update: 1
	Taking RFO optimization step.
	Going to follow RFO solution 1.
	Using RFO vector 1.

	Determining step-restricting scale parameter for RS-RFO.
	Maximum step size allowed    0.12500

	 Iter      |step|        alpha        rfo_root  
	------------------------------------------------
	    0     0.41416       1.00000           1
	    1     0.26817       4.22721           1
	    2     0.18457      10.09194           1
	    3     0.14275      17.01041           1
	    4     0.12751      21.14092           1
	    5     0.12506      21.93202           1
	    6     0.12500      21.95341           1
	------------------------------------------------
	Norm of target step-size    0.12500
	Projected energy change by RFO approximation:        -0.0001921660

	Back-transformation to cartesian coordinates...
	Successfully converged to displaced geometry.

	Back-transformation to cartesian coordinates to adjust frozen coordinates...
	Successfully converged to displaced geometry.

	--- Internal Coordinate Step in ANG or DEG, aJ/ANG or AJ/DEG ---
	 ---------------------------------------------------------------------------
	   Coordinate                Previous        Force       Change         New 
	   ----------                --------       ------       ------       ------
	    1 R(1,2)          =      1.187984    -0.002638    -0.000109     1.187875
	    2 R(2,3)          =      1.515970    -0.000097    -0.000004     1.515965
	    3 R(2,4)          =      1.510202    -0.000205    -0.000032     1.510170
	    4 R(3,5)          =      1.533673    -0.005555    -0.000895     1.532779
	    5 R(3,6)          =      1.084567     0.001907     0.000223     1.084790
	    6 R(3,7)          =      1.082959    -0.001251    -0.000127     1.082832
	    7 R(4,17)         =      1.079122     0.000141     0.000018     1.079139
	    8 R(4,18)         =      1.084174     0.000109     0.000013     1.084188
	    9 R(4,19)         =      1.085364     0.000170     0.000025     1.085389
	   10 R(5,8)          =      1.535510    -0.020966    -0.002470     1.533040
	   11 R(5,9)          =      1.086380    -0.000820    -0.000176     1.086204
	   12 R(5,10)         =      1.083839     0.007523     0.000950     1.084789
	   13 R(8,11)         =      1.525222    -0.000276    -0.000009     1.525213
	   14 R(8,12)         =      1.085728     0.005952     0.000739     1.086468
	   15 R(8,13)         =      1.085209    -0.002971    -0.000487     1.084723
	   16 R(11,14)        =      1.084663    -0.000605    -0.000106     1.084557
	   17 R(11,15)        =      1.085061     0.001529     0.000251     1.085312
	   18 R(11,16)        =      1.083880    -0.001149    -0.000138     1.083742
	   19 B(1,2,3)        =    121.107311    -0.000026    -0.052197   121.055115
	   20 B(1,2,4)        =    121.605670     0.000011     0.026442   121.632112
	   21 B(2,3,5)        =    111.172834     0.000005     0.029197   111.202031
	   22 B(2,3,6)        =    110.346631    -0.000023    -0.054757   110.291874
	   23 B(2,3,7)        =    107.587222     0.000020     0.064041   107.651263
	   24 B(2,4,17)       =    110.137227     0.000004     0.014525   110.151752
	   25 B(2,4,18)       =    110.753596    -0.000014    -0.050916   110.702680
	   26 B(2,4,19)       =    109.150315     0.000007     0.026693   109.177009
	   27 B(3,2,4)        =    117.279878     0.000015     0.032885   117.312763
	   28 B(3,5,8)        =    113.383354    -0.000092    -0.216690   113.166664
	   29 B(3,5,9)        =    110.870137     0.000032     0.064147   110.934283
	   30 B(3,5,10)       =    107.990826     0.000081     0.444871   108.435697
	   31 B(5,3,6)        =    109.607780     0.000031     0.146138   109.753917
	   32 B(5,3,7)        =    109.700204    -0.000032    -0.160143   109.540061
	   33 B(5,8,11)       =    113.275798    -0.000048    -0.122856   113.152942
	   34 B(5,8,12)       =    109.381608    -0.000002    -0.079768   109.301840
	   35 B(5,8,13)       =    109.722352    -0.000033    -0.231473   109.490879
	   36 B(6,3,7)        =    108.361439    -0.000002    -0.030208   108.331231
	   37 B(8,5,9)        =    109.862414    -0.000003    -0.239066   109.623348
	   38 B(8,5,10)       =    109.212968    -0.000002    -0.027104   109.185864
	   39 B(8,11,14)      =    110.960456    -0.000018    -0.085965   110.874491
	   40 B(8,11,15)      =    111.183495     0.000050     0.204380   111.387875
	   41 B(8,11,16)      =    111.284998    -0.000034    -0.125684   111.159314
	   42 B(9,5,10)       =    105.163756    -0.000008     0.000475   105.164231
	   43 B(11,8,12)      =    108.172487     0.000030     0.078664   108.251151
	   44 B(11,8,13)      =    110.004919     0.000054     0.277419   110.282338
	   45 B(12,8,13)      =    106.013595     0.000002     0.094234   106.107830
	   46 B(14,11,15)     =    107.691961    -0.000010     0.002036   107.693997
	   47 B(14,11,16)     =    107.829480     0.000019     0.030614   107.860094
	   48 B(15,11,16)     =    107.725185    -0.000007    -0.024713   107.700472
	   49 B(17,4,18)      =    110.078802     0.000004     0.010374   110.089176
	   50 B(17,4,19)      =    109.475383    -0.000003    -0.000655   109.474728
	   51 B(18,4,19)      =    107.186008     0.000001     0.000108   107.186116
	   52 D(1,2,3,5)      =     84.566704    -0.000002     0.558007    85.124711
	   53 D(1,2,3,6)      =   -153.599536     0.000004     0.725558  -152.873978
	   54 D(1,2,3,7)      =    -35.565737     0.000003     0.696416   -34.869321
	   55 D(1,2,4,17)     =     -8.014535    -0.000002    -0.440179    -8.454715
	   56 D(1,2,4,18)     =   -130.019260    -0.000001    -0.429012  -130.448272
	   57 D(1,2,4,19)     =    112.200630    -0.000001    -0.415300   111.785329
	   58 D(2,3,5,8)      =   -171.687277    -0.000009    -2.447459  -174.134736
	   59 D(2,3,5,9)      =     64.186851     0.000002    -2.018852    62.167998
	   60 D(2,3,5,10)     =    -50.531022    -0.000010    -2.309125   -52.840147
	   61 D(3,2,4,17)     =    171.023446     0.000001     0.558431   171.581878
	   62 D(3,2,4,18)     =     49.018722     0.000002     0.569599    49.588321
	   63 D(3,2,4,19)     =    -68.761389     0.000002     0.583310   -68.178078
	   64 D(3,5,8,11)     =   -154.672271     0.000006     0.258343  -154.413927
	   65 D(3,5,8,12)     =    -33.926001     0.000008     0.220656   -33.705344
	   66 D(3,5,8,13)     =     81.972453     0.000004     0.158449    82.130903
[...]
	 R(3,5)           =         2.895026	       1.531982
	 R(3,6)           =         2.050009	       1.084818
	 R(3,7)           =         2.046212	       1.082809
	 R(4,17)          =         2.039265	       1.079133
	 R(4,18)          =         2.048781	       1.084168
	 R(4,19)          =         2.051026	       1.085356
	 R(5,8)           =         2.896056	       1.532527
	 R(5,9)           =         2.053051	       1.086428
	 R(5,10)          =         2.050330	       1.084988
	 R(8,11)          =         2.881979	       1.525078
	 R(8,12)          =         2.053297	       1.086558
	 R(8,13)          =         2.049954	       1.084789
	 R(11,14)         =         2.049494	       1.084545
	 R(11,15)         =         2.050792	       1.085233
	 R(11,16)         =         2.047999	       1.083754
	 B(1,2,3)         =         2.113275	     121.081714
	 B(1,2,4)         =         2.122819	     121.628578
	 B(2,3,5)         =         1.940975	     111.209682
	 B(2,3,6)         =         1.924638	     110.273627
	 B(2,3,7)         =         1.878551	     107.633039
	 B(2,4,17)        =         1.922394	     110.145087
	 B(2,4,18)        =         1.932573	     110.728287
	 B(2,4,19)        =         1.905227	     109.161442
	 B(3,2,4)         =         2.047028	     117.286046
	 B(3,5,8)         =         1.975242	     113.173029
	 B(3,5,9)         =         1.935688	     110.906745
	 B(3,5,10)        =         1.892073	     108.407799
	 B(5,3,6)         =         1.915794	     109.766896
	 B(5,3,7)         =         1.911942	     109.546233
	 B(5,8,11)        =         1.974512	     113.131231
	 B(5,8,12)        =         1.907975	     109.318923
	 B(5,8,13)        =         1.910476	     109.462222
	 B(6,3,7)         =         1.890899	     108.340542
	 B(8,5,9)         =         1.912988	     109.606131
	 B(8,5,10)        =         1.906087	     109.210725
	 B(8,11,14)       =         1.934519	     110.839783
	 B(8,11,15)       =         1.944442	     111.408327
	 B(8,11,16)       =         1.940285	     111.170128
	 B(9,5,10)        =         1.836250	     105.209380
	 B(11,8,12)       =         1.890333	     108.308129
	 B(11,8,13)       =         1.923977	     110.235767
	 B(12,8,13)       =         1.852415	     106.135566
	 B(14,11,15)      =         1.879707	     107.699276
	 B(14,11,16)      =         1.882563	     107.862912
	 B(15,11,16)      =         1.879650	     107.695987
	 B(17,4,18)       =         1.921335	     110.084378
	 B(17,4,19)       =         1.910696	     109.474841
	 B(18,4,19)       =         1.870772	     107.187341
	 D(1,2,3,5)       =         1.485831	      85.131854
	 D(1,2,3,6)       =        -2.667871	    -152.857738
	 D(1,2,3,7)       =        -0.608470	     -34.862751
	 D(1,2,4,17)      =        -0.141822	      -8.125787
	 D(1,2,4,18)      =        -2.271126	    -130.125921
	 D(1,2,4,19)      =         1.956523	     112.100525
	 D(2,3,5,8)       =        -3.077532	    -176.329593
	 D(2,3,5,9)       =         1.047412	      60.012275
	 D(2,3,5,10)      =        -0.960262	     -55.018987
	 D(3,2,4,17)      =         2.987743	     171.185061
	 D(3,2,4,18)      =         0.858439	      49.184927
	 D(3,2,4,19)      =        -1.197097	     -68.588627
	 D(3,5,8,11)      =        -2.694255	    -154.369416
	 D(3,5,8,12)      =        -0.586267	     -33.590609
	 D(3,5,8,13)      =         1.435925	      82.272461
	 D(4,2,3,5)       =        -1.643803	     -94.182991
	 D(4,2,3,6)       =         0.485680	      27.827418
	 D(4,2,3,7)       =         2.545081	     145.822405
	 D(5,8,11,14)     =         1.082750	      62.037001
	 D(5,8,11,15)     =        -1.010091	     -57.873960
	 D(5,8,11,16)     =        -3.106749	    -178.003633
	 D(6,3,5,8)       =         1.071044	      61.366311
	 D(6,3,5,9)       =        -1.087197	     -62.291821
	 D(6,3,5,10)      =        -3.094872	    -177.323083
	 D(7,3,5,8)       =        -1.003144	     -57.475918
	 D(7,3,5,9)       =         3.121800	     178.865950
	 D(7,3,5,10)      =         1.114125	      63.834688
	*D(9,5,8,11)      =        -0.523599	     -30.000019
	 D(9,5,8,12)      =         1.584389	      90.778788
	 D(9,5,8,13)      =        -2.676605	    -153.358142
	 D(10,5,8,11)     =         1.479579	      84.773633
	 D(10,5,8,12)     =        -2.695618	    -154.447561
	 D(10,5,8,13)     =        -0.673426	     -38.584490
	 D(12,8,11,14)    =        -1.035216	     -59.313479
	 D(12,8,11,15)    =        -3.128057	    -179.224440
	 D(12,8,11,16)    =         1.058470	      60.645886
	 D(13,8,11,14)    =        -3.054894	    -175.032512
	 D(13,8,11,15)    =         1.135451	      65.056527
	 D(13,8,11,16)    =        -0.961208	     -55.073146

	Current energy   :      -309.1749421512

	Energy change for the previous step:
		Projected    :        -0.0000041502
		Actual       :        -0.0000008579
	Energy ratio indicates iffy step: Trust radius decreased to 9.375e-02.


	Performing BFGS update.
	Previous computed or guess Hessian on step 1.
	Steps to be used in Hessian update: 6 5
	Taking RFO optimization step.
	Going to follow RFO solution 1.
	Using RFO vector 1.
	Norm of target step-size    0.00906
	Projected energy change by RFO approximation:        -0.0000008232

	Back-transformation to cartesian coordinates...
	Successfully converged to displaced geometry.

	Back-transformation to cartesian coordinates to adjust frozen coordinates...
	Successfully converged to displaced geometry.

	--- Internal Coordinate Step in ANG or DEG, aJ/ANG or AJ/DEG ---
	 ---------------------------------------------------------------------------
	   Coordinate                Previous        Force       Change         New 
	   ----------                --------       ------       ------       ------
	    1 R(1,2)          =      1.187881     0.000046     0.000001     1.187882
	    2 R(2,3)          =      1.515940     0.000049     0.000007     1.515946
	    3 R(2,4)          =      1.510194    -0.000030    -0.000002     1.510193
	    4 R(3,5)          =      1.531982    -0.000441    -0.000068     1.531913
	    5 R(3,6)          =      1.084818     0.000004     0.000002     1.084820
	    6 R(3,7)          =      1.082809    -0.000076    -0.000008     1.082801
	    7 R(4,17)         =      1.079133    -0.000006    -0.000001     1.079132
	    8 R(4,18)         =      1.084168     0.000018    -0.000000     1.084168
	    9 R(4,19)         =      1.085356    -0.000041    -0.000004     1.085353
	   10 R(5,8)          =      1.532527    -0.000032     0.000011     1.532538
	   11 R(5,9)          =      1.086428     0.000162     0.000018     1.086446
	   12 R(5,10)         =      1.084988     0.000035     0.000005     1.084993
	   13 R(8,11)         =      1.525078    -0.000097    -0.000013     1.525065
	   14 R(8,12)         =      1.086558     0.000072     0.000007     1.086565
	   15 R(8,13)         =      1.084789    -0.000007    -0.000003     1.084786
	   16 R(11,14)        =      1.084545    -0.000058    -0.000007     1.084538
	   17 R(11,15)        =      1.085233     0.000012     0.000002     1.085235
	   18 R(11,16)        =      1.083754     0.000028     0.000004     1.083758
	   19 B(1,2,3)        =    121.081714     0.000002     0.005240   121.086953
	   20 B(1,2,4)        =    121.628578    -0.000001    -0.002147   121.626432
	   21 B(2,3,5)        =    111.209682     0.000002     0.003266   111.212947
	   22 B(2,3,6)        =    110.273627     0.000000     0.002052   110.275679
	   23 B(2,3,7)        =    107.633039    -0.000001    -0.000717   107.632322
	   24 B(2,4,17)       =    110.145087    -0.000000    -0.001568   110.143519
	   25 B(2,4,18)       =    110.728287     0.000002     0.005446   110.733733
	   26 B(2,4,19)       =    109.161442    -0.000002    -0.004160   109.157281
	   27 B(3,2,4)        =    117.286046    -0.000001    -0.003423   117.282623
	   28 B(3,5,8)        =    113.173029     0.000001     0.001265   113.174294
	   29 B(3,5,9)        =    110.906745    -0.000000    -0.002308   110.904438
	   30 B(3,5,10)       =    108.407799    -0.000001    -0.008514   108.399285
	   31 B(5,3,6)        =    109.766896    -0.000002    -0.007203   109.759693
	   32 B(5,3,7)        =    109.546233    -0.000000     0.000554   109.546787
	   33 B(5,8,11)       =    113.131231    -0.000002    -0.003439   113.127792
	   34 B(5,8,12)       =    109.318923     0.000000     0.001281   109.320204
	   35 B(5,8,13)       =    109.462222     0.000001     0.005027   109.467249
	   36 B(6,3,7)        =    108.340542     0.000001     0.002193   108.342735
	   37 B(8,5,9)        =    109.606131     0.000000     0.004497   109.610627
	   38 B(8,5,10)       =    109.210725     0.000000     0.000619   109.211344
	   39 B(8,11,14)      =    110.839783    -0.000002    -0.006457   110.833326
	   40 B(8,11,15)      =    111.408327     0.000000     0.001076   111.409403
	   41 B(8,11,16)      =    111.170128     0.000001     0.004146   111.174274
	   42 B(9,5,10)       =    105.209380     0.000000     0.004543   105.213923
	   43 B(11,8,12)      =    108.308129     0.000001     0.003151   108.311280
	   44 B(11,8,13)      =    110.235767    -0.000000    -0.005570   110.230197
	   45 B(12,8,13)      =    106.135566    -0.000000    -0.000236   106.135331
	   46 B(14,11,15)     =    107.699276     0.000000     0.000048   107.699323
	   47 B(14,11,16)     =    107.862912     0.000000     0.000840   107.863751
	   48 B(15,11,16)     =    107.695987    -0.000000     0.000409   107.696396
	   49 B(17,4,18)      =    110.084378    -0.000000     0.000455   110.084833
	   50 B(17,4,19)      =    109.474841     0.000000    -0.001369   109.473473
	   51 B(18,4,19)      =    107.187341     0.000000     0.001159   107.188501
	   52 D(1,2,3,5)      =     85.131854    -0.000000     0.038894    85.170747
	   53 D(1,2,3,6)      =   -152.857738    -0.000000     0.033380  -152.824357
	   54 D(1,2,3,7)      =    -34.862751    -0.000000     0.036738   -34.826012
	   55 D(1,2,4,17)     =     -8.125787     0.000000    -0.000191    -8.125978
	   56 D(1,2,4,18)     =   -130.125921     0.000000    -0.003349  -130.129270
	   57 D(1,2,4,19)     =    112.100525     0.000000    -0.005449   112.095076
	   58 D(2,3,5,8)      =   -176.329593     0.000000    -0.029905  -176.359498
	   59 D(2,3,5,9)      =     60.012275    -0.000000    -0.034999    59.977277
	   60 D(2,3,5,10)     =    -55.018987     0.000000    -0.034287   -55.053274
	   61 D(3,2,4,17)     =    171.185061    -0.000000    -0.030508   171.154553
	   62 D(3,2,4,18)     =     49.184927    -0.000000    -0.033666    49.151261
	   63 D(3,2,4,19)     =    -68.588627    -0.000000    -0.035766   -68.624393
	   64 D(3,5,8,11)     =   -154.369416    -0.000000    -0.001328  -154.370744
	   65 D(3,5,8,12)     =    -33.590609    -0.000000     0.001311   -33.589298
	   66 D(3,5,8,13)     =     82.272461     0.000000     0.004569    82.277030
	   67 D(4,2,3,5)      =    -94.182991     0.000000     0.069091   -94.113900
	   68 D(4,2,3,6)      =     27.827418     0.000000     0.063578    27.890995
	   69 D(4,2,3,7)      =    145.822405     0.000000     0.066936   145.889340
	   70 D(5,8,11,14)    =     62.037001    -0.000000    -0.163161    61.873839
	   71 D(5,8,11,15)    =    -57.873960    -0.000000    -0.159602   -58.033563
	   72 D(5,8,11,16)    =   -178.003633    -0.000000    -0.163660  -178.167293
	   73 D(6,3,5,8)      =     61.366311    -0.000000    -0.029747    61.336565
	   74 D(6,3,5,9)      =    -62.291821    -0.000000    -0.034840   -62.326661
	   75 D(6,3,5,10)     =   -177.323083    -0.000000    -0.034128  -177.357211
	   76 D(7,3,5,8)      =    -57.475918     0.000000    -0.028417   -57.504335
	   77 D(7,3,5,9)      =    178.865950    -0.000000    -0.033511   178.832439
	   78 D(7,3,5,10)     =     63.834688    -0.000000    -0.032799    63.801889
	   79 *D(9,5,8,11)    =    -30.000019    -0.000000    -0.000000   -30.000019
	   80 D(9,5,8,12)     =     90.778788     0.000000     0.002639    90.781427
	   81 D(9,5,8,13)     =   -153.358142     0.000000     0.005897  -153.352245
	   82 D(10,5,8,11)    =     84.773633     0.000000     0.008236    84.781869
	   83 D(10,5,8,12)    =   -154.447561     0.000000     0.010875  -154.436686
	   84 D(10,5,8,13)    =    -38.584490     0.000000     0.014133   -38.570357
	   85 D(12,8,11,14)   =    -59.313479    -0.000000    -0.164767   -59.478247
	   86 D(12,8,11,15)   =   -179.224440    -0.000000    -0.161208  -179.385649
	   87 D(12,8,11,16)   =     60.645886    -0.000000    -0.165266    60.480621
	   88 D(13,8,11,14)   =   -175.032512    -0.000000    -0.163242  -175.195754
	   89 D(13,8,11,15)   =     65.056527    -0.000000    -0.159683    64.896844
	   90 D(13,8,11,16)   =    -55.073146    -0.000000    -0.163740   -55.236886
	 ---------------------------------------------------------------------------

  ==> Convergence Check <==

  Measures of convergence in internal coordinates in au.
  Criteria marked as inactive (o), active & met (*), and active & unmet ( ).
  ---------------------------------------------------------------------------------------------
   Step     Total Energy     Delta E     MAX Force     RMS Force      MAX Disp      RMS Disp   
  ---------------------------------------------------------------------------------------------
    Convergence Criteria    1.00e-06 *    3.00e-04 *             o    1.20e-03 *             o
  ---------------------------------------------------------------------------------------------
      7    -309.17494215   -8.58e-07 *    5.35e-05 *    1.17e-05 o    2.88e-03      9.55e-04 o  ~
  ---------------------------------------------------------------------------------------------


  **** Optimization is complete! (in 7 steps) ****

  ==> Optimization Summary <==

  Measures of convergence in internal coordinates in au.
  --------------------------------------------------------------------------------------------------------------- ~
   Step         Total Energy             Delta E       MAX Force       RMS Force        MAX Disp        RMS Disp  ~
  --------------------------------------------------------------------------------------------------------------- ~
      1    -309.174671081649   -309.174671081649      0.00545340      0.00071245      0.13305894      0.04286894  ~
      2    -309.174813948299     -0.000142866649      0.00254484      0.00043704      0.04359503      0.01317615  ~
      3    -309.174909100762     -0.000095152463      0.00043910      0.00013718      0.03044469      0.01317569  ~
      4    -309.174855609878      0.000053490884      0.00075330      0.00031137      0.03458851      0.01317595  ~
      5    -309.174924326798     -0.000068716921      0.00146882      0.00022508      0.02630743      0.00793987  ~
      6    -309.174941293293     -0.000016966495      0.00023963      0.00003878      0.00835257      0.00261152  ~
      7    -309.174942151240     -0.000000857946      0.00005350      0.00001173      0.00288443      0.00095499  ~
  --------------------------------------------------------------------------------------------------------------- ~

	Writing optimization data to binary file.
	Final energy is   -309.1749421512396
	Final (previous) structure:
	Cartesian Geometry (in Angstrom)
	    O    -2.0406981223  -1.3430275812  -0.2291757428
	    C    -1.6392524679  -0.2593640285   0.0457350115
	    C    -0.3171753027  -0.0734071425   0.7637912386
	    C    -2.4114331016   0.9868063626  -0.3168710037
	    C     0.8529150576  -0.0561783148  -0.2249249473
	    H    -0.3269223599   0.8476938491   1.3367736470
	    H    -0.1981667097  -0.9012485726   1.4515346896
	    C     2.2202472216   0.0400154967   0.4604863590
	    H     0.7451677769   0.7554894533  -0.9390058542
	    H     0.8138551760  -0.9639914554  -0.8178401598
	    C     3.2923480598   0.6645179965  -0.4263389876
	    H     2.1294315524   0.6411930382   1.3610119674
	    H     2.5311913130  -0.9466950599   0.7868035742
	    H     3.0313682962   1.6843644419  -0.6871864048
	    H     3.4152462619   0.1087712401  -1.3503366206
	    H     4.2524976774   0.6851502476   0.0758668508
	    H    -3.2464208247   0.7348895445  -0.9523715798
	    H    -1.7691286124   1.7053469470  -0.8134241571
	    H    -2.7764294193   1.4565196367   0.5909536875
	Saving final (previous) structure.
			--------------------------
			 OPTKING Finished Execution 
			--------------------------

    Final optimized geometry and variables:
    Molecular point group: c1
    Full point group: C1

    Geometry (in Angstrom), charge = 0, multiplicity = 1:

    O           -2.040697966436    -1.343027478632    -0.229175725260
    C           -1.639252342737    -0.259364008708     0.045735008044
    C           -0.317175278488    -0.073407136937     0.763791180272
    C           -2.411432917418     0.986806287279    -0.316870979488
    C            0.852914992487    -0.056178310533    -0.224924930162
    H           -0.326922334929     0.847693784345     1.336773544871
    H           -0.198166694589    -0.901248503772     1.451534578770
    C            2.220247052034     0.040015493608     0.460486323789
    H            0.745167719987     0.755489395614    -0.939005782449
    H            0.813855113876    -0.963991381742    -0.817840097396
    C            3.292347808336     0.664517945767    -0.426338954994
    H            2.129431389797     0.641192989226     1.361011863509
    H            2.531191119709    -0.946694987640     0.786803514085
    H            3.031368064723     1.684364313260    -0.687186352352
    H            3.415246001057     0.108771231816    -1.350336517510
    H            4.252497352665     0.685150195296     0.075866845016
    H           -3.246420576831     0.734889488337    -0.952371507105
    H           -1.769128477273     1.705346816790    -0.813424094946
    H           -2.776429207270     1.456519525507     0.590953642361

	Cleaning optimization helper files.


Properties will be evaluated at   0.000000,   0.000000,   0.000000 Bohr

Properties computed using the  density matrix

  Nuclear Dipole Moment: (a.u.)
     X:     8.0540      Y:     5.4379      Z:     0.0390

  Electronic Dipole Moment: (a.u.)
     X:    -7.5122      Y:    -4.3654      Z:     0.2243

  Dipole Moment: (a.u.)
     X:     0.5418      Y:     1.0725      Z:     0.2633     Total:     1.2301

  Dipole Moment: (Debye)
     X:     1.3772      Y:     2.7261      Z:     0.6693     Total:     3.1267

  Quadrupole Moment: (Debye Ang)
    XX:   -47.7312     YY:   -48.4908     ZZ:   -44.6321
    XY:    -6.7576     XZ:    -0.9985     YZ:    -0.8194

  Traceless Quadrupole Moment: (Debye Ang)
    XX:    -0.7799     YY:    -1.5394     ZZ:     2.3193
    XY:    -6.7576     XZ:    -0.9985     YZ:    -0.8194

  Mulliken Charges: (a.u.)
   Center  Symbol    Alpha    Beta     Spin     Total
       1     O     4.17717  4.17717  0.00000 -0.35433
       2     C     2.85858  2.85858  0.00000  0.28285
       3     C     3.09696  3.09696  0.00000 -0.19391
       4     C     3.15545  3.15545  0.00000 -0.31089
       5     C     3.10026  3.10026  0.00000 -0.20052
       6     H     0.44937  0.44937  0.00000  0.10127
       7     H     0.43921  0.43921  0.00000  0.12158
       8     C     3.08543  3.08543  0.00000 -0.17086
       9     H     0.45278  0.45278  0.00000  0.09444
      10     H     0.44078  0.44078  0.00000  0.11844
      11     C     3.14882  3.14882  0.00000 -0.29765
      12     H     0.45582  0.45582  0.00000  0.08836
      13     H     0.44812  0.44812  0.00000  0.10376
      14     H     0.45566  0.45566  0.00000  0.08867
      15     H     0.45285  0.45285  0.00000  0.09429
      16     H     0.44761  0.44761  0.00000  0.10478
      17     H     0.43598  0.43598  0.00000  0.12805
      18     H     0.45076  0.45076  0.00000  0.09848
      19     H     0.44840  0.44840  0.00000  0.10319

   Total alpha = 28.00000, Total beta = 28.00000, Total charge = -0.00000


*** PSI4 exiting successfully. Buy a developer a beer!
