    -----------------------------------------------------------------------
          Psi4: An Open-Source Ab Initio Electronic Structure Package
                              Psi4 (no tag) Driver

                          Git: Rev {detached?}  

    J. M. Turney, A. C. Simmonett, R. M. Parrish, E. G. Hohenstein,
    F. A. Evangelista, J. T. Fermann, B. J. Mintz, L. A. Burns, J. J. Wilke,
    M. L. Abrams, N. J. Russ, M. L. Leininger, C. L. Janssen, E. T. Seidl,
    W. D. Allen, H. F. Schaefer, R. A. King, E. F. Valeev, C. D. Sherrill,
    and T. D. Crawford, WIREs Comput. Mol. Sci. 2, 556-565 (2012)
    (doi: 10.1002/wcms.93)

                         Additional Contributions by
    A. E. DePrince, M. Saitow, U. Bozkaya, A. Yu. Sokolov
    -----------------------------------------------------------------------


    Psi4 started on: Fri Sep  9 21:33:43 2016

    Process ID:  45631
    PSI4DATADIR: /export131/home/mjharvey/miniconda3/share
    Memory level set to 256.000 MB

  ==> Input File <==

--------------------------------------------------------------------------
set {
	reference rhf
	basis cc-pvtz
}


set_num_threads( 4 )
memory 2 gb

molecule MOL {
0 1

H	 -1.835082	 1.385983	 0.000069
C	 -1.300516	 0.441153	 -0.000028
O	 -0.006604	 0.654344	 -0.000106
O	 -1.828920	 -0.612308	 0.000113
C	 0.544549	 1.384445	 1.092142
C	 2.033434	 1.498117	 0.866308
H	 0.318955	 0.861872	 2.010828
H	 0.072356	 2.355524	 1.136883
H	 2.492187	 0.518650	 0.819821
H	 2.484516	 2.050022	 1.682262
H	 2.244352	 2.019790	 -0.058538

	symmetry c1
}
set optking {
	frozen_dihedral = ("
		5 3 2 4
	")
}

ee = optimize('scf')
oeprop('DIPOLE', 'QUADRUPOLE', 'MULLIKEN_CHARGES')
f=open( 'psi4out.xyz', 'w' )
f.write( "11  " )
f.write( str(ee) + "\n" )
f.write( MOL.save_string_xyz() )
f.close()
--------------------------------------------------------------------------

  Memory set to   2.000 GiB by Python script.
gradient() will perform analytic gradient computation.

*** tstart() called on cx1-27-3-1
*** at Fri Sep  9 21:33:43 2016


         ---------------------------------------------------------
                                   SCF
            by Justin Turney, Rob Parrish, and Andy Simmonett
                              RHF Reference
                        4 Threads,   2000 MiB Core
         ---------------------------------------------------------

  ==> Geometry <==

    Molecular point group: c1
    Full point group: C1

    Geometry (in Angstrom), charge = 0, multiplicity = 1:

       Center              X                  Y                   Z               Mass       
    ------------   -----------------  -----------------  -----------------  -----------------
           H         -1.724232307555     0.713064619918    -0.393468556408     1.007825032070
           C         -1.189666307555    -0.231765380082    -0.393565556408    12.000000000000
           O          0.104245692445    -0.018574380082    -0.393643556408    15.994914619560
           O         -1.718070307555    -1.285226380082    -0.393424556408    15.994914619560
           C          0.655398692445     0.711526619918     0.698604443592    12.000000000000
           C          2.144283692445     0.825198619918     0.472770443592    12.000000000000
           H          0.429804692445     0.188953619918     1.617290443592     1.007825032070
           H          0.183205692445     1.682605619918     0.743345443592     1.007825032070
           H          2.603036692445    -0.154268380082     0.426283443592     1.007825032070
           H          2.595365692445     1.377103619918     1.288724443592     1.007825032070
           H          2.355201692445     1.346871619918    -0.452075556408     1.007825032070

  Running in c1 symmetry.

  Rotational constants: A =      0.80741  B =      0.08273  C =      0.08101 [cm^-1]
  Rotational constants: A =  24205.68412  B =   2480.23582  C =   2428.52905 [MHz]
  Nuclear repulsion =  176.994878163929769

  Charge       = 0
  Multiplicity = 1
  Electrons    = 40
  Nalpha       = 20
  Nbeta        = 20

  ==> Algorithm <==

  SCF Algorithm Type is DF.
  DIIS enabled.
  MOM disabled.
  Fractional occupation disabled.
  Guess Type is CORE.
  Energy threshold   = 1.00e-08
  Density threshold  = 1.00e-08
  Integral threshold = 0.00e+00

  ==> Primary Basis <==

  Basis Set: CC-PVTZ
    Number of shells: 86
    Number of basis function: 234
    Number of Cartesian functions: 265
    Spherical Harmonics?: true
    Max angular momentum: 3

  ==> Pre-Iterations <==

   -------------------------------------------------------
    Irrep   Nso     Nmo     Nalpha   Nbeta   Ndocc  Nsocc
   -------------------------------------------------------
     A        234     234       0       0       0       0
   -------------------------------------------------------
    Total     234     234      20      20      20       0
   -------------------------------------------------------

 OEINTS: Overlap, kinetic, potential, dipole, and quadrupole integrals
         stored in file 35.

  ==> Integral Setup <==

  ==> DFJK: Density-Fitted J/K Matrices <==

    J tasked:                  Yes
    K tasked:                  Yes
    wK tasked:                  No
    OpenMP threads:              4
    Integrals threads:           4
    Memory (MB):              1430
    Algorithm:                Core
    Integral Cache:           NONE
    Schwarz Cutoff:          1E-12
    Fitting Condition:       1E-12

   => Auxiliary Basis Set <=

  Basis Set: 
    Number of shells: 185
    Number of basis function: 575
    Number of Cartesian functions: 690
    Spherical Harmonics?: true
    Max angular momentum: 4

  Minimum eigenvalue in the overlap matrix is 9.9636284799E-04.
  Using Symmetric Orthogonalization.
  SCF Guess: Core (One-Electron) Hamiltonian.

  ==> Iterations <==

                           Total Energy        Delta E     RMS |[F,P]|

   @DF-RHF iter   1:  -193.52683351350302   -1.93527e+02   5.76478e-02 
   @DF-RHF iter   2:  -136.73143007220384    5.67954e+01   4.77995e-02 DIIS
   @DF-RHF iter   3:  -228.73150591439756   -9.20001e+01   2.32725e-02 DIIS
   @DF-RHF iter   4:  -196.39188905045685    3.23396e+01   3.46648e-02 DIIS
   @DF-RHF iter   5:  -266.06991942485672   -6.96780e+01   5.79180e-03 DIIS
   @DF-RHF iter   6:  -266.67953571849478   -6.09616e-01   3.55606e-03 DIIS
   @DF-RHF iter   7:  -266.90637841324951   -2.26843e-01   5.28790e-04 DIIS
   @DF-RHF iter   8:  -266.91263867204009   -6.26026e-03   2.76445e-04 DIIS
   @DF-RHF iter   9:  -266.91446109034416   -1.82242e-03   5.55303e-05 DIIS
   @DF-RHF iter  10:  -266.91462741622070   -1.66326e-04   2.04035e-05 DIIS
   @DF-RHF iter  11:  -266.91465123464059   -2.38184e-05   5.68952e-06 DIIS
   @DF-RHF iter  12:  -266.91465339594470   -2.16130e-06   1.94262e-06 DIIS
   @DF-RHF iter  13:  -266.91465364532303   -2.49378e-07   5.24672e-07 DIIS
   @DF-RHF iter  14:  -266.91465366406635   -1.87433e-08   1.47375e-07 DIIS
   @DF-RHF iter  15:  -266.91465366555235   -1.48600e-09   4.19395e-08 DIIS
   @DF-RHF iter  16:  -266.91465366565387   -1.01522e-10   1.07907e-08 DIIS
   @DF-RHF iter  17:  -266.91465366566354   -9.66338e-12   3.60060e-09 DIIS

  ==> Post-Iterations <==

    Orbital Energies (a.u.)
    -----------------------

    Doubly Occupied:                                                      

       1A    -20.592848     2A    -20.554337     3A    -11.372002  
       4A    -11.305863     5A    -11.231762     6A     -1.473789  
       7A     -1.382838     8A     -1.056724     9A     -0.892094  
      10A     -0.840983    11A     -0.744164    12A     -0.694051  
      13A     -0.662598    14A     -0.630019    15A     -0.567110  
      16A     -0.551994    17A     -0.538089    18A     -0.509182  
      19A     -0.468589    20A     -0.455345  

    Virtual:                                                              

      21A      0.132285    22A      0.155742    23A      0.162428  
      24A      0.188809    25A      0.200496    26A      0.216966  
      27A      0.231303    28A      0.268409    29A      0.316503  
      30A      0.320007    31A      0.355984    32A      0.392679  
      33A      0.393458    34A      0.439890    35A      0.461083  
      36A      0.490822    37A      0.540902    38A      0.546801  
      39A      0.579391    40A      0.590662    41A      0.608523  
      42A      0.624023    43A      0.632040    44A      0.650961  
      45A      0.657343    46A      0.669567    47A      0.703173  
      48A      0.714182    49A      0.759007    50A      0.775144  
      51A      0.798293    52A      0.834511    53A      0.849916  
      54A      0.873965    55A      0.919523    56A      0.934080  
      57A      0.973052    58A      0.993803    59A      1.023324  
      60A      1.060483    61A      1.079271    62A      1.131580  
      63A      1.147628    64A      1.154936    65A      1.194752  
      66A      1.218066    67A      1.249144    68A      1.252225  
      69A      1.266884    70A      1.284049    71A      1.311161  
      72A      1.321310    73A      1.345551    74A      1.370270  
      75A      1.378714    76A      1.427793    77A      1.432928  
      78A      1.473448    79A      1.494280    80A      1.519760  
      81A      1.538282    82A      1.554424    83A      1.582219  
      84A      1.646385    85A      1.682710    86A      1.689641  
      87A      1.773000    88A      1.823820    89A      1.858832  
      90A      1.921793    91A      1.959199    92A      2.012675  
      93A      2.167703    94A      2.213514    95A      2.295821  
      96A      2.302656    97A      2.323637    98A      2.400584  
      99A      2.426138   100A      2.474198   101A      2.487023  
     102A      2.508813   103A      2.566362   104A      2.645090  
     105A      2.670919   106A      2.685847   107A      2.734048  
     108A      2.777687   109A      2.812464   110A      2.858025  
     111A      2.884290   112A      2.921539   113A      2.953367  
     114A      3.011984   115A      3.076911   116A      3.090956  
     117A      3.102123   118A      3.135201   119A      3.163523  
     120A      3.185899   121A      3.209190   122A      3.250580  
     123A      3.258499   124A      3.295681   125A      3.307172  
     126A      3.313293   127A      3.340240   128A      3.372399  
     129A      3.391131   130A      3.424026   131A      3.439295  
     132A      3.441609   133A      3.489129   134A      3.511040  
     135A      3.526710   136A      3.567456   137A      3.587241  
     138A      3.619628   139A      3.655252   140A      3.707624  
     141A      3.723897   142A      3.740045   143A      3.752867  
     144A      3.756231   145A      3.813277   146A      3.837771  
     147A      3.853486   148A      3.866515   149A      3.895825  
     150A      3.917032   151A      3.942425   152A      3.990105  
     153A      4.066848   154A      4.100606   155A      4.122833  
     156A      4.132557   157A      4.140190   158A      4.169315  
     159A      4.199379   160A      4.206693   161A      4.254611  
     162A      4.290565   163A      4.343510   164A      4.385124  
     165A      4.387787   166A      4.400776   167A      4.426920  
     168A      4.434061   169A      4.465399   170A      4.508389  
     171A      4.568233   172A      4.596734   173A      4.611906  
     174A      4.658848   175A      4.683956   176A      4.743911  
     177A      4.775447   178A      4.853696   179A      4.889512  
     180A      4.928954   181A      5.031165   182A      5.051740  
     183A      5.079471   184A      5.169409   185A      5.178125  
     186A      5.195495   187A      5.223785   188A      5.260934  
     189A      5.311547   190A      5.342984   191A      5.358467  
     192A      5.428448   193A      5.562164   194A      5.576789  
     195A      5.616768   196A      5.631192   197A      5.672266  
     198A      5.691704   199A      5.708898   200A      5.715256  
     201A      5.755435   202A      5.833104   203A      5.850672  
     204A      5.858456   205A      5.923372   206A      5.970289  
     207A      6.168597   208A      6.221863   209A      6.269660  
     210A      6.272600   211A      6.282082   212A      6.420718  
     213A      6.485220   214A      6.652231   215A      6.743596  
     216A      6.792400   217A      6.839750   218A      6.897134  
     219A      6.918133   220A      6.969504   221A      7.245324  
     222A      7.284231   223A      7.352971   224A      7.399428  
     225A      7.557069   226A      7.623711   227A      7.813309  
     228A      7.870840   229A      7.977999   230A     10.544313  
     231A     12.228141   232A     13.417585   233A     14.276059  
     234A     14.344233  

    Final Occupation by Irrep:
              A 
    DOCC [    20 ]

  Energy converged.

  @DF-RHF Final Energy:  -266.91465366566354

   => Energetics <=

    Nuclear Repulsion Energy =            176.9948781639297692
    One-Electron Energy =                -714.7703011475443873
    Two-Electron Energy =                 270.8607693179509965
    DFT Exchange-Correlation Energy =       0.0000000000000000
    Empirical Dispersion Energy =           0.0000000000000000
    PCM Polarization Energy =               0.0000000000000000
    EFP Energy =                            0.0000000000000000
    Total Energy =                       -266.9146536656635931

    Alert: EFP and PCM quantities not currently incorporated into SCF psivars.

Properties will be evaluated at   0.000000,   0.000000,   0.000000 Bohr
  ==> Properties <==


Properties computed using the SCF density matrix

  Nuclear Dipole Moment: (a.u.)
     X:     6.0318      Y:     4.8258      Z:     3.0243

  Electronic Dipole Moment: (a.u.)
     X:    -5.3655      Y:    -3.4931      Z:    -2.4516

  Dipole Moment: (a.u.)
     X:     0.6663      Y:     1.3326      Z:     0.5727     Total:     1.5962

  Dipole Moment: (Debye)
     X:     1.6936      Y:     3.3872      Z:     1.4557     Total:     4.0571


  Saving occupied orbitals to File 180.

*** tstop() called on cx1-27-3-1 at Fri Sep  9 21:33:49 2016
Module time:
	user time   =      17.42 seconds =       0.29 minutes
	system time =       0.26 seconds =       0.00 minutes
	total time  =          6 seconds =       0.10 minutes
Total time:
	user time   =      17.42 seconds =       0.29 minutes
	system time =       0.26 seconds =       0.00 minutes
	total time  =          6 seconds =       0.10 minutes

*** tstart() called on cx1-27-3-1
*** at Fri Sep  9 21:33:49 2016


         ------------------------------------------------------------
                                   SCF GRAD                          
                          Rob Parrish, Justin Turney,                
                       Andy Simmonett, and Alex Sokolov              
         ------------------------------------------------------------

  ==> Geometry <==

    Molecular point group: c1
    Full point group: C1

    Geometry (in Angstrom), charge = 0, multiplicity = 1:

       Center              X                  Y                   Z               Mass       
    ------------   -----------------  -----------------  -----------------  -----------------
           H         -1.724232307555     0.713064619918    -0.393468556408     1.007825032070
           C         -1.189666307555    -0.231765380082    -0.393565556408    12.000000000000
           O          0.104245692445    -0.018574380082    -0.393643556408    15.994914619560
           O         -1.718070307555    -1.285226380082    -0.393424556408    15.994914619560
           C          0.655398692445     0.711526619918     0.698604443592    12.000000000000
           C          2.144283692445     0.825198619918     0.472770443592    12.000000000000
           H          0.429804692445     0.188953619918     1.617290443592     1.007825032070
           H          0.183205692445     1.682605619918     0.743345443592     1.007825032070
           H          2.603036692445    -0.154268380082     0.426283443592     1.007825032070
           H          2.595365692445     1.377103619918     1.288724443592     1.007825032070
           H          2.355201692445     1.346871619918    -0.452075556408     1.007825032070

  Nuclear repulsion =  176.994878163929769

  ==> Basis Set <==

  Basis Set: CC-PVTZ
    Number of shells: 86
    Number of basis function: 234
    Number of Cartesian functions: 265
    Spherical Harmonics?: true
    Max angular momentum: 3

  ==> DFJKGrad: Density-Fitted SCF Gradients <==

    Gradient:                    1
    J tasked:                  Yes
    K tasked:                  Yes
    wK tasked:                  No
    OpenMP threads:              4
    Integrals threads:           4
    Memory (MB):              1430
    Schwarz Cutoff:          0E+00
    Fitting Condition:       1E-12

   => Auxiliary Basis Set <=

  Basis Set: 
    Number of shells: 185
    Number of basis function: 575
    Number of Cartesian functions: 690
    Spherical Harmonics?: true
    Max angular momentum: 4


  -Total Gradient:
     Atom            X                  Y                   Z
    ------   -----------------  -----------------  -----------------
       1        0.010285952607    -0.000446813884    -0.000707561042
       2        0.018061783739     0.001607687175    -0.006463065214
       3       -0.021496235512     0.014179869247    -0.001940931762
       4       -0.009537953453    -0.011782745787     0.004973303186
       5        0.002592826624     0.000088238491     0.007302612535
       6       -0.000651013771    -0.001098522572    -0.001403567021
       7       -0.001153409039     0.001750789750    -0.001153976104
       8        0.000058174675    -0.004060819468    -0.000343376210
       9        0.001221958583    -0.000234958904    -0.000031142963
      10       -0.000148570539    -0.000163911796    -0.000119327813
      11        0.000766486083     0.000161187747    -0.000112967591


*** tstop() called on cx1-27-3-1 at Fri Sep  9 21:33:58 2016
Module time:
	user time   =      33.02 seconds =       0.55 minutes
	system time =       0.31 seconds =       0.01 minutes
	total time  =          9 seconds =       0.15 minutes
Total time:
	user time   =      50.46 seconds =       0.84 minutes
	system time =       0.57 seconds =       0.01 minutes
	total time  =         15 seconds =       0.25 minutes
CURRENT ENERGY: -266.9146536657

			-----------------------------------------
			 OPTKING 2.0: for geometry optimizations 
			  - R.A. King,  Bethel University        
			-----------------------------------------

	Internal coordinates to be generated automatically.
	Detected frag with atoms:  1 2 3 4 5 6 7 8 9 10 11
	---Fragment 1 Bond Connectivity---
	 1 : 2
	 2 : 1 3 4
	 3 : 2 5
	 4 : 2
	 5 : 3 6 7 8
	 6 : 5 9 10 11
	 7 : 5
	 8 : 5
	 9 : 6
	 10 : 6
	 11 : 6

	Assuming in current code that numbering for constraints corresponds to unified fragment.
	Frozen dihedral atom list: 
	     5     3     2     4
	---Fragment 1 Geometry and Gradient---
	 H          -3.2583268508        1.3474968467       -0.7435478135
	 C          -2.2481435108       -0.4379730954       -0.7437311169
	 O           0.1969958093       -0.0351004914       -0.7438785156
	 O          -3.2466823583       -2.4287258771       -0.7434646656
	 C           1.2385240366        1.3445904479        1.3201710736
	 C           4.0521089299        1.5593993969        0.8934066621
	 H           0.8122131593        0.3570705935        3.0562360157
	 H           0.3462085847        3.1796638113        1.4047193105
	 H           4.9190264626       -0.2915249893        0.8055589634
	 H           4.9045303734        2.6023486983        2.4353362591
	 H           4.4506861864        2.5452184978       -0.8542989930
	             0.0102859526       -0.0004468139       -0.0007075610
	             0.0180617837        0.0016076872       -0.0064630652
	            -0.0214962355        0.0141798692       -0.0019409318
	            -0.0095379535       -0.0117827458        0.0049733032
	             0.0025928266        0.0000882385        0.0073026125
	            -0.0006510138       -0.0010985226       -0.0014035670
	            -0.0011534090        0.0017507898       -0.0011539761
	             0.0000581747       -0.0040608195       -0.0003433762
	             0.0012219586       -0.0002349589       -0.0000311430
	            -0.0001485705       -0.0001639118       -0.0001193278
	             0.0007664861        0.0001611877       -0.0001129676

	Previous optimization step data not found.  Starting new optimization.

	---Fragment 1 Intrafragment Coordinates---
	 - Coordinate -           - BOHR/RAD -       - ANG/DEG -
	 R(1,2)           =         2.051432	       1.085571
	 R(2,3)           =         2.478107	       1.311358
	 R(2,4)           =         2.227145	       1.178555
	 R(3,5)           =         2.692328	       1.424719
	 R(5,6)           =         2.853862	       1.510199
	 R(5,7)           =         2.042268	       1.080722
	 R(5,8)           =         2.042271	       1.080723
	 R(6,9)           =         2.045772	       1.082576
	 R(6,10)          =         2.047416	       1.083446
	 R(6,11)          =         2.045771	       1.082575
	 B(1,2,3)         =         1.922376	     110.144058
	 B(1,2,4)         =         2.161797	     123.861862
	 B(2,3,5)         =         2.054396	     117.708234
	 B(3,2,4)         =         2.199012	     125.994079
	 B(3,5,6)         =         1.881071	     107.777408
	 B(3,5,7)         =         1.899855	     108.853658
	 B(3,5,8)         =         1.899881	     108.855140
	 B(5,6,9)         =         1.934888	     110.860916
	 B(5,6,10)        =         1.913661	     109.644724
	 B(5,6,11)        =         1.934890	     110.861048
	 B(6,5,7)         =         1.949065	     111.673199
	 B(6,5,8)         =         1.949068	     111.673343
	 B(7,5,8)         =         1.883977	     107.943946
	 B(9,6,10)        =         1.893141	     108.469000
	 B(9,6,11)        =         1.893086	     108.465841
	 B(10,6,11)       =         1.893148	     108.469414
	 D(1,2,3,5)       =         1.047019	      59.989768
	 D(2,3,5,6)       =        -3.141307	    -179.983661
	 D(2,3,5,7)       =         1.025043	      58.730653
	 D(2,3,5,8)       =        -1.024455	     -58.696939
	 D(3,5,6,9)       =        -1.051806	     -60.264047
	 D(3,5,6,10)      =         3.141593	     180.000000
	 D(3,5,6,11)      =         1.051807	      60.264093
	*D(4,2,3,5)       =        -2.094396	    -120.000032
	 D(7,5,6,9)       =         1.034057	      59.247080
	 D(7,5,6,10)      =        -1.055724	     -60.488551
	 D(7,5,6,11)      =         3.137670	     179.775220
	 D(8,5,6,9)       =        -3.137702	    -179.777079
	 D(8,5,6,10)      =         1.055702	      60.487290
	 D(8,5,6,11)      =        -1.034089	     -59.248939

	Current energy   :      -266.9146536657

	Generating empirical Hessian (Schlegel '84) for each fragment.
	Taking RFO optimization step.
	Going to follow RFO solution 1.
	Using RFO vector 1.
	Norm of target step-size    0.26520
	Projected energy change by RFO approximation:         0.0024331288

	Back-transformation to cartesian coordinates...
	Successfully converged to displaced geometry.

	Back-transformation to cartesian coordinates to adjust frozen coordinates...
	Successfully converged to displaced geometry.

	--- Internal Coordinate Step in ANG or DEG, aJ/ANG or AJ/DEG ---
	 ---------------------------------------------------------------------------
	   Coordinate                Previous        Force       Change         New 
	   ----------                --------       ------       ------       ------
	    1 R(1,2)          =      1.085571     0.044934     0.008099     1.093670
	    2 R(2,3)          =      1.311358     0.138681     0.013822     1.325180
	    3 R(2,4)          =      1.178555    -0.122008    -0.006716     1.171839
	    4 R(3,5)          =      1.424719    -0.019678    -0.003005     1.421714
	    5 R(5,6)          =      1.510199    -0.010882    -0.002209     1.507990
	    6 R(5,7)          =      1.080722     0.013073     0.002319     1.083040
	    7 R(5,8)          =      1.080723     0.030388     0.005390     1.086113
	    8 R(6,9)          =      1.082576    -0.006029    -0.001076     1.081500
	    9 R(6,10)         =      1.083446     0.001938     0.000347     1.083793
	   10 R(6,11)         =      1.082575    -0.002665    -0.000476     1.082100
	   11 B(1,2,3)        =    110.144058     0.001092     4.491290   114.635348
	   12 B(1,2,4)        =    123.861862    -0.000271    -1.802778   122.059084
	   13 B(2,3,5)        =    117.708234    -0.000283    -0.841633   116.866601
	   14 B(3,2,4)        =    125.994079    -0.000821    -2.811083   123.182996
	   15 B(3,5,6)        =    107.777408     0.000117     0.375409   108.152816
	   16 B(3,5,7)        =    108.853658    -0.000032    -0.124909   108.728750
	   17 B(3,5,8)        =    108.855140     0.000062     0.692194   109.547334
	   18 B(5,6,9)        =    110.860916    -0.000101    -0.511656   110.349260
	   19 B(5,6,10)       =    109.644724     0.000043     0.276595   109.921319
	   20 B(5,6,11)       =    110.861048    -0.000065    -0.336334   110.524714
	   21 B(6,5,7)        =    111.673199    -0.000092    -0.650511   111.022687
	   22 B(6,5,8)        =    111.673343    -0.000153    -0.780788   110.892554
	   23 B(7,5,8)        =    107.943946     0.000101     0.519847   108.463793
	   24 B(9,6,10)       =    108.469000     0.000039     0.246989   108.715989
	   25 B(9,6,11)       =    108.465841     0.000065     0.150079   108.615921
	   26 B(10,6,11)      =    108.469414     0.000024     0.195835   108.665249
	   27 D(1,2,3,5)      =     59.989768    -0.000024    -3.944936    56.044832
	   28 D(2,3,5,6)      =   -179.983661     0.000013     7.538467  -172.445194
	   29 D(2,3,5,7)      =     58.730653     0.000026     8.173832    66.904485
	   30 D(2,3,5,8)      =    -58.696939    -0.000006     7.226373   -51.470566
	   31 D(3,5,6,9)      =    -60.264047     0.000009     0.473892   -59.790155
	   32 D(3,5,6,10)     =    180.000000     0.000006     0.313360   180.313360
	   33 D(3,5,6,11)     =     60.264093     0.000003     0.104738    60.368831
	   34 *D(4,2,3,5)     =   -120.000032    -0.000000     0.000000  -120.000032
	   35 D(7,5,6,9)      =     59.247080     0.000005     0.172530    59.419610
	   36 D(7,5,6,10)     =    -60.488551     0.000002     0.011677   -60.476874
	   37 D(7,5,6,11)     =    179.775220    -0.000002    -0.196623   179.578597
	   38 D(8,5,6,9)      =   -179.777079    -0.000005    -0.148370  -179.925449
	   39 D(8,5,6,10)     =     60.487290    -0.000008    -0.309223    60.178066
	   40 D(8,5,6,11)     =    -59.248939    -0.000011    -0.517524   -59.766463
	 ---------------------------------------------------------------------------

  ==> Convergence Check <==

  Measures of convergence in internal coordinates in au.
  Criteria marked as inactive (o), active & met (*), and active & unmet ( ).
  --------------------------------------------------------------------------------------------- ~
   Step     Total Energy     Delta E     MAX Force     RMS Force      MAX Disp      RMS Disp    ~
  --------------------------------------------------------------------------------------------- ~
    Convergence Criteria    1.00e-06 *    3.00e-04 *             o    1.20e-03 *             o  ~
  --------------------------------------------------------------------------------------------- ~
      1    -266.91465367   -2.67e+02      1.68e-02      4.81e-03 o    1.43e-01      4.19e-02 o  ~
  ---------------------------------------------------------------------------------------------

	Writing optimization data to binary file.
	Structure for next step:
	Cartesian Geometry (in Angstrom)
	    H    -1.7331281965   0.7448189507  -0.4412197153
	    C    -1.1920560856  -0.2053492986  -0.4180869800
	    O     0.1269719124  -0.0887864380  -0.3663122925
	    O    -1.7471866827  -1.2362489388  -0.3703134414
	    C     0.6628378531   0.6753524435   0.7061660319
	    C     2.1440897994   0.8366187577   0.4739603863
	    H     0.4697714445   0.1535771136   1.6353872849
	    H     0.1694474353   1.6421265707   0.7455969596
	    H     2.6261598708  -0.1307121458   0.4349433962
	    H     2.5837924801   1.4120313219   1.2802908339
	    H     2.3278742777   1.3520618760  -0.4595713382
			--------------------------
			 OPTKING Finished Execution 
			--------------------------

    Structure for next step:
    Molecular point group: c1
    Full point group: C1

    Geometry (in Angstrom), charge = 0, multiplicity = 1:

    H           -1.732555417137     0.748870599219    -0.449089273453
    C           -1.191483347574    -0.201297577521    -0.425956539982
    O            0.127544549710    -0.084734725833    -0.374181856400
    O           -1.746613902328    -1.232197139049    -0.378183004973
    C            0.663410449473     0.679404097259     0.698296386148
    C            2.144662282659     0.840670399168     0.466090758272
    H            0.470344055634     0.157628807241     1.627517568170
    H            0.170020069402     1.646178150640     0.737727310788
    H            2.626732317269    -0.126660430445     0.427073771137
    H            2.584364929821     1.416082919431     1.272421144229
    H            2.328446746931     1.356113478079    -0.467440894990

gradient() will perform analytic gradient computation.

*** tstart() called on cx1-27-3-1
*** at Fri Sep  9 21:33:58 2016


         ---------------------------------------------------------
                                   SCF
            by Justin Turney, Rob Parrish, and Andy Simmonett
                              RHF Reference
                        4 Threads,   2000 MiB Core
         ---------------------------------------------------------

  ==> Geometry <==

    Molecular point group: c1
    Full point group: C1

    Geometry (in Angstrom), charge = 0, multiplicity = 1:

       Center              X                  Y                   Z               Mass       
    ------------   -----------------  -----------------  -----------------  -----------------
           H         -1.732555417137     0.748870599219    -0.449089273453     1.007825032070
           C         -1.191483347574    -0.201297577521    -0.425956539982    12.000000000000
           O          0.127544549710    -0.084734725833    -0.374181856400    15.994914619560
           O         -1.746613902328    -1.232197139049    -0.378183004973    15.994914619560
           C          0.663410449473     0.679404097259     0.698296386148    12.000000000000
           C          2.144662282659     0.840670399168     0.466090758272    12.000000000000
           H          0.470344055634     0.157628807241     1.627517568170     1.007825032070
           H          0.170020069402     1.646178150640     0.737727310788     1.007825032070
           H          2.626732317269    -0.126660430445     0.427073771137     1.007825032070
           H          2.584364929821     1.416082919431     1.272421144229     1.007825032070
           H          2.328446746931     1.356113478079    -0.467440894990     1.007825032070

  Running in c1 symmetry.

  Rotational constants: A =      0.82756  B =      0.08284  C =      0.08121 [cm^-1]
  Rotational constants: A =  24809.76699  B =   2483.37727  C =   2434.53380 [MHz]
  Nuclear repulsion =  177.090534414914345

  Charge       = 0
  Multiplicity = 1
  Electrons    = 40
  Nalpha       = 20
  Nbeta        = 20

  ==> Algorithm <==

  SCF Algorithm Type is DF.
  DIIS enabled.
  MOM disabled.
  Fractional occupation disabled.
  Guess Type is READ.
  Energy threshold   = 1.00e-08
  Density threshold  = 1.00e-08
  Integral threshold = 0.00e+00

  ==> Primary Basis <==

  Basis Set: CC-PVTZ
    Number of shells: 86
    Number of basis function: 234
    Number of Cartesian functions: 265
    Spherical Harmonics?: true
    Max angular momentum: 3

  ==> Pre-Iterations <==

   -------------------------------------------------------
    Irrep   Nso     Nmo     Nalpha   Nbeta   Ndocc  Nsocc
   -------------------------------------------------------
     A        234     234       0       0       0       0
   -------------------------------------------------------
    Total     234     234      20      20      20       0
   -------------------------------------------------------

 OEINTS: Overlap, kinetic, potential, dipole, and quadrupole integrals
         stored in file 35.

  ==> Integral Setup <==

  ==> DFJK: Density-Fitted J/K Matrices <==

    J tasked:                  Yes
    K tasked:                  Yes
    wK tasked:                  No
    OpenMP threads:              4
    Integrals threads:           4
    Memory (MB):              1430
    Algorithm:                Core
    Integral Cache:           NONE
    Schwarz Cutoff:          1E-12
    Fitting Condition:       1E-12

   => Auxiliary Basis Set <=

  Basis Set: 
    Number of shells: 185
    Number of basis function: 575
    Number of Cartesian functions: 690
    Spherical Harmonics?: true
    Max angular momentum: 4

  Minimum eigenvalue in the overlap matrix is 9.9571232913E-04.
  Using Symmetric Orthogonalization.
  SCF Guess: Reading in previously saved MOs, projecting if necessary.

  Using orbitals from previous SCF, no projection.
  Recomputing DOCC and SOCC from number of alpha and beta electrons from previous calculation.
              A 
    DOCC [    20 ]

  ==> Iterations <==

                           Total Energy        Delta E     RMS |[F,P]|

   @DF-RHF iter   0:  -266.89690170609697   -2.66897e+02   8.03275e-04 
   @DF-RHF iter   1:  -266.91497363405301   -1.80719e-02   1.18709e-04 
   @DF-RHF iter   2:  -266.91557212362022   -5.98490e-04   4.69570e-05 DIIS
   @DF-RHF iter   3:  -266.91567108249990   -9.89589e-05   2.33861e-05 DIIS
   @DF-RHF iter   4:  -266.91569716235904   -2.60799e-05   7.71832e-06 DIIS
   @DF-RHF iter   5:  -266.91570174830269   -4.58594e-06   3.72872e-06 DIIS
   @DF-RHF iter   6:  -266.91570345705418   -1.70875e-06   1.60973e-06 DIIS
   @DF-RHF iter   7:  -266.91570370249394   -2.45440e-07   7.27099e-07 DIIS
   @DF-RHF iter   8:  -266.91570375040953   -4.79156e-08   2.48046e-07 DIIS
   @DF-RHF iter   9:  -266.91570375783306   -7.42352e-09   7.95197e-08 DIIS
   @DF-RHF iter  10:  -266.91570375857759   -7.44535e-10   2.35991e-08 DIIS
   @DF-RHF iter  11:  -266.91570375863171   -5.41149e-11   7.17530e-09 DIIS

  ==> Post-Iterations <==

    Orbital Energies (a.u.)
    -----------------------

    Doubly Occupied:                                                      

       1A    -20.592554     2A    -20.553841     3A    -11.372468  
       4A    -11.303399     5A    -11.229662     6A     -1.473096  
       7A     -1.382643     8A     -1.053599     9A     -0.887292  
      10A     -0.838992    11A     -0.744080    12A     -0.693600  
      13A     -0.659080    14A     -0.631274    15A     -0.567753  
      16A     -0.548384    17A     -0.538233    18A     -0.509708  
      19A     -0.467632    20A     -0.455494  

    Virtual:                                                              

      21A      0.133036    22A      0.156180    23A      0.163415  
      24A      0.187816    25A      0.200849    26A      0.215262  
      27A      0.232081    28A      0.270126    29A      0.313273  
      30A      0.320909    31A      0.355497    32A      0.393749  
      33A      0.398574    34A      0.441641    35A      0.464516  
      36A      0.486635    37A      0.538415    38A      0.544640  
      39A      0.575558    40A      0.592010    41A      0.607633  
      42A      0.630317    43A      0.632500    44A      0.652674  
      45A      0.659730    46A      0.666731    47A      0.699559  
      48A      0.718856    49A      0.756426    50A      0.769945  
      51A      0.805485    52A      0.839035    53A      0.850793  
      54A      0.875203    55A      0.919995    56A      0.927493  
      57A      0.969637    58A      1.008896    59A      1.016301  
      60A      1.054287    61A      1.082433    62A      1.130487  
      63A      1.147524    64A      1.159437    65A      1.198020  
      66A      1.206591    67A      1.246415    68A      1.255502  
      69A      1.266556    70A      1.289218    71A      1.315483  
      72A      1.319251    73A      1.344680    74A      1.372781  
      75A      1.383447    76A      1.428565    77A      1.431678  
      78A      1.468963    79A      1.485822    80A      1.520685  
      81A      1.531622    82A      1.551277    83A      1.580659  
      84A      1.643872    85A      1.684711    86A      1.688607  
      87A      1.772267    88A      1.820593    89A      1.853734  
      90A      1.932442    91A      1.959727    92A      2.026085  
      93A      2.170706    94A      2.208921    95A      2.291297  
      96A      2.308778    97A      2.326332    98A      2.385217  
      99A      2.415316   100A      2.472112   101A      2.482476  
     102A      2.511282   103A      2.570845   104A      2.645849  
     105A      2.689023   106A      2.696916   107A      2.733157  
     108A      2.780021   109A      2.810246   110A      2.858269  
     111A      2.885553   112A      2.921670   113A      2.956435  
     114A      3.016883   115A      3.076889   116A      3.091371  
     117A      3.102418   118A      3.137422   119A      3.167764  
     120A      3.200714   121A      3.207943   122A      3.244597  
     123A      3.267793   124A      3.295193   125A      3.307703  
     126A      3.323799   127A      3.336970   128A      3.369603  
     129A      3.396226   130A      3.424800   131A      3.436329  
     132A      3.438103   133A      3.499619   134A      3.518056  
     135A      3.524159   136A      3.560096   137A      3.572556  
     138A      3.616096   139A      3.657379   140A      3.695631  
     141A      3.715189   142A      3.722439   143A      3.751415  
     144A      3.753706   145A      3.796710   146A      3.834225  
     147A      3.852722   148A      3.867985   149A      3.879416  
     150A      3.912383   151A      3.962804   152A      3.993831  
     153A      4.068502   154A      4.108458   155A      4.122982  
     156A      4.128410   157A      4.139911   158A      4.169418  
     159A      4.197609   160A      4.217388   161A      4.251960  
     162A      4.289216   163A      4.345280   164A      4.377463  
     165A      4.382266   166A      4.396622   167A      4.423524  
     168A      4.433052   169A      4.461272   170A      4.511054  
     171A      4.571453   172A      4.598381   173A      4.616930  
     174A      4.656797   175A      4.689111   176A      4.742899  
     177A      4.771494   178A      4.847197   179A      4.888238  
     180A      4.925108   181A      5.017100   182A      5.036673  
     183A      5.065473   184A      5.169911   185A      5.182564  
     186A      5.198981   187A      5.215153   188A      5.246160  
     189A      5.307679   190A      5.319915   191A      5.353566  
     192A      5.410114   193A      5.560396   194A      5.581847  
     195A      5.614278   196A      5.631506   197A      5.673146  
     198A      5.691427   199A      5.706368   200A      5.711154  
     201A      5.743262   202A      5.814922   203A      5.840076  
     204A      5.860556   205A      5.941823   206A      5.957950  
     207A      6.198363   208A      6.214162   209A      6.267171  
     210A      6.273543   211A      6.277559   212A      6.394846  
     213A      6.501200   214A      6.644676   215A      6.730598  
     216A      6.766585   217A      6.837709   218A      6.897628  
     219A      6.926234   220A      6.956909   221A      7.240259  
     222A      7.284869   223A      7.353340   224A      7.401210  
     225A      7.561111   226A      7.626096   227A      7.783566  
     228A      7.875499   229A      7.945873   230A     10.519396  
     231A     12.153148   232A     13.401689   233A     14.291249  
     234A     14.321178  

    Final Occupation by Irrep:
              A 
    DOCC [    20 ]

  Energy converged.

  @DF-RHF Final Energy:  -266.91570375863171

   => Energetics <=

    Nuclear Repulsion Energy =            177.0905344149143446
    One-Electron Energy =                -715.0069049147668920
    Two-Electron Energy =                 271.0006667412208117
    DFT Exchange-Correlation Energy =       0.0000000000000000
    Empirical Dispersion Energy =           0.0000000000000000
    PCM Polarization Energy =               0.0000000000000000
    EFP Energy =                            0.0000000000000000
    Total Energy =                       -266.9157037586317074

    Alert: EFP and PCM quantities not currently incorporated into SCF psivars.

Properties will be evaluated at   0.000000,   0.000000,   0.000000 Bohr
  ==> Properties <==


Properties computed using the SCF density matrix

  Nuclear Dipole Moment: (a.u.)
     X:     6.0364      Y:     4.8668      Z:     2.9477

  Electronic Dipole Moment: (a.u.)
     X:    -5.4147      Y:    -3.5316      Z:    -2.4474

  Dipole Moment: (a.u.)
     X:     0.6217      Y:     1.3352      Z:     0.5004     Total:     1.5555

  Dipole Moment: (Debye)
     X:     1.5802      Y:     3.3937      Z:     1.2718     Total:     3.9537


  Saving occupied orbitals to File 180.

*** tstop() called on cx1-27-3-1 at Fri Sep  9 21:34:04 2016
Module time:
	user time   =      15.74 seconds =       0.26 minutes
	system time =       0.17 seconds =       0.00 minutes
	total time  =          6 seconds =       0.10 minutes
Total time:
	user time   =      67.60 seconds =       1.13 minutes
	system time =       0.80 seconds =       0.01 minutes
	total time  =         21 seconds =       0.35 minutes

*** tstart() called on cx1-27-3-1
*** at Fri Sep  9 21:34:04 2016


         ------------------------------------------------------------
                                   SCF GRAD                          
                          Rob Parrish, Justin Turney,                
                       Andy Simmonett, and Alex Sokolov              
         ------------------------------------------------------------

  ==> Geometry <==

    Molecular point group: c1
    Full point group: C1

    Geometry (in Angstrom), charge = 0, multiplicity = 1:

       Center              X                  Y                   Z               Mass       
    ------------   -----------------  -----------------  -----------------  -----------------
           H         -1.732555417137     0.748870599219    -0.449089273453     1.007825032070
           C         -1.191483347574    -0.201297577521    -0.425956539982    12.000000000000
           O          0.127544549710    -0.084734725833    -0.374181856400    15.994914619560
           O         -1.746613902328    -1.232197139049    -0.378183004973    15.994914619560
           C          0.663410449473     0.679404097259     0.698296386148    12.000000000000
           C          2.144662282659     0.840670399168     0.466090758272    12.000000000000
           H          0.470344055634     0.157628807241     1.627517568170     1.007825032070
           H          0.170020069402     1.646178150640     0.737727310788     1.007825032070
           H          2.626732317269    -0.126660430445     0.427073771137     1.007825032070
           H          2.584364929821     1.416082919431     1.272421144229     1.007825032070
           H          2.328446746931     1.356113478079    -0.467440894990     1.007825032070

  Nuclear repulsion =  177.090534414914316

  ==> Basis Set <==

  Basis Set: CC-PVTZ
    Number of shells: 86
    Number of basis function: 234
    Number of Cartesian functions: 265
    Spherical Harmonics?: true
    Max angular momentum: 3

  ==> DFJKGrad: Density-Fitted SCF Gradients <==

    Gradient:                    1
    J tasked:                  Yes
    K tasked:                  Yes
    wK tasked:                  No
    OpenMP threads:              4
    Integrals threads:           4
    Memory (MB):              1430
    Schwarz Cutoff:          0E+00
    Fitting Condition:       1E-12

   => Auxiliary Basis Set <=

  Basis Set: 
    Number of shells: 185
    Number of basis function: 575
    Number of Cartesian functions: 690
    Spherical Harmonics?: true
    Max angular momentum: 4


  -Total Gradient:
     Atom            X                  Y                   Z
    ------   -----------------  -----------------  -----------------
       1       -0.003142144791     0.000443768600     0.003114635865
       2        0.004831745229     0.000484177321    -0.016819325698
       3       -0.005060700988     0.001021683216     0.000251201841
       4        0.002097922579     0.000772683645     0.009035698095
       5        0.001986722860    -0.002661948135     0.004456976220
       6       -0.000806613584    -0.000543471875    -0.000071102006
       7        0.000436195589     0.000112227056    -0.000005436177
       8        0.000141744150     0.000085944235    -0.000235011981
       9       -0.000324289598     0.000098675234     0.000088424587
      10        0.000071367895     0.000217496104     0.000092599613
      11       -0.000231949342    -0.000031235404     0.000091339641


*** tstop() called on cx1-27-3-1 at Fri Sep  9 21:34:13 2016
Module time:
	user time   =      33.35 seconds =       0.56 minutes
	system time =       0.33 seconds =       0.01 minutes
	total time  =          9 seconds =       0.15 minutes
Total time:
	user time   =     100.97 seconds =       1.68 minutes
	system time =       1.13 seconds =       0.02 minutes
	total time  =         30 seconds =       0.50 minutes
CURRENT ENERGY: -266.9157037586

			-----------------------------------------
			 OPTKING 2.0: for geometry optimizations 
			  - R.A. King,  Bethel University        
			-----------------------------------------

	Previous internal coordinate definitions found.
	---Fragment 1 Geometry and Gradient---
	 H          -3.2740552484        1.4151603415       -0.8486557360
	 C          -2.2515772188       -0.3803972927       -0.8049412051
	 O           0.2410242687       -0.1601254258       -0.7071012325
	 O          -3.3006219353       -2.3285151345       -0.7146623075
	 C           1.2536640632        1.2838876774        1.3195889294
	 C           4.0528243618        1.5886368225        0.8807838862
	 H           0.8888214534        0.2978752763        3.0755624803
	 H           0.3212913683        3.1108258706        1.3941025781
	 H           4.9638047040       -0.2393535254        0.8070524660
	 H           4.8837419448        2.6760088992        2.4045274883
	 H           4.4001266667        2.5626830787       -0.8833352748
	            -0.0031421448        0.0004437686        0.0031146359
	             0.0048317452        0.0004841773       -0.0168193257
	            -0.0050607010        0.0010216832        0.0002512018
	             0.0020979226        0.0007726836        0.0090356981
	             0.0019867229       -0.0026619481        0.0044569762
	            -0.0008066136       -0.0005434719       -0.0000711020
	             0.0004361956        0.0001122271       -0.0000054362
	             0.0001417442        0.0000859442       -0.0002350120
	            -0.0003242896        0.0000986752        0.0000884246
	             0.0000713679        0.0002174961        0.0000925996
	            -0.0002319493       -0.0000312354        0.0000913396

	---Fragment 1 Intrafragment Coordinates---
	 - Coordinate -           - BOHR/RAD -       - ANG/DEG -
	 R(1,2)           =         2.066736	       1.093670
	 R(2,3)           =         2.504227	       1.325180
	 R(2,4)           =         2.214454	       1.171839
	 R(3,5)           =         2.686650	       1.421714
	 R(5,6)           =         2.849688	       1.507990
	 R(5,7)           =         2.046649	       1.083040
	 R(5,8)           =         2.052456	       1.086113
	 R(6,9)           =         2.043739	       1.081500
	 R(6,10)          =         2.048071	       1.083793
	 R(6,11)          =         2.044872	       1.082100
	 B(1,2,3)         =         2.000764	     114.635348
	 B(1,2,4)         =         2.130333	     122.059084
	 B(2,3,5)         =         2.039707	     116.866601
	 B(3,2,4)         =         2.149949	     123.182996
	 B(3,5,6)         =         1.887623	     108.152816
	 B(3,5,7)         =         1.897675	     108.728750
	 B(3,5,8)         =         1.911962	     109.547334
	 B(5,6,9)         =         1.925958	     110.349260
	 B(5,6,10)        =         1.918489	     109.921319
	 B(5,6,11)        =         1.929020	     110.524714
	 B(6,5,7)         =         1.937711	     111.022687
	 B(6,5,8)         =         1.935440	     110.892554
	 B(7,5,8)         =         1.893050	     108.463793
	 B(9,6,10)        =         1.897452	     108.715989
	 B(9,6,11)        =         1.895705	     108.615921
	 B(10,6,11)       =         1.896566	     108.665249
	 D(1,2,3,5)       =         0.978167	      56.044832
	 D(2,3,5,6)       =        -3.009736	    -172.445194
	 D(2,3,5,7)       =         1.167704	      66.904485
	 D(2,3,5,8)       =        -0.898331	     -51.470566
	 D(3,5,6,9)       =        -1.043535	     -59.790155
	 D(3,5,6,10)      =        -3.136123	    -179.686640
	 D(3,5,6,11)      =         1.053635	      60.368831
	*D(4,2,3,5)       =        -2.094396	    -120.000032
	 D(7,5,6,9)       =         1.037068	      59.419610
	 D(7,5,6,10)      =        -1.055521	     -60.476874
	 D(7,5,6,11)      =         3.134238	     179.578597
	 D(8,5,6,9)       =        -3.140292	    -179.925449
	 D(8,5,6,10)      =         1.050305	      60.178066
	 D(8,5,6,11)      =        -1.043122	     -59.766463

	Current energy   :      -266.9157037586

	Energy change for the previous step:
		Projected    :         0.0024331288
		Actual       :        -0.0010500930

	Performing BFGS update.
	Previous computed or guess Hessian on step 1.
	Steps to be used in Hessian update: 1
	Taking RFO optimization step.
	Going to follow RFO solution 1.
	Using RFO vector 1.
	Norm of target step-size    0.26852
	Projected energy change by RFO approximation:        -0.0040219633

	Back-transformation to cartesian coordinates...
	Successfully converged to displaced geometry.

	Back-transformation to cartesian coordinates to adjust frozen coordinates...
	Successfully converged to displaced geometry.

	--- Internal Coordinate Step in ANG or DEG, aJ/ANG or AJ/DEG ---
	 ---------------------------------------------------------------------------
	   Coordinate                Previous        Force       Change         New 
	   ----------                --------       ------       ------       ------
	    1 R(1,2)          =      1.093670    -0.015441     0.000983     1.094653
	    2 R(2,3)          =      1.325180     0.030789     0.007643     1.332823
	    3 R(2,4)          =      1.171839     0.010753    -0.002125     1.169714
	    4 R(3,5)          =      1.421714    -0.019355    -0.003410     1.418304
	    5 R(5,6)          =      1.507990     0.010935     0.000849     1.508839
	    6 R(5,7)          =      1.083040     0.001125     0.001043     1.084083
	    7 R(5,8)          =      1.086113    -0.000030     0.002065     1.088178
	    8 R(6,9)          =      1.081500     0.001944    -0.000148     1.081352
	    9 R(6,10)         =      1.083793    -0.001757    -0.000107     1.083686
	   10 R(6,11)         =      1.082100     0.001096    -0.000033     1.082067
	   11 B(1,2,3)        =    114.635348    -0.000363     0.427110   115.062458
	   12 B(1,2,4)        =    122.059084     0.000015    -0.657424   121.401660
	   13 B(2,3,5)        =    116.866601    -0.000113    -0.580449   116.286151
	   14 B(3,2,4)        =    123.182996     0.000377    -0.285371   122.897625
	   15 B(3,5,6)        =    108.152816     0.000049     0.294297   108.447113
	   16 B(3,5,7)        =    108.728750    -0.000043    -0.235313   108.493436
	   17 B(3,5,8)        =    109.547334    -0.000010     0.292739   109.840072
	   18 B(5,6,9)        =    110.349260     0.000024    -0.115583   110.233677
	   19 B(5,6,10)       =    109.921319    -0.000009     0.066775   109.988094
	   20 B(5,6,11)       =    110.524714     0.000020    -0.048261   110.476453
	   21 B(6,5,7)        =    111.022687     0.000021    -0.156523   110.866164
	   22 B(6,5,8)        =    110.892554    -0.000006    -0.269382   110.623172
	   23 B(7,5,8)        =    108.463793    -0.000013     0.078320   108.542113
	   24 B(9,6,10)       =    108.715989    -0.000011     0.036876   108.752865
	   25 B(9,6,11)       =    108.615921    -0.000020    -0.000638   108.615283
	   26 B(10,6,11)      =    108.665249    -0.000005     0.063850   108.729099
	   27 D(1,2,3,5)      =     56.044832     0.000106    13.008678    69.053510
	   28 D(2,3,5,6)      =   -172.445194     0.000002     4.503446  -167.941748
	   29 D(2,3,5,7)      =     66.904485    -0.000004     4.656739    71.561224
	   30 D(2,3,5,8)      =    -51.470566     0.000006     4.531924   -46.938642
	   31 D(3,5,6,9)      =    -59.790155     0.000002     0.498226   -59.291929
	   32 D(3,5,6,10)     =   -179.686640     0.000003     0.483095  -179.203544
	   33 D(3,5,6,11)     =     60.368831     0.000003     0.391608    60.760439
	   34 *D(4,2,3,5)     =   -120.000032     0.000000     0.000000  -120.000032
	   35 D(7,5,6,9)      =     59.419610    -0.000000     0.300873    59.720483
	   36 D(7,5,6,10)     =    -60.476874     0.000001     0.285742   -60.191132
	   37 D(7,5,6,11)     =    179.578597     0.000000     0.194255   179.772851
	   38 D(8,5,6,9)      =   -179.925449    -0.000002     0.115333  -179.810117
	   39 D(8,5,6,10)     =     60.178066    -0.000001     0.100202    60.278268
	   40 D(8,5,6,11)     =    -59.766463    -0.000001     0.008715   -59.757748
	 ---------------------------------------------------------------------------

  ==> Convergence Check <==

  Measures of convergence in internal coordinates in au.
  Criteria marked as inactive (o), active & met (*), and active & unmet ( ).
  ---------------------------------------------------------------------------------------------
   Step     Total Energy     Delta E     MAX Force     RMS Force      MAX Disp      RMS Disp   
  ---------------------------------------------------------------------------------------------
    Convergence Criteria    1.00e-06 *    3.00e-04 *             o    1.20e-03 *             o
  ---------------------------------------------------------------------------------------------
      2    -266.91570376   -1.05e-03      6.07e-03      1.69e-03 o    2.27e-01      4.23e-02 o  ~
  ---------------------------------------------------------------------------------------------

	Writing optimization data to binary file.
	Structure for next step:
	Cartesian Geometry (in Angstrom)
	    H    -1.7041355297   0.7551497359  -0.6552309843
	    C    -1.2048203010  -0.1814595648  -0.3874382495
	    O     0.1252605261  -0.1163997393  -0.3320283178
	    O    -1.7949567721  -1.1891574958  -0.3202462575
	    C     0.6730142865   0.6492472466   0.7287909517
	    C     2.1436532923   0.8535373792   0.4603133471
	    H     0.5212130330   0.1093954178   1.6565581505
	    H     0.1593451831   1.6061160699   0.7971843854
	    H     2.6471455237  -0.1008795923   0.3902652978
	    H     2.5911504408   1.4252903880   1.2648128586
	    H     2.2880035432   1.3892191301  -0.4687055737
			--------------------------
			 OPTKING Finished Execution 
			--------------------------

    Structure for next step:
    Molecular point group: c1
    Full point group: C1

    Geometry (in Angstrom), charge = 0, multiplicity = 1:

    H           -1.693183068769     0.752468813339    -0.684880484787
    C           -1.193867878291    -0.184140415819    -0.417087770467
    O            0.136212847326    -0.119080595301    -0.361677842937
    O           -1.784004304288    -1.191838269903    -0.349895783560
    C            0.683966565883     0.646566332061     0.699141345514
    C            2.154605459317     0.850856449072     0.430663761446
    H            0.532165323964     0.106714544494     1.626908473508
    H            0.170297501661     1.603435082296     0.767534773994
    H            2.658097652353    -0.103560449460     0.360615717468
    H            2.602102573719     1.422609414257     1.235163211455
    H            2.298955699243     1.386538159124    -0.498355088410

gradient() will perform analytic gradient computation.

*** tstart() called on cx1-27-3-1
*** at Fri Sep  9 21:34:13 2016


         ---------------------------------------------------------
                                   SCF
            by Justin Turney, Rob Parrish, and Andy Simmonett
                              RHF Reference
                        4 Threads,   2000 MiB Core
         ---------------------------------------------------------

  ==> Geometry <==

    Molecular point group: c1
    Full point group: C1

    Geometry (in Angstrom), charge = 0, multiplicity = 1:

       Center              X                  Y                   Z               Mass       
    ------------   -----------------  -----------------  -----------------  -----------------
           H         -1.693183068769     0.752468813339    -0.684880484787     1.007825032070
           C         -1.193867878291    -0.184140415819    -0.417087770467    12.000000000000
           O          0.136212847326    -0.119080595301    -0.361677842937    15.994914619560
           O         -1.784004304288    -1.191838269903    -0.349895783560    15.994914619560
           C          0.683966565883     0.646566332061     0.699141345514    12.000000000000
           C          2.154605459317     0.850856449072     0.430663761446    12.000000000000
           H          0.532165323964     0.106714544494     1.626908473508     1.007825032070
           H          0.170297501661     1.603435082296     0.767534773994     1.007825032070
           H          2.658097652353    -0.103560449460     0.360615717468     1.007825032070
           H          2.602102573719     1.422609414257     1.235163211455     1.007825032070
           H          2.298955699243     1.386538159124    -0.498355088410     1.007825032070

  Running in c1 symmetry.

  Rotational constants: A =      0.84290  B =      0.08239  C =      0.08113 [cm^-1]
  Rotational constants: A =  25269.43880  B =   2469.92008  C =   2432.06690 [MHz]
  Nuclear repulsion =  176.968932141636969

  Charge       = 0
  Multiplicity = 1
  Electrons    = 40
  Nalpha       = 20
  Nbeta        = 20

  ==> Algorithm <==

  SCF Algorithm Type is DF.
  DIIS enabled.
  MOM disabled.
  Fractional occupation disabled.
  Guess Type is READ.
  Energy threshold   = 1.00e-08
  Density threshold  = 1.00e-08
  Integral threshold = 0.00e+00

  ==> Primary Basis <==

  Basis Set: CC-PVTZ
    Number of shells: 86
    Number of basis function: 234
    Number of Cartesian functions: 265
    Spherical Harmonics?: true
    Max angular momentum: 3

  ==> Pre-Iterations <==

   -------------------------------------------------------
    Irrep   Nso     Nmo     Nalpha   Nbeta   Ndocc  Nsocc
   -------------------------------------------------------
     A        234     234       0       0       0       0
   -------------------------------------------------------
    Total     234     234      20      20      20       0
   -------------------------------------------------------

 OEINTS: Overlap, kinetic, potential, dipole, and quadrupole integrals
         stored in file 35.

  ==> Integral Setup <==

  ==> DFJK: Density-Fitted J/K Matrices <==

    J tasked:                  Yes
    K tasked:                  Yes
    wK tasked:                  No
    OpenMP threads:              4
    Integrals threads:           4
    Memory (MB):              1430
    Algorithm:                Core
    Integral Cache:           NONE
    Schwarz Cutoff:          1E-12
    Fitting Condition:       1E-12

   => Auxiliary Basis Set <=

  Basis Set: 
    Number of shells: 185
    Number of basis function: 575
    Number of Cartesian functions: 690
    Spherical Harmonics?: true
    Max angular momentum: 4

  Minimum eigenvalue in the overlap matrix is 1.0042636084E-03.
  Using Symmetric Orthogonalization.
  SCF Guess: Reading in previously saved MOs, projecting if necessary.

  Using orbitals from previous SCF, no projection.
  Recomputing DOCC and SOCC from number of alpha and beta electrons from previous calculation.
              A 
    DOCC [    20 ]

  ==> Iterations <==

                           Total Energy        Delta E     RMS |[F,P]|

   @DF-RHF iter   0:  -266.89407944350177   -2.66894e+02   6.08367e-04 
   @DF-RHF iter   1:  -266.91327160728133   -1.91922e-02   1.17237e-04 
   @DF-RHF iter   2:  -266.91403186183146   -7.60255e-04   5.27665e-05 DIIS
   @DF-RHF iter   3:  -266.91422632963952   -1.94468e-04   3.35666e-05 DIIS
   @DF-RHF iter   4:  -266.91429726669071   -7.09371e-05   1.28612e-05 DIIS
   @DF-RHF iter   5:  -266.91431763895986   -2.03723e-05   5.93536e-06 DIIS
   @DF-RHF iter   6:  -266.91432268621276   -5.04725e-06   1.66884e-06 DIIS
   @DF-RHF iter   7:  -266.91432303579779   -3.49585e-07   6.26110e-07 DIIS
   @DF-RHF iter   8:  -266.91432307326579   -3.74680e-08   2.56587e-07 DIIS
   @DF-RHF iter   9:  -266.91432307871293   -5.44713e-09   8.52838e-08 DIIS
   @DF-RHF iter  10:  -266.91432307926084   -5.47914e-10   2.88352e-08 DIIS
   @DF-RHF iter  11:  -266.91432307931257   -5.17275e-11   8.46917e-09 DIIS

  ==> Post-Iterations <==

    Orbital Energies (a.u.)
    -----------------------

    Doubly Occupied:                                                      

       1A    -20.592027     2A    -20.555907     3A    -11.372533  
       4A    -11.302055     5A    -11.228772     6A     -1.472541  
       7A     -1.383828     8A     -1.051699     9A     -0.887052  
      10A     -0.835714    11A     -0.744552    12A     -0.693522  
      13A     -0.653720    14A     -0.637798    15A     -0.567962  
      16A     -0.544865    17A     -0.538790    18A     -0.508495  
      19A     -0.468240    20A     -0.456108  

    Virtual:                                                              

      21A      0.132666    22A      0.154058    23A      0.163050  
      24A      0.188070    25A      0.201017    26A      0.216944  
      27A      0.231923    28A      0.269551    29A      0.311934  
      30A      0.318967    31A      0.357060    32A      0.387892  
      33A      0.399186    34A      0.443922    35A      0.467826  
      36A      0.488401    37A      0.535860    38A      0.552460  
      39A      0.580585    40A      0.586680    41A      0.606836  
      42A      0.627682    43A      0.638217    44A      0.650300  
      45A      0.662347    46A      0.667263    47A      0.686976  
      48A      0.720210    49A      0.756887    50A      0.774847  
      51A      0.810458    52A      0.839815    53A      0.853045  
      54A      0.869063    55A      0.921356    56A      0.937367  
      57A      0.971319    58A      1.008797    59A      1.017143  
      60A      1.056378    61A      1.083881    62A      1.121656  
      63A      1.148585    64A      1.151001    65A      1.206078  
      66A      1.219617    67A      1.244812    68A      1.252341  
      69A      1.275529    70A      1.294344    71A      1.309397  
      72A      1.315391    73A      1.344404    74A      1.374860  
      75A      1.385608    76A      1.421958    77A      1.434132  
      78A      1.466461    79A      1.486424    80A      1.512177  
      81A      1.527708    82A      1.551025    83A      1.580274  
      84A      1.638484    85A      1.680500    86A      1.685706  
      87A      1.770954    88A      1.815775    89A      1.858681  
      90A      1.927203    91A      1.960371    92A      2.028812  
      93A      2.180378    94A      2.202934    95A      2.288679  
      96A      2.307203    97A      2.334308    98A      2.375195  
      99A      2.419469   100A      2.469049   101A      2.477045  
     102A      2.528735   103A      2.570597   104A      2.651413  
     105A      2.692402   106A      2.706753   107A      2.719849  
     108A      2.779366   109A      2.826162   110A      2.861666  
     111A      2.883659   112A      2.912717   113A      2.965376  
     114A      3.037472   115A      3.075158   116A      3.084911  
     117A      3.104364   118A      3.131704   119A      3.174762  
     120A      3.191046   121A      3.207931   122A      3.242842  
     123A      3.260235   124A      3.294607   125A      3.303987  
     126A      3.312711   127A      3.332718   128A      3.382639  
     129A      3.398938   130A      3.419563   131A      3.436953  
     132A      3.464645   133A      3.491997   134A      3.506736  
     135A      3.530408   136A      3.560962   137A      3.575933  
     138A      3.616004   139A      3.661450   140A      3.697551  
     141A      3.706030   142A      3.727237   143A      3.752770  
     144A      3.754329   145A      3.785214   146A      3.832800  
     147A      3.849121   148A      3.866061   149A      3.892711  
     150A      3.917309   151A      3.937334   152A      3.999649  
     153A      4.066192   154A      4.120847   155A      4.126606  
     156A      4.138912   157A      4.146935   158A      4.170061  
     159A      4.198480   160A      4.216111   161A      4.250137  
     162A      4.277842   163A      4.343047   164A      4.369308  
     165A      4.381150   166A      4.396189   167A      4.423705  
     168A      4.433380   169A      4.465235   170A      4.506112  
     171A      4.570895   172A      4.578382   173A      4.609291  
     174A      4.666480   175A      4.690146   176A      4.748962  
     177A      4.772148   178A      4.857854   179A      4.892651  
     180A      4.918044   181A      5.001259   182A      5.032772  
     183A      5.073474   184A      5.132359   185A      5.189568  
     186A      5.196815   187A      5.204107   188A      5.240052  
     189A      5.290797   190A      5.315324   191A      5.358187  
     192A      5.403162   193A      5.555930   194A      5.574201  
     195A      5.613964   196A      5.631251   197A      5.677456  
     198A      5.690822   199A      5.707118   200A      5.709847  
     201A      5.747188   202A      5.824864   203A      5.855218  
     204A      5.869942   205A      5.952143   206A      5.956519  
     207A      6.172985   208A      6.204855   209A      6.254405  
     210A      6.275109   211A      6.289708   212A      6.399453  
     213A      6.500548   214A      6.628694   215A      6.733996  
     216A      6.757610   217A      6.849258   218A      6.896312  
     219A      6.928427   220A      6.956025   221A      7.240198  
     222A      7.277795   223A      7.348474   224A      7.419424  
     225A      7.560758   226A      7.625893   227A      7.774246  
     228A      7.855834   229A      7.929952   230A     10.514822  
     231A     12.068126   232A     13.392478   233A     14.285544  
     234A     14.383196  

    Final Occupation by Irrep:
              A 
    DOCC [    20 ]

  Energy converged.

  @DF-RHF Final Energy:  -266.91432307931257

   => Energetics <=

    Nuclear Repulsion Energy =            176.9689321416369694
    One-Electron Energy =                -714.7741486848042314
    Two-Electron Energy =                 270.8908934638549795
    DFT Exchange-Correlation Energy =       0.0000000000000000
    Empirical Dispersion Energy =           0.0000000000000000
    PCM Polarization Energy =               0.0000000000000000
    EFP Energy =                            0.0000000000000000
    Total Energy =                       -266.9143230793122825

    Alert: EFP and PCM quantities not currently incorporated into SCF psivars.

Properties will be evaluated at   0.000000,   0.000000,   0.000000 Bohr
  ==> Properties <==


Properties computed using the SCF density matrix

  Nuclear Dipole Moment: (a.u.)
     X:     6.1498      Y:     4.8387      Z:     2.6280

  Electronic Dipole Moment: (a.u.)
     X:    -5.5204      Y:    -3.5313      Z:    -2.1949

  Dipole Moment: (a.u.)
     X:     0.6294      Y:     1.3075      Z:     0.4332     Total:     1.5144

  Dipole Moment: (Debye)
     X:     1.5998      Y:     3.3233      Z:     1.1010     Total:     3.8491


  Saving occupied orbitals to File 180.

*** tstop() called on cx1-27-3-1 at Fri Sep  9 21:34:18 2016
Module time:
	user time   =      15.35 seconds =       0.26 minutes
	system time =       0.21 seconds =       0.00 minutes
	total time  =          5 seconds =       0.08 minutes
Total time:
	user time   =     116.88 seconds =       1.95 minutes
	system time =       1.35 seconds =       0.02 minutes
	total time  =         35 seconds =       0.58 minutes

*** tstart() called on cx1-27-3-1
*** at Fri Sep  9 21:34:18 2016


         ------------------------------------------------------------
                                   SCF GRAD                          
                          Rob Parrish, Justin Turney,                
                       Andy Simmonett, and Alex Sokolov              
         ------------------------------------------------------------

  ==> Geometry <==

    Molecular point group: c1
    Full point group: C1

    Geometry (in Angstrom), charge = 0, multiplicity = 1:

       Center              X                  Y                   Z               Mass       
    ------------   -----------------  -----------------  -----------------  -----------------
           H         -1.693183068769     0.752468813339    -0.684880484787     1.007825032070
           C         -1.193867878291    -0.184140415819    -0.417087770467    12.000000000000
           O          0.136212847326    -0.119080595301    -0.361677842937    15.994914619560
           O         -1.784004304288    -1.191838269903    -0.349895783560    15.994914619560
           C          0.683966565883     0.646566332061     0.699141345514    12.000000000000
           C          2.154605459317     0.850856449072     0.430663761446    12.000000000000
           H          0.532165323964     0.106714544494     1.626908473508     1.007825032070
           H          0.170297501661     1.603435082296     0.767534773994     1.007825032070
           H          2.658097652353    -0.103560449460     0.360615717468     1.007825032070
           H          2.602102573719     1.422609414257     1.235163211455     1.007825032070
           H          2.298955699243     1.386538159124    -0.498355088410     1.007825032070

  Nuclear repulsion =  176.968932141636998

  ==> Basis Set <==

  Basis Set: CC-PVTZ
    Number of shells: 86
    Number of basis function: 234
    Number of Cartesian functions: 265
    Spherical Harmonics?: true
    Max angular momentum: 3

  ==> DFJKGrad: Density-Fitted SCF Gradients <==

    Gradient:                    1
    J tasked:                  Yes
    K tasked:                  Yes
    wK tasked:                  No
    OpenMP threads:              4
    Integrals threads:           4
    Memory (MB):              1430
    Schwarz Cutoff:          0E+00
    Fitting Condition:       1E-12

   => Auxiliary Basis Set <=

  Basis Set: 
    Number of shells: 185
    Number of basis function: 575
    Number of Cartesian functions: 690
    Spherical Harmonics?: true
    Max angular momentum: 4


  -Total Gradient:
     Atom            X                  Y                   Z
    ------   -----------------  -----------------  -----------------
       1       -0.004465230287    -0.001778420373    -0.009470468083
       2       -0.000158875643     0.003984400286     0.019503868468
       3        0.001881377682    -0.001971587694    -0.007910604111
       4        0.003909918123     0.002708087717    -0.004262169789
       5       -0.000437229147    -0.003349233983     0.001549091875
       6       -0.000183387762    -0.000258695700     0.000088449159
       7        0.000519089309    -0.000944216539     0.000150399897
       8       -0.000064820909     0.001323267625     0.000000248259
       9       -0.000612766702     0.000207820542     0.000101958905
      10        0.000014443376     0.000203247132     0.000108882761
      11       -0.000402518044    -0.000124669014     0.000140342661


*** tstop() called on cx1-27-3-1 at Fri Sep  9 21:34:27 2016
Module time:
	user time   =      34.07 seconds =       0.57 minutes
	system time =       0.40 seconds =       0.01 minutes
	total time  =          9 seconds =       0.15 minutes
Total time:
	user time   =     150.97 seconds =       2.52 minutes
	system time =       1.75 seconds =       0.03 minutes
	total time  =         44 seconds =       0.73 minutes
CURRENT ENERGY: -266.9143230793

			-----------------------------------------
			 OPTKING 2.0: for geometry optimizations 
			  - R.A. King,  Bethel University        
			-----------------------------------------

	Previous internal coordinate definitions found.
	---Fragment 1 Geometry and Gradient---
	 H          -3.1996522928        1.4219599807       -1.2942365500
	 C          -2.2560833288       -0.3479749559       -0.7881816596
	 O           0.2574049772       -0.2250297129       -0.6834720715
	 O          -3.3712795550       -2.2522479248       -0.6612072060
	 C           1.2925094936        1.2218332943        1.3211856712
	 C           4.0716142425        1.6078856671        0.8138365645
	 H           1.0056467197        0.2016612635        3.0744114582
	 H           0.3218156393        3.0300531774        1.4504305203
	 H           5.0230765974       -0.1957008877        0.6814649452
	 H           4.9172612340        2.6883421870        2.3341201991
	 H           4.3443966632        2.6201773935       -0.9417546340
	            -0.0044652303       -0.0017784204       -0.0094704681
	            -0.0001588756        0.0039844003        0.0195038685
	             0.0018813777       -0.0019715877       -0.0079106041
	             0.0039099181        0.0027080877       -0.0042621698
	            -0.0004372291       -0.0033492340        0.0015490919
	            -0.0001833878       -0.0002586957        0.0000884492
	             0.0005190893       -0.0009442165        0.0001503999
	            -0.0000648209        0.0013232676        0.0000002483
	            -0.0006127667        0.0002078205        0.0001019589
	             0.0000144434        0.0002032471        0.0001088828
	            -0.0004025180       -0.0001246690        0.0001403427

	---Fragment 1 Intrafragment Coordinates---
	 - Coordinate -           - BOHR/RAD -       - ANG/DEG -
	 R(1,2)           =         2.068595	       1.094653
	 R(2,3)           =         2.518671	       1.332823
	 R(2,4)           =         2.210439	       1.169714
	 R(3,5)           =         2.680206	       1.418304
	 R(5,6)           =         2.851291	       1.508839
	 R(5,7)           =         2.048620	       1.084083
	 R(5,8)           =         2.056358	       1.088178
	 R(6,9)           =         2.043460	       1.081352
	 R(6,10)          =         2.047869	       1.083686
	 R(6,11)          =         2.044809	       1.082067
	 B(1,2,3)         =         2.008219	     115.062458
	 B(1,2,4)         =         2.118859	     121.401660
	 B(2,3,5)         =         2.029576	     116.286151
	 B(3,2,4)         =         2.144968	     122.897625
	 B(3,5,6)         =         1.892759	     108.447113
	 B(3,5,7)         =         1.893568	     108.493436
	 B(3,5,8)         =         1.917071	     109.840072
	 B(5,6,9)         =         1.923941	     110.233677
	 B(5,6,10)        =         1.919654	     109.988094
	 B(5,6,11)        =         1.928178	     110.476453
	 B(6,5,7)         =         1.934980	     110.866164
	 B(6,5,8)         =         1.930739	     110.623172
	 B(7,5,8)         =         1.894417	     108.542113
	 B(9,6,10)        =         1.898096	     108.752865
	 B(9,6,11)        =         1.895694	     108.615283
	 B(10,6,11)       =         1.897681	     108.729099
	 D(1,2,3,5)       =         1.205211	      69.053510
	 D(2,3,5,6)       =        -2.931136	    -167.941748
	 D(2,3,5,7)       =         1.248979	      71.561224
	 D(2,3,5,8)       =        -0.819234	     -46.938642
	 D(3,5,6,9)       =        -1.034839	     -59.291929
	 D(3,5,6,10)      =        -3.127692	    -179.203544
	 D(3,5,6,11)      =         1.060470	      60.760439
	*D(4,2,3,5)       =        -2.094396	    -120.000032
	 D(7,5,6,9)       =         1.042319	      59.720483
	 D(7,5,6,10)      =        -1.050533	     -60.191132
	 D(7,5,6,11)      =         3.137628	     179.772851
	 D(8,5,6,9)       =        -3.138279	    -179.810117
	 D(8,5,6,10)      =         1.052054	      60.278268
	 D(8,5,6,11)      =        -1.042969	     -59.757748

	Current energy   :      -266.9143230793

	Energy change for the previous step:
		Projected    :        -0.0040219633
		Actual       :         0.0013806793

	Performing BFGS update.
	Previous computed or guess Hessian on step 1.
	Steps to be used in Hessian update: 2 1
	Taking RFO optimization step.
	Going to follow RFO solution 1.
	Using RFO vector 1.
	Norm of target step-size    0.17185
	Projected energy change by RFO approximation:        -0.0057712589

	Back-transformation to cartesian coordinates...
	Successfully converged to displaced geometry.

	Back-transformation to cartesian coordinates to adjust frozen coordinates...
	Successfully converged to displaced geometry.

	--- Internal Coordinate Step in ANG or DEG, aJ/ANG or AJ/DEG ---
	 ---------------------------------------------------------------------------
	   Coordinate                Previous        Force       Change         New 
	   ----------                --------       ------       ------       ------
	    1 R(1,2)          =      1.094653    -0.023332    -0.002897     1.091756
	    2 R(2,3)          =      1.332823    -0.001919    -0.004560     1.328263
	    3 R(2,4)          =      1.169714     0.037490     0.002349     1.172063
	    4 R(3,5)          =      1.418304     0.003618     0.001350     1.419654
	    5 R(5,6)          =      1.508839     0.010123     0.000792     1.509631
	    6 R(5,7)          =      1.084083    -0.004335    -0.000863     1.083220
	    7 R(5,8)          =      1.088178    -0.009839    -0.001944     1.086235
	    8 R(6,9)          =      1.081352     0.003916     0.000414     1.081766
	    9 R(6,10)         =      1.083686    -0.001599    -0.000121     1.083564
	   10 R(6,11)         =      1.082067     0.001944     0.000185     1.082252
	   11 B(1,2,3)        =    115.062458    -0.000465    -1.371619   113.690839
	   12 B(1,2,4)        =    121.401660     0.000187     0.860887   122.262547
	   13 B(2,3,5)        =    116.286151     0.000169     0.384167   116.670318
	   14 B(3,2,4)        =    122.897625     0.000462     1.147165   124.044790
	   15 B(3,5,6)        =    108.447113     0.000013    -0.114838   108.332275
	   16 B(3,5,7)        =    108.493436     0.000006     0.090196   108.583632
	   17 B(3,5,8)        =    109.840072    -0.000038    -0.252670   109.587402
	   18 B(5,6,9)        =    110.233677     0.000042     0.176553   110.410231
	   19 B(5,6,10)       =    109.988094    -0.000011    -0.088660   109.899434
	   20 B(5,6,11)       =    110.476453     0.000035     0.120685   110.597138
	   21 B(6,5,7)        =    110.866164     0.000022     0.213436   111.079600
	   22 B(6,5,8)        =    110.623172     0.000037     0.259096   110.882268
	   23 B(7,5,8)        =    108.542113    -0.000041    -0.201869   108.340244
	   24 B(9,6,10)       =    108.752865    -0.000021    -0.088900   108.663965
	   25 B(9,6,11)       =    108.615283    -0.000032    -0.057137   108.558146
	   26 B(10,6,11)      =    108.729099    -0.000014    -0.068937   108.660163
	   27 D(1,2,3,5)      =     69.053510    -0.000300    -9.536240    59.517270
[...]
     222A      7.284043   223A      7.351093   224A      7.402747  
     225A      7.560543   226A      7.622453   227A      7.786285  
     228A      7.866602   229A      7.952059   230A     10.534882  
     231A     12.105751   232A     13.412449   233A     14.289163  
     234A     14.336875  

    Final Occupation by Irrep:
              A 
    DOCC [    20 ]

  Energy converged.

  @DF-RHF Final Energy:  -266.91602304099615

   => Energetics <=

    Nuclear Repulsion Energy =            176.9390102121044777
    One-Electron Energy =                -714.6909514765502536
    Two-Electron Energy =                 270.8359182234496529
    DFT Exchange-Correlation Energy =       0.0000000000000000
    Empirical Dispersion Energy =           0.0000000000000000
    PCM Polarization Energy =               0.0000000000000000
    EFP Energy =                            0.0000000000000000
    Total Energy =                       -266.9160230409961514

    Alert: EFP and PCM quantities not currently incorporated into SCF psivars.

Properties will be evaluated at   0.000000,   0.000000,   0.000000 Bohr
  ==> Properties <==


Properties computed using the SCF density matrix

  Nuclear Dipole Moment: (a.u.)
     X:     6.1148      Y:     4.8948      Z:     2.8375

  Electronic Dipole Moment: (a.u.)
     X:    -5.4794      Y:    -3.5797      Z:    -2.3682

  Dipole Moment: (a.u.)
     X:     0.6353      Y:     1.3151      Z:     0.4693     Total:     1.5341

  Dipole Moment: (Debye)
     X:     1.6148      Y:     3.3427      Z:     1.1928     Total:     3.8992


  Saving occupied orbitals to File 180.

*** tstop() called on cx1-27-3-1 at Fri Sep  9 21:35:14 2016
Module time:
	user time   =      12.91 seconds =       0.22 minutes
	system time =       0.18 seconds =       0.00 minutes
	total time  =          5 seconds =       0.08 minutes
Total time:
	user time   =     312.89 seconds =       5.21 minutes
	system time =       3.60 seconds =       0.06 minutes
	total time  =         91 seconds =       1.52 minutes

*** tstart() called on cx1-27-3-1
*** at Fri Sep  9 21:35:14 2016


         ------------------------------------------------------------
                                   SCF GRAD                          
                          Rob Parrish, Justin Turney,                
                       Andy Simmonett, and Alex Sokolov              
         ------------------------------------------------------------

  ==> Geometry <==

    Molecular point group: c1
    Full point group: C1

    Geometry (in Angstrom), charge = 0, multiplicity = 1:

       Center              X                  Y                   Z               Mass       
    ------------   -----------------  -----------------  -----------------  -----------------
           H         -1.687104904027     0.765567154082    -0.519088672805     1.007825032070
           C         -1.188886323755    -0.200354363827    -0.423359825592    12.000000000000
           O          0.137506187016    -0.105000646230    -0.369822316905    15.994914619560
           O         -1.775526603823    -1.211930025774    -0.362951768069    15.994914619560
           C          0.672210309638     0.665978833783     0.693150784407    12.000000000000
           C          2.151499065489     0.850646165328     0.452413188211    12.000000000000
           H          0.492134419887     0.143907652041     1.625244771118     1.007825032070
           H          0.166099325552     1.626381621014     0.738365640992     1.007825032070
           H          2.648193503358    -0.109069195390     0.399631537253     1.007825032070
           H          2.587856676002     1.422375069054     1.262748828770     1.007825032070
           H          2.323835675241     1.378874181233    -0.476406669026     1.007825032070

  Nuclear repulsion =  176.939010212104478

  ==> Basis Set <==

  Basis Set: CC-PVTZ
    Number of shells: 86
    Number of basis function: 234
    Number of Cartesian functions: 265
    Spherical Harmonics?: true
    Max angular momentum: 3

  ==> DFJKGrad: Density-Fitted SCF Gradients <==

    Gradient:                    1
    J tasked:                  Yes
    K tasked:                  Yes
    wK tasked:                  No
    OpenMP threads:              4
    Integrals threads:           4
    Memory (MB):              1430
    Schwarz Cutoff:          0E+00
    Fitting Condition:       1E-12

   => Auxiliary Basis Set <=

  Basis Set: 
    Number of shells: 185
    Number of basis function: 575
    Number of Cartesian functions: 690
    Spherical Harmonics?: true
    Max angular momentum: 4


  -Total Gradient:
     Atom            X                  Y                   Z
    ------   -----------------  -----------------  -----------------
       1       -0.000005545163    -0.000013454881     0.000010624808
       2        0.000483438342    -0.002409601849    -0.007122727182
       3       -0.000346178039     0.005375837188    -0.000878374794
       4       -0.000291967474     0.000508345191     0.005542948207
       5        0.000146712838    -0.003476882514     0.002421691064
       6        0.000006863589     0.000002995413     0.000014518254
       7        0.000008510921    -0.000000658841    -0.000001651926
       8        0.000000311083     0.000015662210     0.000006944899
       9        0.000000781513     0.000000492204    -0.000001900409
      10        0.000004872000    -0.000000257193     0.000002562580
      11       -0.000007799616    -0.000002476929     0.000005364501


*** tstop() called on cx1-27-3-1 at Fri Sep  9 21:35:22 2016
Module time:
	user time   =      33.50 seconds =       0.56 minutes
	system time =       0.33 seconds =       0.01 minutes
	total time  =          8 seconds =       0.13 minutes
Total time:
	user time   =     346.41 seconds =       5.77 minutes
	system time =       3.93 seconds =       0.07 minutes
	total time  =         99 seconds =       1.65 minutes
CURRENT ENERGY: -266.9160230410

			-----------------------------------------
			 OPTKING 2.0: for geometry optimizations 
			  - R.A. King,  Bethel University        
			-----------------------------------------

	Previous internal coordinate definitions found.
	---Fragment 1 Geometry and Gradient---
	 H          -3.1881662261        1.4467122575       -0.9809354303
	 C          -2.2466695550       -0.3786148772       -0.8000341260
	 O           0.2598490350       -0.1984224652       -0.6988628968
	 O          -3.3552590229       -2.2902158409       -0.6858794411
	 C           1.2702933889        1.2585176061        1.3098651513
	 C           4.0657440089        1.6074882885        0.8549370246
	 H           0.9299992742        0.2719460508        3.0712675163
	 H           0.3138822361        3.0734158513        1.3953088474
	 H           5.0043604682       -0.2061109088        0.7551941595
	 H           4.8903403888        2.6878993388        2.3862494610
	 H           4.3914130040        2.6056945742       -0.9002781323
	            -0.0000055452       -0.0000134549        0.0000106248
	             0.0004834383       -0.0024096018       -0.0071227272
	            -0.0003461780        0.0053758372       -0.0008783748
	            -0.0002919675        0.0005083452        0.0055429482
	             0.0001467128       -0.0034768825        0.0024216911
	             0.0000068636        0.0000029954        0.0000145183
	             0.0000085109       -0.0000006588       -0.0000016519
	             0.0000003111        0.0000156622        0.0000069449
	             0.0000007815        0.0000004922       -0.0000019004
	             0.0000048720       -0.0000002572        0.0000025626
	            -0.0000077996       -0.0000024769        0.0000053645

	---Fragment 1 Intrafragment Coordinates---
	 - Coordinate -           - BOHR/RAD -       - ANG/DEG -
	 R(1,2)           =         2.061786	       1.091050
	 R(2,3)           =         2.515023	       1.330893
	 R(2,4)           =         2.212740	       1.170932
	 R(3,5)           =         2.679302	       1.417826
	 R(5,6)           =         2.853644	       1.510084
	 R(5,7)           =         2.047355	       1.083414
	 R(5,8)           =         2.053260	       1.086539
	 R(6,9)           =         2.044527	       1.081917
	 R(6,10)          =         2.047478	       1.083479
	 R(6,11)          =         2.045301	       1.082327
	 B(1,2,3)         =         1.977079	     113.278274
	 B(1,2,4)         =         2.141918	     122.722866
	 B(2,3,5)         =         2.031940	     116.421603
	 B(3,2,4)         =         2.164132	     123.995610
	 B(3,5,6)         =         1.892746	     108.446351
	 B(3,5,7)         =         1.896834	     108.680566
	 B(3,5,8)         =         1.913655	     109.644332
	 B(5,6,9)         =         1.927327	     110.427731
	 B(5,6,10)        =         1.917526	     109.866139
	 B(5,6,11)        =         1.931009	     110.638680
	 B(6,5,7)         =         1.937890	     111.032932
	 B(6,5,8)         =         1.933543	     110.783844
	 B(7,5,8)         =         1.888844	     108.222762
	 B(9,6,10)        =         1.896181	     108.643144
	 B(9,6,11)        =         1.894372	     108.539494
	 B(10,6,11)       =         1.896702	     108.672999
	 D(1,2,3,5)       =         1.036004	      59.358631
	 D(2,3,5,6)       =        -2.975546	    -170.486214
	 D(2,3,5,7)       =         1.199146	      68.706008
	 D(2,3,5,8)       =        -0.862290	     -49.405597
	 D(3,5,6,9)       =        -1.031864	     -59.121466
	 D(3,5,6,10)      =        -3.123128	    -178.942050
	 D(3,5,6,11)      =         1.065819	      61.066945
	*D(4,2,3,5)       =        -2.094396	    -120.000032
	 D(7,5,6,9)       =         1.051022	      60.219136
	 D(7,5,6,10)      =        -1.040242	     -59.601448
	 D(7,5,6,11)      =        -3.134480	    -179.592454
	 D(8,5,6,9)       =        -3.132800	    -179.496197
	 D(8,5,6,10)      =         1.059122	      60.683219
	 D(8,5,6,11)      =        -1.035116	     -59.307787

	Current energy   :      -266.9160230410

	Energy change for the previous step:
		Projected    :        -0.0000006320
		Actual       :        -0.0000005755
	Energy ratio indicates good step: Trust radius increased to 9.375e-02.


	Performing BFGS update.
	Previous computed or guess Hessian on step 1.
	Steps to be used in Hessian update: 6 5
	Taking RFO optimization step.
	Going to follow RFO solution 1.
	Using RFO vector 1.
	Norm of target step-size    0.00093
	Projected energy change by RFO approximation:        -0.0000000395

	Back-transformation to cartesian coordinates...
	Successfully converged to displaced geometry.

	Back-transformation to cartesian coordinates to adjust frozen coordinates...
	Successfully converged to displaced geometry.

	--- Internal Coordinate Step in ANG or DEG, aJ/ANG or AJ/DEG ---
	 ---------------------------------------------------------------------------
	   Coordinate                Previous        Force       Change         New 
	   ----------                --------       ------       ------       ------
	    1 R(1,2)          =      1.091050     0.000085     0.000013     1.091063
	    2 R(2,3)          =      1.330893    -0.000124    -0.000005     1.330888
	    3 R(2,4)          =      1.170932     0.000057     0.000006     1.170938
	    4 R(3,5)          =      1.417826    -0.000110    -0.000013     1.417813
	    5 R(5,6)          =      1.510084    -0.000012     0.000003     1.510086
	    6 R(5,7)          =      1.083414     0.000021     0.000002     1.083416
	    7 R(5,8)          =      1.086539    -0.000115    -0.000020     1.086519
	    8 R(6,9)          =      1.081917    -0.000000    -0.000000     1.081917
	    9 R(6,10)         =      1.083479    -0.000031    -0.000004     1.083475
	   10 R(6,11)         =      1.082327     0.000058     0.000009     1.082336
	   11 B(1,2,3)        =    113.278274     0.000001     0.002616   113.280891
	   12 B(1,2,4)        =    122.722866     0.000003     0.007743   122.730609
	   13 B(2,3,5)        =    116.421603     0.000000     0.001899   116.423502
	   14 B(3,2,4)        =    123.995610    -0.000004    -0.010259   123.985351
	   15 B(3,5,6)        =    108.446351    -0.000002    -0.004442   108.441910
	   16 B(3,5,7)        =    108.680566     0.000000     0.000828   108.681394
	   17 B(3,5,8)        =    109.644332    -0.000000    -0.006084   109.638248
	   18 B(5,6,9)        =    110.427731    -0.000000    -0.000842   110.426890
	   19 B(5,6,10)       =    109.866139    -0.000000    -0.001729   109.864410
	   20 B(5,6,11)       =    110.638680     0.000001     0.003889   110.642568
	   21 B(6,5,7)        =    111.032932     0.000001     0.007286   111.040218
	   22 B(6,5,8)        =    110.783844     0.000001     0.002191   110.786036
	   23 B(7,5,8)        =    108.222762    -0.000000     0.000070   108.222832
	   24 B(9,6,10)       =    108.643144     0.000000    -0.000243   108.642901
	   25 B(9,6,11)       =    108.539494    -0.000000    -0.000228   108.539266
	   26 B(10,6,11)      =    108.672999    -0.000000    -0.000899   108.672100
	   27 D(1,2,3,5)      =     59.358631     0.000000     0.009986    59.368617
	   28 D(2,3,5,6)      =   -170.486214     0.000000     0.006300  -170.479914
	   29 D(2,3,5,7)      =     68.706008    -0.000000    -0.000367    68.705641
	   30 D(2,3,5,8)      =    -49.405597     0.000000     0.002556   -49.403041
	   31 D(3,5,6,9)      =    -59.121466    -0.000000    -0.020794   -59.142259
	   32 D(3,5,6,10)     =   -178.942050    -0.000000    -0.018862  -178.960912
	   33 D(3,5,6,11)     =     61.066945    -0.000000    -0.019100    61.047844
	   34 *D(4,2,3,5)     =   -120.000032     0.000000     0.000000  -120.000032
	   35 D(7,5,6,9)      =     60.219136    -0.000000    -0.018208    60.200928
	   36 D(7,5,6,10)     =    -59.601448    -0.000000    -0.016276   -59.617724
	   37 D(7,5,6,11)     =   -179.592454    -0.000000    -0.016514  -179.608968
	   38 D(8,5,6,9)      =   -179.496197     0.000000    -0.011818  -179.508015
	   39 D(8,5,6,10)     =     60.683219     0.000000    -0.009887    60.673332
	   40 D(8,5,6,11)     =    -59.307787     0.000000    -0.010124   -59.317911
	 ---------------------------------------------------------------------------

  ==> Convergence Check <==

  Measures of convergence in internal coordinates in au.
  Criteria marked as inactive (o), active & met (*), and active & unmet ( ).
  ---------------------------------------------------------------------------------------------
   Step     Total Energy     Delta E     MAX Force     RMS Force      MAX Disp      RMS Disp   
  ---------------------------------------------------------------------------------------------
    Convergence Criteria    1.00e-06 *    3.00e-04 *             o    1.20e-03 *             o
  ---------------------------------------------------------------------------------------------
      7    -266.91602304   -5.75e-07 *    5.54e-05 *    1.34e-05 o    3.63e-04 *    1.47e-04 o  ~
  ---------------------------------------------------------------------------------------------


  **** Optimization is complete! (in 7 steps) ****

  ==> Optimization Summary <==

  Measures of convergence in internal coordinates in au.
  --------------------------------------------------------------------------------------------------------------- ~
   Step         Total Energy             Delta E       MAX Force       RMS Force        MAX Disp        RMS Disp  ~
  --------------------------------------------------------------------------------------------------------------- ~
      1    -266.914653665664   -266.914653665664      0.01683286      0.00481076      0.14266028      0.04193121  ~
      2    -266.915703758632     -0.001050092968      0.00606838      0.00169065      0.22704426      0.04229904  ~
      3    -266.914323079313      0.001380679319      0.01720858      0.00322601      0.16643878      0.02710095  ~
      4    -266.915994953855     -0.001671874542      0.00136941      0.00045310      0.07240559      0.01986297  ~
      5    -266.916012118098     -0.000017164244      0.00065681      0.00023154      0.03249502      0.00877187  ~
      6    -266.916022465510     -0.000010347411      0.00050290      0.00010346      0.00123233      0.00043647  ~
      7    -266.916023040996     -0.000000575486      0.00005545      0.00001344      0.00036292      0.00014679  ~
  --------------------------------------------------------------------------------------------------------------- ~

	Writing optimization data to binary file.
	Final energy is   -266.9160230409962
	Final (previous) structure:
	Cartesian Geometry (in Angstrom)
	    H    -1.6871050329   0.7655672125  -0.5190887124
	    C    -1.1888864145  -0.2003543791  -0.4233598579
	    O     0.1375061975  -0.1050006542  -0.3698223451
	    O    -1.7755267394  -1.2119301183  -0.3629517958
	    C     0.6722103610   0.6659788846   0.6931508373
	    C     2.1514992298   0.8506462303   0.4524132228
	    H     0.4921344575   0.1439076630   1.6252448952
	    H     0.1660993382   1.6263817452   0.7383656974
	    H     2.6481937056  -0.1090692037   0.3996315678
	    H     2.5878568736   1.4223751777   1.2627489252
	    H     2.3238358527   1.3788742865  -0.4764067054
	Saving final (previous) structure.
			--------------------------
			 OPTKING Finished Execution 
			--------------------------

    Final optimized geometry and variables:
    Molecular point group: c1
    Full point group: C1

    Geometry (in Angstrom), charge = 0, multiplicity = 1:

    H           -1.687104904027     0.765567154082    -0.519088672805
    C           -1.188886323755    -0.200354363827    -0.423359825592
    O            0.137506187016    -0.105000646230    -0.369822316905
    O           -1.775526603823    -1.211930025774    -0.362951768069
    C            0.672210309638     0.665978833783     0.693150784407
    C            2.151499065489     0.850646165328     0.452413188211
    H            0.492134419887     0.143907652041     1.625244771118
    H            0.166099325552     1.626381621014     0.738365640992
    H            2.648193503358    -0.109069195390     0.399631537253
    H            2.587856676002     1.422375069054     1.262748828770
    H            2.323835675241     1.378874181233    -0.476406669026

	Cleaning optimization helper files.


Properties will be evaluated at   0.000000,   0.000000,   0.000000 Bohr

Properties computed using the  density matrix

  Nuclear Dipole Moment: (a.u.)
     X:     6.1148      Y:     4.8948      Z:     2.8375

  Electronic Dipole Moment: (a.u.)
     X:    -5.4794      Y:    -3.5797      Z:    -2.3682

  Dipole Moment: (a.u.)
     X:     0.6353      Y:     1.3151      Z:     0.4693     Total:     1.5341

  Dipole Moment: (Debye)
     X:     1.6148      Y:     3.3427      Z:     1.1928     Total:     3.8992

  Quadrupole Moment: (Debye Ang)
    XX:   -32.0268     YY:   -32.4084     ZZ:   -29.0568
    XY:    -3.8977     XZ:     0.8453     YZ:    -0.6283

  Traceless Quadrupole Moment: (Debye Ang)
    XX:    -0.8628     YY:    -1.2444     ZZ:     2.1072
    XY:    -3.8977     XZ:     0.8453     YZ:    -0.6283

  Mulliken Charges: (a.u.)
   Center  Symbol    Alpha    Beta     Spin     Total
       1     H     0.47254  0.47254  0.00000  0.05492
       2     C     2.84022  2.84022  0.00000  0.31955
       3     O     4.14543  4.14543  0.00000 -0.29087
       4     O     4.16450  4.16450  0.00000 -0.32900
       5     C     2.97199  2.97199  0.00000  0.05601
       6     C     3.13314  3.13314  0.00000 -0.26627
       7     H     0.45645  0.45645  0.00000  0.08711
       8     H     0.46554  0.46554  0.00000  0.06892
       9     H     0.44514  0.44514  0.00000  0.10972
      10     H     0.45563  0.45563  0.00000  0.08874
      11     H     0.44942  0.44942  0.00000  0.10117

   Total alpha = 20.00000, Total beta = 20.00000, Total charge = -0.00000


*** PSI4 exiting successfully. Buy a developer a beer!
