    -----------------------------------------------------------------------
          Psi4: An Open-Source Ab Initio Electronic Structure Package
                              Psi4 (no tag) Driver

                          Git: Rev {detached?}  

    J. M. Turney, A. C. Simmonett, R. M. Parrish, E. G. Hohenstein,
    F. A. Evangelista, J. T. Fermann, B. J. Mintz, L. A. Burns, J. J. Wilke,
    M. L. Abrams, N. J. Russ, M. L. Leininger, C. L. Janssen, E. T. Seidl,
    W. D. Allen, H. F. Schaefer, R. A. King, E. F. Valeev, C. D. Sherrill,
    and T. D. Crawford, WIREs Comput. Mol. Sci. 2, 556-565 (2012)
    (doi: 10.1002/wcms.93)

                         Additional Contributions by
    A. E. DePrince, M. Saitow, U. Bozkaya, A. Yu. Sokolov
    -----------------------------------------------------------------------


    Psi4 started on: Thu Sep  1 22:25:45 2016

    Process ID:  27997
    PSI4DATADIR: /export131/home/mjharvey/miniconda3/share
    Memory level set to 256.000 MB

  ==> Input File <==

--------------------------------------------------------------------------
set {
	reference rhf
	basis 6-31G*
}


set_num_threads( 1 )
memory 2 gb

molecule MOL {
0 1

H	 3.883498	 0.352401	 -0.210468
N	 3.092854	 -0.246221	 -0.068770
C	 1.865559	 0.531981	 0.018834
H	 3.255486	 -0.742805	 0.786675
C	 0.645745	 -0.382037	 -0.029944
H	 1.841966	 1.207024	 -0.831236
H	 1.815756	 1.155410	 0.915079
C	 -0.679275	 0.379305	 0.025956
H	 0.698998	 -0.976915	 -0.937203
H	 0.693479	 -1.083846	 0.802235
C	 -1.903357	 -0.536963	 -0.023547
H	 -0.726309	 1.082987	 -0.803784
H	 -0.717680	 0.977832	 0.934877
C	 -3.225172	 0.228290	 0.028445
H	 -1.867824	 -1.134999	 -0.931459
H	 -1.860449	 -1.239604	 0.805977
H	 -3.313397	 0.915643	 -0.808262
H	 -4.073500	 -0.448134	 -0.008893
H	 -3.306061	 0.809945	 0.942516

	symmetry c1
}
set optking {
	frozen_dihedral = ("
		6 3 5 9,
		12 8 5 9,
		12 8 11 15
	")
}

ee = energy('scf')
oeprop('DIPOLE', 'QUADRUPOLE', 'MULLIKEN_CHARGES')
f=open( 'psi4out.xyz', 'w' )
f.write( "19  " )
f.write( str(ee) + "\n" )
f.write( MOL.save_string_xyz() )
f.close()
--------------------------------------------------------------------------

  Memory set to   2.000 GiB by Python script.

*** tstart() called on cx1-3-6-2.cx1.hpc.ic.ac.uk
*** at Thu Sep  1 22:25:46 2016


         ---------------------------------------------------------
                                   SCF
            by Justin Turney, Rob Parrish, and Andy Simmonett
                              RHF Reference
                        1 Threads,   2000 MiB Core
         ---------------------------------------------------------

  ==> Geometry <==

    Molecular point group: c1
    Full point group: C1

    Geometry (in Angstrom), charge = 0, multiplicity = 1:

       Center              X                  Y                   Z               Mass       
    ------------   -----------------  -----------------  -----------------  -----------------
           H          3.882962308042     0.351472847456    -0.209723198839     1.007825032070
           N          3.092318308042    -0.247149152544    -0.068025198839    14.003074004780
           C          1.865023308042     0.531052847456     0.019578801161    12.000000000000
           H          3.254950308042    -0.743733152544     0.787419801161     1.007825032070
           C          0.645209308042    -0.382965152544    -0.029199198839    12.000000000000
           H          1.841430308042     1.206095847456    -0.830491198839     1.007825032070
           H          1.815220308042     1.154481847456     0.915823801161     1.007825032070
           C         -0.679810691958     0.378376847456     0.026700801161    12.000000000000
           H          0.698462308042    -0.977843152544    -0.936458198839     1.007825032070
           H          0.692943308042    -1.084774152544     0.802979801161     1.007825032070
           C         -1.903892691958    -0.537891152544    -0.022802198839    12.000000000000
           H         -0.726844691958     1.082058847456    -0.803039198839     1.007825032070
           H         -0.718215691958     0.976903847456     0.935621801161     1.007825032070
           C         -3.225707691958     0.227361847456     0.029189801161    12.000000000000
           H         -1.868359691958    -1.135927152544    -0.930714198839     1.007825032070
           H         -1.860984691958    -1.240532152544     0.806721801161     1.007825032070
           H         -3.313932691958     0.914714847456    -0.807517198839     1.007825032070
           H         -4.074035691958    -0.449062152544    -0.008148198839     1.007825032070
           H         -3.306596691958     0.809016847456     0.943260801161     1.007825032070

  Running in c1 symmetry.

  Rotational constants: A =      0.51706  B =      0.03801  C =      0.03671 [cm^-1]
  Rotational constants: A =  15501.13330  B =   1139.62770  C =   1100.61922 [MHz]
  Nuclear repulsion =  245.598713970085015

  Charge       = 0
  Multiplicity = 1
  Electrons    = 50
  Nalpha       = 25
  Nbeta        = 25

  ==> Algorithm <==

  SCF Algorithm Type is DF.
  DIIS enabled.
  MOM disabled.
  Fractional occupation disabled.
  Guess Type is CORE.
  Energy threshold   = 1.00e-06
  Density threshold  = 1.00e-06
  Integral threshold = 0.00e+00

  ==> Primary Basis <==

  Basis Set: 6-31G*
    Number of shells: 62
    Number of basis function: 116
    Number of Cartesian functions: 116
    Spherical Harmonics?: false
    Max angular momentum: 2

  ==> Pre-Iterations <==

   -------------------------------------------------------
    Irrep   Nso     Nmo     Nalpha   Nbeta   Ndocc  Nsocc
   -------------------------------------------------------
     A        116     116       0       0       0       0
   -------------------------------------------------------
    Total     116     116      25      25      25       0
   -------------------------------------------------------

 OEINTS: Overlap, kinetic, potential, dipole, and quadrupole integrals
         stored in file 35.

  ==> Integral Setup <==

  ==> DFJK: Density-Fitted J/K Matrices <==

    J tasked:                  Yes
    K tasked:                  Yes
    wK tasked:                  No
    OpenMP threads:              1
    Integrals threads:           1
    Memory (MB):              1430
    Algorithm:                Core
    Integral Cache:           NONE
    Schwarz Cutoff:          1E-12
    Fitting Condition:       1E-12

   => Auxiliary Basis Set <=

  Basis Set: 
    Number of shells: 261
    Number of basis function: 811
    Number of Cartesian functions: 811
    Spherical Harmonics?: false
    Max angular momentum: 3

  Minimum eigenvalue in the overlap matrix is 3.1661437231E-03.
  Using Symmetric Orthogonalization.
  SCF Guess: Core (One-Electron) Hamiltonian.

  ==> Iterations <==

                           Total Energy        Delta E     RMS |[F,P]|

   @DF-RHF iter   1:  -190.83914073699825   -1.90839e+02   7.06675e-02 
   @DF-RHF iter   2:   -93.24110787477755    9.75980e+01   8.53842e-02 DIIS
   @DF-RHF iter   3:  -177.82481060880158   -8.45837e+01   6.02072e-02 DIIS
   @DF-RHF iter   4:  -189.99708826578021   -1.21723e+01   5.62697e-02 DIIS
   @DF-RHF iter   5:  -234.26884277095687   -4.42718e+01   3.34437e-02 DIIS
   @DF-RHF iter   6:  -250.94374209607886   -1.66749e+01   7.44901e-03 DIIS
   @DF-RHF iter   7:  -251.29363141431864   -3.49889e-01   2.87519e-03 DIIS
   @DF-RHF iter   8:  -251.33827322209586   -4.46418e-02   1.15876e-03 DIIS
   @DF-RHF iter   9:  -251.35072082727922   -1.24476e-02   2.71887e-04 DIIS
   @DF-RHF iter  10:  -251.35149658333702   -7.75756e-04   9.35410e-05 DIIS
   @DF-RHF iter  11:  -251.35160458406486   -1.08001e-04   3.38335e-05 DIIS
   @DF-RHF iter  12:  -251.35161680692167   -1.22229e-05   9.67077e-06 DIIS
   @DF-RHF iter  13:  -251.35161779752931   -9.90608e-07   3.43050e-06 DIIS
   @DF-RHF iter  14:  -251.35161789820634   -1.00677e-07   5.43154e-07 DIIS

  ==> Post-Iterations <==

    Orbital Energies (a.u.)
    -----------------------

    Doubly Occupied:                                                      

       1A    -15.532677     2A    -11.239864     3A    -11.213445  
       4A    -11.212035     5A    -11.208102     6A    -11.207138  
       7A     -1.176601     8A     -1.072406     9A     -0.997967  
      10A     -0.899947    11A     -0.812217    12A     -0.788352  
      13A     -0.667146    14A     -0.640229    15A     -0.616644  
      16A     -0.586913    17A     -0.564954    18A     -0.549293  
      19A     -0.527821    20A     -0.499363    21A     -0.478995  
      22A     -0.464289    23A     -0.460332    24A     -0.450484  
      25A     -0.380861  

    Virtual:                                                              

      26A      0.227275    27A      0.236461    28A      0.269166  
      29A      0.270422    30A      0.281169    31A      0.309552  
      32A      0.321300    33A      0.331911    34A      0.341806  
      35A      0.348273    36A      0.354164    37A      0.363422  
      38A      0.369872    39A      0.399840    40A      0.404119  
      41A      0.450974    42A      0.473470    43A      0.495753  
      44A      0.698372    45A      0.720583    46A      0.748936  
      47A      0.754072    48A      0.773203    49A      0.809830  
      50A      0.827734    51A      0.879303    52A      0.917649  
      53A      0.945942    54A      0.967491    55A      0.991291  
      56A      1.014005    57A      1.034111    58A      1.073801  
      59A      1.111482    60A      1.119127    61A      1.135799  
      62A      1.159700    63A      1.180525    64A      1.189303  
      65A      1.201989    66A      1.210582    67A      1.220708  
      68A      1.228327    69A      1.229357    70A      1.234914  
      71A      1.252849    72A      1.257933    73A      1.275404  
      74A      1.331152    75A      1.394308    76A      1.554274  
      77A      1.626160    78A      1.694453    79A      1.713822  
      80A      1.732411    81A      1.792926    82A      1.817880  
      83A      1.932811    84A      2.036082    85A      2.120734  
      86A      2.155895    87A      2.175352    88A      2.226802  
      89A      2.250952    90A      2.261204    91A      2.299335  
      92A      2.328036    93A      2.337006    94A      2.387662  
      95A      2.439534    96A      2.454699    97A      2.566213  
      98A      2.594637    99A      2.634046   100A      2.669267  
     101A      2.695997   102A      2.764487   103A      2.780528  
     104A      2.812719   105A      2.876793   106A      2.933645  
     107A      2.956732   108A      3.029069   109A      3.161584  
     110A      3.200383   111A      4.220994   112A      4.575428  
     113A      4.675109   114A      4.772503   115A      4.862494  
     116A      4.992258  

    Final Occupation by Irrep:
              A 
    DOCC [    25 ]

  Energy converged.

  @DF-RHF Final Energy:  -251.35161789820634

   => Energetics <=

    Nuclear Repulsion Energy =            245.5987139700850150
    One-Electron Energy =                -825.4044197589920486
    Two-Electron Energy =                 328.4540878907008619
    DFT Exchange-Correlation Energy =       0.0000000000000000
    Empirical Dispersion Energy =           0.0000000000000000
    PCM Polarization Energy =               0.0000000000000000
    EFP Energy =                            0.0000000000000000
    Total Energy =                       -251.3516178982062002

    Alert: EFP and PCM quantities not currently incorporated into SCF psivars.

Properties will be evaluated at   0.000000,   0.000000,   0.000000 Bohr
  ==> Properties <==


Properties computed using the SCF density matrix

  Nuclear Dipole Moment: (a.u.)
     X:    -3.4617      Y:     0.8096      Z:     0.6243

  Electronic Dipole Moment: (a.u.)
     X:     3.5564      Y:    -0.4736      Z:    -0.2046

  Dipole Moment: (a.u.)
     X:     0.0947      Y:     0.3360      Z:     0.4197     Total:     0.5459

  Dipole Moment: (Debye)
     X:     0.2408      Y:     0.8540      Z:     1.0667     Total:     1.3875


  Saving occupied orbitals to File 180.

*** tstop() called on cx1-3-6-2.cx1.hpc.ic.ac.uk at Thu Sep  1 22:25:54 2016
Module time:
	user time   =       8.13 seconds =       0.14 minutes
	system time =       0.05 seconds =       0.00 minutes
	total time  =          8 seconds =       0.13 minutes
Total time:
	user time   =       8.13 seconds =       0.14 minutes
	system time =       0.05 seconds =       0.00 minutes
	total time  =          8 seconds =       0.13 minutes


Properties will be evaluated at   0.000000,   0.000000,   0.000000 Bohr

Properties computed using the  density matrix

  Nuclear Dipole Moment: (a.u.)
     X:    -3.4617      Y:     0.8096      Z:     0.6243

  Electronic Dipole Moment: (a.u.)
     X:     3.5564      Y:    -0.4736      Z:    -0.2046

  Dipole Moment: (a.u.)
     X:     0.0947      Y:     0.3360      Z:     0.4197     Total:     0.5459

  Dipole Moment: (Debye)
     X:     0.2408      Y:     0.8540      Z:     1.0667     Total:     1.3875

  Quadrupole Moment: (Debye Ang)
    XX:   -39.2578     YY:   -41.5821     ZZ:   -40.3965
    XY:     3.3305     XZ:     3.7229     YZ:    -1.7152

  Traceless Quadrupole Moment: (Debye Ang)
    XX:     1.1543     YY:    -1.1700     ZZ:     0.0157
    XY:     3.3305     XZ:     3.7229     YZ:    -1.7152

  Mulliken Charges: (a.u.)
   Center  Symbol    Alpha    Beta     Spin     Total
       1     H     0.33226  0.33226  0.00000  0.33548
       2     N     3.92177  3.92177  0.00000 -0.84354
       3     C     3.06223  3.06223  0.00000 -0.12446
       4     H     0.33502  0.33502  0.00000  0.32995
       5     C     3.14898  3.14898  0.00000 -0.29795
       6     H     0.42131  0.42131  0.00000  0.15738
       7     H     0.43420  0.43420  0.00000  0.13160
       8     C     3.15522  3.15522  0.00000 -0.31043
       9     H     0.41355  0.41355  0.00000  0.17290
      10     H     0.42745  0.42745  0.00000  0.14511
      11     C     3.15072  3.15072  0.00000 -0.30145
      12     H     0.42402  0.42402  0.00000  0.15196
      13     H     0.42512  0.42512  0.00000  0.14976
      14     C     3.23926  3.23926  0.00000 -0.47851
      15     H     0.42194  0.42194  0.00000  0.15612
      16     H     0.42328  0.42328  0.00000  0.15344
      17     H     0.42189  0.42189  0.00000  0.15623
      18     H     0.41945  0.41945  0.00000  0.16111
      19     H     0.42234  0.42234  0.00000  0.15531

   Total alpha = 25.00000, Total beta = 25.00000, Total charge =  0.00000


*** PSI4 exiting successfully. Buy a developer a beer!
