    -----------------------------------------------------------------------
          Psi4: An Open-Source Ab Initio Electronic Structure Package
                              Psi4 (no tag) Driver

                          Git: Rev {detached?}  

    J. M. Turney, A. C. Simmonett, R. M. Parrish, E. G. Hohenstein,
    F. A. Evangelista, J. T. Fermann, B. J. Mintz, L. A. Burns, J. J. Wilke,
    M. L. Abrams, N. J. Russ, M. L. Leininger, C. L. Janssen, E. T. Seidl,
    W. D. Allen, H. F. Schaefer, R. A. King, E. F. Valeev, C. D. Sherrill,
    and T. D. Crawford, WIREs Comput. Mol. Sci. 2, 556-565 (2012)
    (doi: 10.1002/wcms.93)

                         Additional Contributions by
    A. E. DePrince, M. Saitow, U. Bozkaya, A. Yu. Sokolov
    -----------------------------------------------------------------------


    Psi4 started on: Fri Sep  9 20:51:09 2016

    Process ID:  16490
    PSI4DATADIR: /export131/home/mjharvey/miniconda3/share
    Memory level set to 256.000 MB

  ==> Input File <==

--------------------------------------------------------------------------
set {
	reference rhf
	basis cc-pvtz
}


set_num_threads( 4 )
memory 2 gb

molecule MOL {
0 1

H	 2.708001	 -0.788647	 -0.565490
N	 2.326826	 -0.066186	 0.000000
C	 0.934676	 -0.005420	 0.000000
H	 2.739795	 -0.060246	 0.903573
C	 0.226436	 -0.001077	 -1.195129
C	 0.226436	 -0.001077	 1.195129
H	 0.759091	 -0.011439	 -2.128123
C	 -1.153391	 0.009141	 -1.189028
H	 0.759091	 -0.011439	 2.128123
C	 -1.153391	 0.009141	 1.189028
H	 -1.680905	 0.012964	 -2.124348
C	 -1.857876	 0.014675	 0.000000
H	 -1.680905	 0.012964	 2.124348
H	 -2.930222	 0.022904	 0.000000

	symmetry c1
}
set optking {
	frozen_dihedral = ("
		1 2 3 5
	")
}

ee = optimize('scf')
oeprop('DIPOLE', 'QUADRUPOLE', 'MULLIKEN_CHARGES')
f=open( 'psi4out.xyz', 'w' )
f.write( "14  " )
f.write( str(ee) + "\n" )
f.write( MOL.save_string_xyz() )
f.close()
--------------------------------------------------------------------------

  Memory set to   2.000 GiB by Python script.
gradient() will perform analytic gradient computation.

*** tstart() called on cx1-27-2-4
*** at Fri Sep  9 20:51:09 2016


         ---------------------------------------------------------
                                   SCF
            by Justin Turney, Rob Parrish, and Andy Simmonett
                              RHF Reference
                        4 Threads,   2000 MiB Core
         ---------------------------------------------------------

  ==> Geometry <==

    Molecular point group: c1
    Full point group: C1

    Geometry (in Angstrom), charge = 0, multiplicity = 1:

       Center              X                  Y                   Z               Mass       
    ------------   -----------------  -----------------  -----------------  -----------------
           H          2.708682121230    -0.773048208580    -0.569151469861     1.007825032070
           N          2.327507121230    -0.050587208580    -0.003661469861    14.003074004780
           C          0.935357121230     0.010178791420    -0.003661469861    12.000000000000
           H          2.740476121230    -0.044647208580     0.899911530139     1.007825032070
           C          0.227117121230     0.014521791420    -1.198790469861    12.000000000000
           C          0.227117121230     0.014521791420     1.191467530139    12.000000000000
           H          0.759772121230     0.004159791420    -2.131784469861     1.007825032070
           C         -1.152709878770     0.024739791420    -1.192689469861    12.000000000000
           H          0.759772121230     0.004159791420     2.124461530139     1.007825032070
           C         -1.152709878770     0.024739791420     1.185366530139    12.000000000000
           H         -1.680223878770     0.028562791420    -2.128009469861     1.007825032070
           C         -1.857194878770     0.030273791420    -0.003661469861    12.000000000000
           H         -1.680223878770     0.028562791420     2.120686530139     1.007825032070
           H         -2.929540878770     0.038502791420    -0.003661469861     1.007825032070

  Running in c1 symmetry.

  Rotational constants: A =      0.19134  B =      0.08779  C =      0.06041 [cm^-1]
  Rotational constants: A =   5736.29399  B =   2631.85763  C =   1810.95019 [MHz]
  Nuclear repulsion =  273.753798965566887

  Charge       = 0
  Multiplicity = 1
  Electrons    = 50
  Nalpha       = 25
  Nbeta        = 25

  ==> Algorithm <==

  SCF Algorithm Type is DF.
  DIIS enabled.
  MOM disabled.
  Fractional occupation disabled.
  Guess Type is CORE.
  Energy threshold   = 1.00e-08
  Density threshold  = 1.00e-08
  Integral threshold = 0.00e+00

  ==> Primary Basis <==

  Basis Set: CC-PVTZ
    Number of shells: 112
    Number of basis function: 308
    Number of Cartesian functions: 350
    Spherical Harmonics?: true
    Max angular momentum: 3

  ==> Pre-Iterations <==

   -------------------------------------------------------
    Irrep   Nso     Nmo     Nalpha   Nbeta   Ndocc  Nsocc
   -------------------------------------------------------
     A        308     308       0       0       0       0
   -------------------------------------------------------
    Total     308     308      25      25      25       0
   -------------------------------------------------------

 OEINTS: Overlap, kinetic, potential, dipole, and quadrupole integrals
         stored in file 35.

  ==> Integral Setup <==

  ==> DFJK: Density-Fitted J/K Matrices <==

    J tasked:                  Yes
    K tasked:                  Yes
    wK tasked:                  No
    OpenMP threads:              4
    Integrals threads:           4
    Memory (MB):              1430
    Algorithm:                Core
    Integral Cache:           NONE
    Schwarz Cutoff:          1E-12
    Fitting Condition:       1E-12

   => Auxiliary Basis Set <=

  Basis Set: 
    Number of shells: 245
    Number of basis function: 763
    Number of Cartesian functions: 917
    Spherical Harmonics?: true
    Max angular momentum: 4

  Minimum eigenvalue in the overlap matrix is 3.5796401693E-05.
  Using Symmetric Orthogonalization.
  SCF Guess: Core (One-Electron) Hamiltonian.

  ==> Iterations <==

                           Total Energy        Delta E     RMS |[F,P]|

   @DF-RHF iter   1:  -214.29383028188238   -2.14294e+02   3.66261e-02 
   @DF-RHF iter   2:  -208.47970601378449    5.81412e+00   2.52816e-02 DIIS
   @DF-RHF iter   3:  -246.43991068043141   -3.79602e+01   1.99181e-02 DIIS
   @DF-RHF iter   4:  -260.82005999954225   -1.43801e+01   2.06864e-02 DIIS
   @DF-RHF iter   5:  -285.51023070423065   -2.46902e+01   2.30437e-03 DIIS
   @DF-RHF iter   6:  -285.77811283520276   -2.67882e-01   1.01199e-03 DIIS
   @DF-RHF iter   7:  -285.82421089615497   -4.60981e-02   2.99442e-04 DIIS
   @DF-RHF iter   8:  -285.83011567403872   -5.90478e-03   1.18975e-04 DIIS
   @DF-RHF iter   9:  -285.83118464780426   -1.06897e-03   6.16648e-05 DIIS
   @DF-RHF iter  10:  -285.83158823194861   -4.03584e-04   1.85214e-05 DIIS
   @DF-RHF iter  11:  -285.83163830363065   -5.00717e-05   8.65648e-06 DIIS
   @DF-RHF iter  12:  -285.83165134650807   -1.30429e-05   4.59628e-06 DIIS
   @DF-RHF iter  13:  -285.83165567015720   -4.32365e-06   1.75202e-06 DIIS
   @DF-RHF iter  14:  -285.83165664263214   -9.72475e-07   4.10986e-07 DIIS
   @DF-RHF iter  15:  -285.83165667222869   -2.95965e-08   8.39064e-08 DIIS
   @DF-RHF iter  16:  -285.83165667299289   -7.64203e-10   2.62941e-08 DIIS
   @DF-RHF iter  17:  -285.83165667307372   -8.08313e-11   8.32423e-09 DIIS

  ==> Post-Iterations <==

    Orbital Energies (a.u.)
    -----------------------

    Doubly Occupied:                                                      

       1A    -15.551900     2A    -11.268754     3A    -11.227153  
       4A    -11.226923     5A    -11.217126     6A    -11.215875  
       7A    -11.213396     8A     -1.224916     9A     -1.130718  
      10A     -1.013846    11A     -0.987853    12A     -0.832046  
      13A     -0.813422    14A     -0.708203    15A     -0.685996  
      16A     -0.654490    17A     -0.605567    18A     -0.596402  
      19A     -0.582623    20A     -0.525632    21A     -0.507448  
      22A     -0.488255    23A     -0.442434    24A     -0.336242  
      25A     -0.298803  

    Virtual:                                                              

      26A      0.131390    27A      0.141897    28A      0.150157  
      29A      0.159211    30A      0.168147    31A      0.193402  
      32A      0.195888    33A      0.223101    34A      0.243191  
      35A      0.342073    36A      0.346777    37A      0.370958  
      38A      0.377209    39A      0.408276    40A      0.414662  
      41A      0.438426    42A      0.465428    43A      0.469955  
      44A      0.485399    45A      0.494214    46A      0.500726  
      47A      0.518948    48A      0.528904    49A      0.558837  
      50A      0.566006    51A      0.575429    52A      0.580481  
      53A      0.594355    54A      0.601564    55A      0.612447  
      56A      0.615666    57A      0.634993    58A      0.636852  
      59A      0.652125    60A      0.658964    61A      0.672070  
      62A      0.674805    63A      0.695691    64A      0.705510  
      65A      0.716325    66A      0.741729    67A      0.748676  
      68A      0.766766    69A      0.820880    70A      0.836639  
      71A      0.850820    72A      0.868008    73A      0.885848  
      74A      0.906465    75A      0.931257    76A      0.958647  
      77A      0.972080    78A      0.987967    79A      1.002261  
      80A      1.023744    81A      1.036995    82A      1.052127  
      83A      1.071470    84A      1.103426    85A      1.103886  
      86A      1.131014    87A      1.161178    88A      1.171541  
      89A      1.202163    90A      1.227775    91A      1.230957  
      92A      1.254450    93A      1.270261    94A      1.288595  
      95A      1.302139    96A      1.333107    97A      1.343582  
      98A      1.365144    99A      1.397094   100A      1.405474  
     101A      1.420925   102A      1.457186   103A      1.483791  
     104A      1.512890   105A      1.519946   106A      1.527562  
     107A      1.544438   108A      1.565693   109A      1.589337  
     110A      1.591764   111A      1.597332   112A      1.607386  
     113A      1.615375   114A      1.631472   115A      1.655245  
     116A      1.691689   117A      1.750035   118A      1.751985  
     119A      1.757373   120A      1.783420   121A      1.800863  
     122A      1.879393   123A      1.926144   124A      1.966017  
     125A      1.986772   126A      2.008453   127A      2.066693  
     128A      2.127214   129A      2.207244   130A      2.236850  
     131A      2.305691   132A      2.342428   133A      2.351965  
     134A      2.373569   135A      2.454041   136A      2.478601  
     137A      2.485005   138A      2.512785   139A      2.540836  
     140A      2.560099   141A      2.576215   142A      2.619351  
     143A      2.630797   144A      2.704376   145A      2.742648  
     146A      2.762254   147A      2.794603   148A      2.810602  
     149A      2.846798   150A      2.866221   151A      2.868991  
     152A      2.899344   153A      2.942724   154A      2.951653  
     155A      2.975366   156A      2.987510   157A      3.009036  
     158A      3.012225   159A      3.037596   160A      3.043488  
     161A      3.058924   162A      3.074531   163A      3.107557  
     164A      3.136330   165A      3.156342   166A      3.173518  
     167A      3.177106   168A      3.235591   169A      3.251344  
     170A      3.261181   171A      3.283901   172A      3.310854  
     173A      3.313956   174A      3.354113   175A      3.354847  
     176A      3.383453   177A      3.400122   178A      3.402827  
     179A      3.409757   180A      3.417966   181A      3.426531  
     182A      3.431875   183A      3.436890   184A      3.441378  
     185A      3.450981   186A      3.465118   187A      3.474796  
     188A      3.487206   189A      3.509300   190A      3.574455  
     191A      3.593579   192A      3.627810   193A      3.632163  
     194A      3.654109   195A      3.669057   196A      3.677942  
     197A      3.697284   198A      3.712795   199A      3.716229  
     200A      3.719449   201A      3.738579   202A      3.748605  
     203A      3.768052   204A      3.788811   205A      3.793844  
     206A      3.862521   207A      3.889890   208A      3.924787  
     209A      3.954620   210A      3.960768   211A      4.000609  
     212A      4.010412   213A      4.039845   214A      4.075813  
     215A      4.106824   216A      4.111053   217A      4.122677  
     218A      4.135285   219A      4.157580   220A      4.158847  
     221A      4.161152   222A      4.173602   223A      4.179550  
     224A      4.181124   225A      4.198645   226A      4.208909  
     227A      4.220915   228A      4.232466   229A      4.283225  
     230A      4.326561   231A      4.335891   232A      4.356462  
     233A      4.383600   234A      4.393312   235A      4.432954  
     236A      4.455422   237A      4.471728   238A      4.489306  
     239A      4.502822   240A      4.520595   241A      4.526280  
     242A      4.563203   243A      4.566727   244A      4.605247  
     245A      4.616476   246A      4.652771   247A      4.678692  
     248A      4.692826   249A      4.694140   250A      4.710638  
     251A      4.716608   252A      4.717549   253A      4.726591  
     254A      4.754017   255A      4.786849   256A      4.836415  
     257A      4.927573   258A      4.948686   259A      4.994911  
     260A      5.050357   261A      5.076749   262A      5.092136  
     263A      5.099927   264A      5.124110   265A      5.160031  
     266A      5.180922   267A      5.228788   268A      5.259312  
     269A      5.263833   270A      5.350931   271A      5.363141  
     272A      5.387507   273A      5.400565   274A      5.410870  
     275A      5.436637   276A      5.490437   277A      5.499194  
     278A      5.528636   279A      5.595698   280A      5.652152  
     281A      5.754449   282A      5.789584   283A      5.841459  
     284A      5.957822   285A      5.978870   286A      6.045658  
     287A      6.142020   288A      6.155385   289A      6.211625  
     290A      6.240848   291A      6.335683   292A      6.371014  
     293A      6.389273   294A      6.467196   295A      6.556357  
     296A      6.616468   297A      6.722855   298A      6.826110  
     299A      7.018443   300A      7.324386   301A      7.422772  
     302A      9.340632   303A     13.108441   304A     13.520728  
     305A     13.796096   306A     14.110540   307A     14.664680  
     308A     16.525826  

    Final Occupation by Irrep:
              A 
    DOCC [    25 ]

  Energy converged.

  @DF-RHF Final Energy:  -285.83165667307372

   => Energetics <=

    Nuclear Repulsion Energy =            273.7537989655668866
    One-Electron Energy =                -928.4588696756769650
    Two-Electron Energy =                 368.8734140370364116
    DFT Exchange-Correlation Energy =       0.0000000000000000
    Empirical Dispersion Energy =           0.0000000000000000
    PCM Polarization Energy =               0.0000000000000000
    EFP Energy =                            0.0000000000000000
    Total Energy =                       -285.8316566730736099

    Alert: EFP and PCM quantities not currently incorporated into SCF psivars.

Properties will be evaluated at   0.000000,   0.000000,   0.000000 Bohr
  ==> Properties <==


Properties computed using the SCF density matrix

  Nuclear Dipole Moment: (a.u.)
     X:     0.6295      Y:    -0.6690      Z:     0.2929

  Electronic Dipole Moment: (a.u.)
     X:    -0.3214      Y:     0.2545      Z:    -0.1183

  Dipole Moment: (a.u.)
     X:     0.3081      Y:    -0.4145      Z:     0.1746     Total:     0.5452

  Dipole Moment: (Debye)
     X:     0.7831      Y:    -1.0536      Z:     0.4439     Total:     1.3858


  Saving occupied orbitals to File 180.

*** tstop() called on cx1-27-2-4 at Fri Sep  9 20:51:22 2016
Module time:
	user time   =      38.39 seconds =       0.64 minutes
	system time =       0.61 seconds =       0.01 minutes
	total time  =         13 seconds =       0.22 minutes
Total time:
	user time   =      38.39 seconds =       0.64 minutes
	system time =       0.61 seconds =       0.01 minutes
	total time  =         13 seconds =       0.22 minutes

*** tstart() called on cx1-27-2-4
*** at Fri Sep  9 20:51:22 2016


         ------------------------------------------------------------
                                   SCF GRAD                          
                          Rob Parrish, Justin Turney,                
                       Andy Simmonett, and Alex Sokolov              
         ------------------------------------------------------------

  ==> Geometry <==

    Molecular point group: c1
    Full point group: C1

    Geometry (in Angstrom), charge = 0, multiplicity = 1:

       Center              X                  Y                   Z               Mass       
    ------------   -----------------  -----------------  -----------------  -----------------
           H          2.708682121230    -0.773048208580    -0.569151469861     1.007825032070
           N          2.327507121230    -0.050587208580    -0.003661469861    14.003074004780
           C          0.935357121230     0.010178791420    -0.003661469861    12.000000000000
           H          2.740476121230    -0.044647208580     0.899911530139     1.007825032070
           C          0.227117121230     0.014521791420    -1.198790469861    12.000000000000
           C          0.227117121230     0.014521791420     1.191467530139    12.000000000000
           H          0.759772121230     0.004159791420    -2.131784469861     1.007825032070
           C         -1.152709878770     0.024739791420    -1.192689469861    12.000000000000
           H          0.759772121230     0.004159791420     2.124461530139     1.007825032070
           C         -1.152709878770     0.024739791420     1.185366530139    12.000000000000
           H         -1.680223878770     0.028562791420    -2.128009469861     1.007825032070
           C         -1.857194878770     0.030273791420    -0.003661469861    12.000000000000
           H         -1.680223878770     0.028562791420     2.120686530139     1.007825032070
           H         -2.929540878770     0.038502791420    -0.003661469861     1.007825032070

  Nuclear repulsion =  273.753798965566887

  ==> Basis Set <==

  Basis Set: CC-PVTZ
    Number of shells: 112
    Number of basis function: 308
    Number of Cartesian functions: 350
    Spherical Harmonics?: true
    Max angular momentum: 3

  ==> DFJKGrad: Density-Fitted SCF Gradients <==

    Gradient:                    1
    J tasked:                  Yes
    K tasked:                  Yes
    wK tasked:                  No
    OpenMP threads:              4
    Integrals threads:           4
    Memory (MB):              1430
    Schwarz Cutoff:          0E+00
    Fitting Condition:       1E-12

   => Auxiliary Basis Set <=

  Basis Set: 
    Number of shells: 245
    Number of basis function: 763
    Number of Cartesian functions: 917
    Spherical Harmonics?: true
    Max angular momentum: 4


  -Total Gradient:
     Atom            X                  Y                   Z
    ------   -----------------  -----------------  -----------------
       1       -0.000336286731    -0.000676355251     0.001293393143
       2       -0.005862009764    -0.006264630506     0.002255651295
       3        0.004679109661     0.009769651665    -0.004107315974
       4        0.001003277672     0.002262900521     0.000133865086
       5       -0.001271432170    -0.000099252354     0.000496390311
       6        0.001038541798    -0.002816408276     0.001824780536
       7       -0.000360533977    -0.000663924823    -0.000666699837
       8       -0.000009296814     0.000255388915     0.000429102140
       9        0.000141661434     0.000733748792    -0.000023932053
      10        0.001698290455    -0.002894439562    -0.000754314012
      11        0.000003950387     0.000060285009    -0.000022939249
      12       -0.000944651586    -0.000030634963    -0.000799114972
      13        0.000189493623     0.000260336482    -0.000000194680
      14        0.000029886010     0.000103334350    -0.000058671732


*** tstop() called on cx1-27-2-4 at Fri Sep  9 20:51:41 2016
Module time:
	user time   =      75.20 seconds =       1.25 minutes
	system time =       0.58 seconds =       0.01 minutes
	total time  =         19 seconds =       0.32 minutes
Total time:
	user time   =     113.61 seconds =       1.89 minutes
	system time =       1.20 seconds =       0.02 minutes
	total time  =         32 seconds =       0.53 minutes
CURRENT ENERGY: -285.8316566731

			-----------------------------------------
			 OPTKING 2.0: for geometry optimizations 
			  - R.A. King,  Bethel University        
			-----------------------------------------

	Internal coordinates to be generated automatically.
	Detected frag with atoms:  1 2 3 4 5 6 7 8 9 10 11 12 13 14
	---Fragment 1 Bond Connectivity---
	 1 : 2
	 2 : 1 3 4
	 3 : 2 5 6
	 4 : 2
	 5 : 3 7 8
	 6 : 3 9 10
	 7 : 5
	 8 : 5 11 12
	 9 : 6
	 10 : 6 12 13
	 11 : 8
	 12 : 8 10 14
	 13 : 10
	 14 : 12

	Assuming in current code that numbering for constraints corresponds to unified fragment.
	Frozen dihedral atom list: 
	     1     2     3     5
	---Fragment 1 Geometry and Gradient---
	 H           5.1186673902       -1.4608494017       -1.0755404062
	 N           4.3983510315       -0.0955959700       -0.0069191753
	 C           1.7675687956        0.0192351281       -0.0069191753
	 H           5.1787493428       -0.0843709968        1.7005863358
	 C           0.4291891592        0.0274422087       -2.2653856788
	 C           0.4291891592        0.0274422087        2.2515473282
	 H           1.4357612325        0.0078608666       -4.0284888224
	 C          -2.1783059815        0.0467514304       -2.2538564596
	 H           1.4357612325        0.0078608666        4.0146504718
	 C          -2.1783059815        0.0467514304        2.2400181091
	 H          -3.1751629728        0.0539758534       -4.0213551062
	 C          -3.5095896963        0.0572091748       -0.0069191753
	 H          -3.1751629728        0.0539758534        4.0075167557
	 H          -5.5360299560        0.0727597311       -0.0069191753
	            -0.0003362867       -0.0006763553        0.0012933931
	            -0.0058620098       -0.0062646305        0.0022556513
	             0.0046791097        0.0097696517       -0.0041073160
	             0.0010032777        0.0022629005        0.0001338651
	            -0.0012714322       -0.0000992524        0.0004963903
	             0.0010385418       -0.0028164083        0.0018247805
	            -0.0003605340       -0.0006639248       -0.0006666998
	            -0.0000092968        0.0002553889        0.0004291021
	             0.0001416614        0.0007337488       -0.0000239321
	             0.0016982905       -0.0028944396       -0.0007543140
	             0.0000039504        0.0000602850       -0.0000229392
	            -0.0009446516       -0.0000306350       -0.0007991150
	             0.0001894936        0.0002603365       -0.0000001947
	             0.0000298860        0.0001033344       -0.0000586717

	Previous optimization step data not found.  Starting new optimization.

	---Fragment 1 Intrafragment Coordinates---
	 - Coordinate -           - BOHR/RAD -       - ANG/DEG -
	 R(1,2)           =         1.877425	       0.993490
	 R(2,3)           =         2.633287	       1.393476
	 R(2,4)           =         1.877424	       0.993490
	 R(3,5)           =         2.625262	       1.389229
	 R(3,6)           =         2.625262	       1.389229
	 R(5,7)           =         2.030296	       1.074387
	 R(5,8)           =         2.607592	       1.379878
	 R(6,9)           =         2.030296	       1.074387
	 R(6,10)          =         2.607592	       1.379878
	 R(8,11)          =         2.029243	       1.073829
	 R(8,12)          =         2.611734	       1.382070
	 R(10,12)         =         2.611734	       1.382070
	 R(10,13)         =         2.029243	       1.073829
	 R(12,14)         =         2.026500	       1.072378
	 B(1,2,3)         =         1.998760	     114.520496
	 B(1,2,4)         =         1.941793	     111.256525
	 B(2,3,5)         =         2.105353	     120.627832
	 B(2,3,6)         =         2.105353	     120.627832
	 B(3,2,4)         =         1.998760	     114.520501
	 B(3,5,7)         =         2.087810	     119.622673
	 B(3,5,8)         =         2.101347	     120.398331
	 B(3,6,9)         =         2.087810	     119.622673
	 B(3,6,10)        =         2.101347	     120.398331
	 B(5,3,6)         =         2.071647	     118.696626
	 B(5,8,11)        =         2.079909	     119.170012
	 B(5,8,12)        =         2.110109	     120.900339
	 B(6,10,12)       =         2.110109	     120.900339
	 B(6,10,13)       =         2.079909	     119.170012
	 B(7,5,8)         =         2.094012	     119.978066
	 B(8,12,10)       =         2.071810	     118.705972
	 B(8,12,14)       =         2.105688	     120.647014
	 B(9,6,10)        =         2.094012	     119.978066
	 B(10,12,14)      =         2.105688	     120.647014
	 B(11,8,12)       =         2.093167	     119.929648
	 B(12,10,13)      =         2.093167	     119.929648
	*D(1,2,3,5)       =        -0.872665	     -50.000024
	 D(1,2,3,6)       =         2.224512	     127.455133
	 D(2,3,5,7)       =        -0.035973	      -2.061125
	 D(2,3,5,8)       =         3.099498	     177.588149
	 D(2,3,6,9)       =         0.035973	       2.061125
	 D(2,3,6,10)      =        -3.099498	    -177.588149
	 D(3,5,8,11)      =         3.140929	     179.961980
	 D(3,5,8,12)      =        -0.000485	      -0.027796
	 D(3,6,10,12)     =         0.000485	       0.027796
	 D(3,6,10,13)     =        -3.140929	    -179.961980
	 D(4,2,3,5)       =         3.137309	     179.754551
	 D(4,2,3,6)       =        -0.048700	      -2.790291
	 D(5,3,6,9)       =         3.133995	     179.564704
	 D(5,3,6,10)      =        -0.001476	      -0.084569
	 D(5,8,12,10)     =        -0.000525	      -0.030053
	 D(5,8,12,14)     =         3.141279	     179.982037
	 D(6,3,5,7)       =        -3.133995	    -179.564704
	 D(6,3,5,8)       =         0.001476	       0.084569
	 D(6,10,12,8)     =         0.000525	       0.030053
	 D(6,10,12,14)    =        -3.141279	    -179.982037
	 D(7,5,8,11)      =        -0.006807	      -0.389994
	 D(7,5,8,12)      =         3.134964	     179.620230
	 D(8,12,10,13)    =        -3.141248	    -179.980248
	 D(9,6,10,12)     =        -3.134964	    -179.620230
	 D(9,6,10,13)     =         0.006807	       0.389994
	 D(10,12,8,11)    =         3.141248	     179.980248
	 D(11,8,12,14)    =        -0.000134	      -0.007661
	 D(13,10,12,14)   =         0.000134	       0.007661

	Current energy   :      -285.8316566731

	Generating empirical Hessian (Schlegel '84) for each fragment.
	Taking RFO optimization step.
	Going to follow RFO solution 1.
	Using RFO vector 1.
	Norm of target step-size    0.32636
	Projected energy change by RFO approximation:        -0.0011368949

	Back-transformation to cartesian coordinates...
	Successfully converged to displaced geometry.

	Back-transformation to cartesian coordinates to adjust frozen coordinates...
	Successfully converged to displaced geometry.

	--- Internal Coordinate Step in ANG or DEG, aJ/ANG or AJ/DEG ---
	 ---------------------------------------------------------------------------
	   Coordinate                Previous        Force       Change         New 
	   ----------                --------       ------       ------       ------
	    1 R(1,2)          =      0.993490     0.003076     0.000403     0.993893
	    2 R(2,3)          =      1.393476     0.041079     0.005621     1.399096
	    3 R(2,4)          =      0.993490    -0.004550    -0.000596     0.992895
	    4 R(3,5)          =      1.389229    -0.008676    -0.001094     1.388134
	    5 R(3,6)          =      1.389229     0.003492     0.000593     1.389822
	    6 R(5,7)          =      1.074387    -0.003350    -0.000583     1.073804
	    7 R(5,8)          =      1.379878     0.000786     0.000062     1.379941
	    8 R(6,9)          =      1.074387    -0.000349    -0.000061     1.074326
	    9 R(6,10)         =      1.379878     0.007290     0.000993     1.380871
	   10 R(8,11)         =      1.073829    -0.000150    -0.000026     1.073803
	   11 R(8,12)         =      1.382070     0.004341     0.000446     1.382516
	   12 R(10,12)        =      1.382070    -0.006446    -0.000929     1.381141
	   13 R(10,13)        =      1.073829     0.000761     0.000132     1.073961
	   14 R(12,14)        =      1.072378     0.000240     0.000041     1.072419
	   15 B(1,2,3)        =    114.520496     0.000029    -0.234837   114.285659
	   16 B(1,2,4)        =    111.256525     0.000008    -0.518203   110.738322
	   17 B(2,3,5)        =    120.627832    -0.000326    -1.038536   119.589296
	   18 B(2,3,6)        =    120.627832     0.000362     1.002689   121.630521
	   19 B(3,2,4)        =    114.520501    -0.000100    -0.836775   113.683725
	   20 B(3,5,7)        =    119.622673    -0.000056    -0.247447   119.375226
	   21 B(3,5,8)        =    120.398331     0.000014     0.031412   120.429743
	   22 B(3,6,9)        =    119.622673    -0.000018    -0.055465   119.567209
	   23 B(3,6,10)       =    120.398331     0.000055     0.200121   120.598452
	   24 B(5,3,6)        =    118.696626    -0.000029    -0.136062   118.560564
	   25 B(5,8,11)       =    119.170012     0.000001     0.005430   119.175442
	   26 B(5,8,12)       =    120.900339     0.000001    -0.013510   120.886830
	   27 B(6,10,12)      =    120.900339    -0.000071    -0.227297   120.673042
	   28 B(6,10,13)      =    119.170012     0.000048     0.167082   119.337094
	   29 B(7,5,8)        =    119.978066     0.000043     0.214543   120.192610
	   30 B(8,12,10)      =    118.705972     0.000030     0.102123   118.808095
	   31 B(8,12,14)      =    120.647014    -0.000011    -0.031471   120.615542
	   32 B(9,6,10)       =    119.978066    -0.000037    -0.146994   119.831072
	   33 B(10,12,14)     =    120.647014    -0.000020    -0.073501   120.573512
	   34 B(11,8,12)      =    119.929648    -0.000001    -0.004604   119.925044
	   35 B(12,10,13)     =    119.929648     0.000023     0.050377   119.980025
	   36 *D(1,2,3,5)     =    -50.000024    -0.000000     0.000000   -50.000024
	   37 D(1,2,3,6)      =    127.455133     0.000044     8.007925   135.463058
	   38 D(2,3,5,7)      =     -2.061125     0.000027     4.664089     2.602964
	   39 D(2,3,5,8)      =    177.588149     0.000034     5.579721   183.167871
	   40 D(2,3,6,9)      =      2.061125    -0.000034    -6.164032    -4.102908
	   41 D(2,3,6,10)     =   -177.588149    -0.000041    -7.173410  -184.761559
	   42 D(3,5,8,11)     =    179.961980     0.000003     0.607842   180.569822
	   43 D(3,5,8,12)     =     -0.027796     0.000012     1.894234     1.866438
	   44 D(3,6,10,12)    =      0.027796     0.000010     1.104579     1.132375
	   45 D(3,6,10,13)    =   -179.961980     0.000001    -0.046897  -180.008877
	   46 D(4,2,3,5)      =    179.754551     0.000013     1.774052   181.528603
	   47 D(4,2,3,6)      =     -2.790291     0.000057     9.781977     6.991686
	   48 D(5,3,6,9)      =    179.564704     0.000007     1.741038   181.305743
	   49 D(5,3,6,10)     =     -0.084569     0.000000     0.731660     0.647091
	   50 D(5,8,12,10)    =     -0.030053    -0.000002    -0.043791    -0.073844
	   51 D(5,8,12,14)    =    179.982037    -0.000005    -0.666600   179.315437
	   52 D(6,3,5,7)      =   -179.564704    -0.000018    -3.127832  -182.692536
	   53 D(6,3,5,8)      =      0.084569    -0.000011    -2.212199    -2.127630
	   54 D(6,10,12,8)    =      0.030053    -0.000009    -1.447469    -1.417415
	   55 D(6,10,12,14)   =   -179.982037    -0.000006    -0.824925  -180.806962
	   56 D(7,5,8,11)     =     -0.389994     0.000010     1.529354     1.139360
	   57 D(7,5,8,12)     =    179.620230     0.000019     2.815746   182.435976
	   58 D(8,12,10,13)   =   -179.980248    -0.000000    -0.288598  -180.268846
	   59 D(9,6,10,12)    =   -179.620230     0.000003     0.092221  -179.528009
	   60 D(9,6,10,13)    =      0.389994    -0.000006    -1.059256    -0.669261
	   61 D(10,12,8,11)   =    179.980248     0.000007     1.252179   181.232427
	   62 D(11,8,12,14)   =     -0.007661     0.000004     0.629370     0.621709
	   63 D(13,10,12,14)  =      0.007661     0.000003     0.333946     0.341607
	 ---------------------------------------------------------------------------

  ==> Convergence Check <==

  Measures of convergence in internal coordinates in au.
  Criteria marked as inactive (o), active & met (*), and active & unmet ( ).
  --------------------------------------------------------------------------------------------- ~
   Step     Total Energy     Delta E     MAX Force     RMS Force      MAX Disp      RMS Disp    ~
  --------------------------------------------------------------------------------------------- ~
    Convergence Criteria    1.00e-06 *    3.00e-04 *             o    1.20e-03 *             o  ~
  --------------------------------------------------------------------------------------------- ~
      1    -285.83165667   -2.86e+02      4.99e-03      1.34e-03 o    1.71e-01      4.11e-02 o  ~
  ---------------------------------------------------------------------------------------------

	Writing optimization data to binary file.
	Structure for next step:
	Cartesian Geometry (in Angstrom)
	    H     2.7484884210  -0.6757893140  -0.6267160981
	    N     2.3294789659  -0.0197543426  -0.0087576098
	    C     0.9310207205  -0.0580275074   0.0091339515
	    H     2.7414994122  -0.0733845954   0.8930200472
	    C     0.2290090369  -0.0232347727  -1.1878982612
	    C     0.2159455147  -0.0177099755   1.2002035067
	    H     0.7698051929  -0.0097608377  -2.1154823250
	    C    -1.1506290015   0.0056649932  -1.1884492777
	    H     0.7438407176  -0.0224781665   2.1358744259
	    C    -1.1635992100   0.0419593956   1.1901334991
	    H    -1.6734690915   0.0230262546  -2.1262072600
	    C    -1.8602606266   0.0392741450  -0.0024292722
	    H    -1.6957877685   0.0721803562   2.1224720425
	    H    -2.9321445687   0.0726753978  -0.0080749251
			--------------------------
			 OPTKING Finished Execution 
			--------------------------

    Structure for next step:
    Molecular point group: c1
    Full point group: C1

    Geometry (in Angstrom), charge = 0, multiplicity = 1:

    H            2.751223811725    -0.664615160309    -0.631043822367
    N            2.332214388711    -0.008580239008    -0.013085381249
    C            0.933756250045    -0.046853400916     0.004806178742
    H            2.744234803518    -0.062210487747     0.888692206942
    C            0.231744620116    -0.012060668805    -1.192225942583
    C            0.218681098846    -0.006535872098     1.195875642905
    H            0.772540734817     0.001413265108    -2.119809935579
    C           -1.147893312936     0.016839094884    -1.192776959064
    H            0.746576261414    -0.011304062676     2.131546490726
    C           -1.160863520435     0.053133494523     1.185805636143
    H           -1.670733363000     0.034200354949    -2.130534869701
    C           -1.857524883905     0.050448244080    -0.006757044130
    H           -1.693052038359     0.083354452810     2.118144108268
    H           -2.929408744110     0.083849494346    -0.012402696634

gradient() will perform analytic gradient computation.

*** tstart() called on cx1-27-2-4
*** at Fri Sep  9 20:51:42 2016


         ---------------------------------------------------------
                                   SCF
            by Justin Turney, Rob Parrish, and Andy Simmonett
                              RHF Reference
                        4 Threads,   2000 MiB Core
         ---------------------------------------------------------

  ==> Geometry <==

    Molecular point group: c1
    Full point group: C1

    Geometry (in Angstrom), charge = 0, multiplicity = 1:

       Center              X                  Y                   Z               Mass       
    ------------   -----------------  -----------------  -----------------  -----------------
           H          2.751223811725    -0.664615160309    -0.631043822367     1.007825032070
           N          2.332214388711    -0.008580239008    -0.013085381249    14.003074004780
           C          0.933756250045    -0.046853400916     0.004806178742    12.000000000000
           H          2.744234803518    -0.062210487747     0.888692206942     1.007825032070
           C          0.231744620116    -0.012060668805    -1.192225942583    12.000000000000
           C          0.218681098846    -0.006535872098     1.195875642905    12.000000000000
           H          0.772540734817     0.001413265108    -2.119809935579     1.007825032070
           C         -1.147893312936     0.016839094884    -1.192776959064    12.000000000000
           H          0.746576261414    -0.011304062676     2.131546490726     1.007825032070
           C         -1.160863520435     0.053133494523     1.185805636143    12.000000000000
           H         -1.670733363000     0.034200354949    -2.130534869701     1.007825032070
           C         -1.857524883905     0.050448244080    -0.006757044130    12.000000000000
           H         -1.693052038359     0.083354452810     2.118144108268     1.007825032070
           H         -2.929408744110     0.083849494346    -0.012402696634     1.007825032070

  Running in c1 symmetry.

  Rotational constants: A =      0.19161  B =      0.08756  C =      0.06027 [cm^-1]
  Rotational constants: A =   5744.41199  B =   2625.11599  C =   1806.84745 [MHz]
  Nuclear repulsion =  273.607291204281466

  Charge       = 0
  Multiplicity = 1
  Electrons    = 50
  Nalpha       = 25
  Nbeta        = 25

  ==> Algorithm <==

  SCF Algorithm Type is DF.
  DIIS enabled.
  MOM disabled.
  Fractional occupation disabled.
  Guess Type is READ.
  Energy threshold   = 1.00e-08
  Density threshold  = 1.00e-08
  Integral threshold = 0.00e+00

  ==> Primary Basis <==

  Basis Set: CC-PVTZ
    Number of shells: 112
    Number of basis function: 308
    Number of Cartesian functions: 350
    Spherical Harmonics?: true
    Max angular momentum: 3

  ==> Pre-Iterations <==

   -------------------------------------------------------
    Irrep   Nso     Nmo     Nalpha   Nbeta   Ndocc  Nsocc
   -------------------------------------------------------
     A        308     308       0       0       0       0
   -------------------------------------------------------
    Total     308     308      25      25      25       0
   -------------------------------------------------------

 OEINTS: Overlap, kinetic, potential, dipole, and quadrupole integrals
         stored in file 35.

  ==> Integral Setup <==

  ==> DFJK: Density-Fitted J/K Matrices <==

    J tasked:                  Yes
    K tasked:                  Yes
    wK tasked:                  No
    OpenMP threads:              4
    Integrals threads:           4
    Memory (MB):              1430
    Algorithm:                Core
    Integral Cache:           NONE
    Schwarz Cutoff:          1E-12
    Fitting Condition:       1E-12

   => Auxiliary Basis Set <=

  Basis Set: 
    Number of shells: 245
    Number of basis function: 763
    Number of Cartesian functions: 917
    Spherical Harmonics?: true
    Max angular momentum: 4

  Minimum eigenvalue in the overlap matrix is 3.6125472195E-05.
  Using Symmetric Orthogonalization.
  SCF Guess: Reading in previously saved MOs, projecting if necessary.

  Using orbitals from previous SCF, no projection.
  Recomputing DOCC and SOCC from number of alpha and beta electrons from previous calculation.
              A 
    DOCC [    25 ]

  ==> Iterations <==

                           Total Energy        Delta E     RMS |[F,P]|

   @DF-RHF iter   0:  -285.81783601512240   -2.85818e+02   4.88054e-04 
   @DF-RHF iter   1:  -285.83186601163032   -1.40300e-02   8.54695e-05 
   @DF-RHF iter   2:  -285.83239455747429   -5.28546e-04   4.25788e-05 DIIS
   @DF-RHF iter   3:  -285.83249727784784   -1.02720e-04   1.71961e-05 DIIS
   @DF-RHF iter   4:  -285.83252765700325   -3.03792e-05   4.07545e-06 DIIS
   @DF-RHF iter   5:  -285.83252940916628   -1.75216e-06   1.74916e-06 DIIS
   @DF-RHF iter   6:  -285.83252976154910   -3.52383e-07   5.24238e-07 DIIS
   @DF-RHF iter   7:  -285.83252980448532   -4.29362e-08   1.83631e-07 DIIS
   @DF-RHF iter   8:  -285.83252981038225   -5.89694e-09   8.80178e-08 DIIS
   @DF-RHF iter   9:  -285.83252981227002   -1.88777e-09   3.84593e-08 DIIS
   @DF-RHF iter  10:  -285.83252981272341   -4.53383e-10   1.47089e-08 DIIS
   @DF-RHF iter  11:  -285.83252981276377   -4.03588e-11   5.59447e-09 DIIS

  ==> Post-Iterations <==

    Orbital Energies (a.u.)
    -----------------------

    Doubly Occupied:                                                      

       1A    -15.554089     2A    -11.269175     3A    -11.227377  
       4A    -11.226836     5A    -11.217561     6A    -11.215498  
       7A    -11.213071     8A     -1.224569     9A     -1.130945  
      10A     -1.013625    11A     -0.988471    12A     -0.832383  
      13A     -0.813074    14A     -0.707614    15A     -0.685759  
      16A     -0.653760    17A     -0.604020    18A     -0.595262  
      19A     -0.582410    20A     -0.527898    21A     -0.506359  
      22A     -0.488303    23A     -0.445679    24A     -0.336037  
      25A     -0.298612  

    Virtual:                                                              

      26A      0.131600    27A      0.142723    28A      0.150575  
      29A      0.158341    30A      0.167738    31A      0.193403  
      32A      0.195617    33A      0.223708    34A      0.243993  
      35A      0.339860    36A      0.344869    37A      0.375140  
      38A      0.376646    39A      0.408237    40A      0.414305  
      41A      0.438382    42A      0.467521    43A      0.471695  
      44A      0.483049    45A      0.490257    46A      0.498360  
      47A      0.521007    48A      0.526782    49A      0.553319  
      50A      0.568517    51A      0.576152    52A      0.584978  
      53A      0.596440    54A      0.601970    55A      0.612473  
      56A      0.614775    57A      0.630861    58A      0.637691  
      59A      0.650024    60A      0.660189    61A      0.666103  
      62A      0.670580    63A      0.694894    64A      0.704781  
      65A      0.718645    66A      0.741902    67A      0.749104  
      68A      0.766221    69A      0.817605    70A      0.831557  
      71A      0.860397    72A      0.866852    73A      0.888383  
      74A      0.903456    75A      0.933918    76A      0.964096  
      77A      0.971918    78A      0.993324    79A      0.995645  
      80A      1.024209    81A      1.037847    82A      1.054486  
      83A      1.071081    84A      1.100372    85A      1.105497  
      86A      1.133675    87A      1.155778    88A      1.171507  
      89A      1.202371    90A      1.227047    91A      1.231991  
      92A      1.253850    93A      1.269545    94A      1.284214  
      95A      1.300040    96A      1.322350    97A      1.348611  
      98A      1.365554    99A      1.397442   100A      1.403860  
     101A      1.417744   102A      1.459491   103A      1.480283  
     104A      1.513100   105A      1.519788   106A      1.527296  
     107A      1.545249   108A      1.567532   109A      1.587600  
     110A      1.591039   111A      1.597920   112A      1.610403  
     113A      1.616608   114A      1.635274   115A      1.647561  
     116A      1.692271   117A      1.750814   118A      1.755483  
     119A      1.759130   120A      1.775776   121A      1.796373  
     122A      1.883614   123A      1.930023   124A      1.961478  
     125A      1.990070   126A      2.012896   127A      2.055734  
     128A      2.131558   129A      2.205349   130A      2.235698  
     131A      2.302907   132A      2.346103   133A      2.350596  
     134A      2.380192   135A      2.452507   136A      2.473113  
     137A      2.483989   138A      2.530096   139A      2.546082  
     140A      2.556627   141A      2.569849   142A      2.602645  
     143A      2.626880   144A      2.696538   145A      2.745813  
     146A      2.761862   147A      2.793059   148A      2.810050  
     149A      2.847248   150A      2.858719   151A      2.866667  
     152A      2.891718   153A      2.941037   154A      2.944909  
     155A      2.977461   156A      2.988052   157A      3.003700  
     158A      3.015768   159A      3.039871   160A      3.046025  
     161A      3.060011   162A      3.074979   163A      3.113247  
     164A      3.145203   165A      3.160678   166A      3.172310  
     167A      3.187825   168A      3.235980   169A      3.253662  
     170A      3.267868   171A      3.283642   172A      3.312925  
     173A      3.316684   174A      3.345116   175A      3.355848  
     176A      3.383085   177A      3.393907   178A      3.404406  
     179A      3.407565   180A      3.416757   181A      3.423462  
     182A      3.435682   183A      3.440894   184A      3.441952  
     185A      3.450434   186A      3.463891   187A      3.475367  
     188A      3.493540   189A      3.506718   190A      3.579490  
     191A      3.590874   192A      3.626797   193A      3.639988  
     194A      3.652908   195A      3.659173   196A      3.679315  
     197A      3.697258   198A      3.707756   199A      3.713580  
     200A      3.718313   201A      3.740279   202A      3.746035  
     203A      3.770520   204A      3.787539   205A      3.796429  
     206A      3.870729   207A      3.889052   208A      3.909352  
     209A      3.953871   210A      3.960202   211A      3.998587  
     212A      4.013086   213A      4.040397   214A      4.064840  
     215A      4.101167   216A      4.112401   217A      4.121843  
     218A      4.133594   219A      4.154361   220A      4.157172  
     221A      4.160509   222A      4.170144   223A      4.176549  
     224A      4.178032   225A      4.193551   226A      4.208109  
     227A      4.220181   228A      4.237202   229A      4.286095  
     230A      4.322292   231A      4.336175   232A      4.358485  
     233A      4.377153   234A      4.394467   235A      4.434626  
     236A      4.459758   237A      4.468982   238A      4.488782  
     239A      4.502717   240A      4.521424   241A      4.526994  
     242A      4.570751   243A      4.575025   244A      4.598509  
     245A      4.614997   246A      4.641551   247A      4.674805  
     248A      4.695454   249A      4.700035   250A      4.704465  
     251A      4.715095   252A      4.719691   253A      4.728031  
     254A      4.751491   255A      4.789655   256A      4.832504  
     257A      4.917088   258A      4.946464   259A      4.999813  
     260A      5.053678   261A      5.083838   262A      5.086359  
     263A      5.096231   264A      5.119925   265A      5.162207  
     266A      5.184647   267A      5.237935   268A      5.257285  
     269A      5.270579   270A      5.330075   271A      5.370711  
     272A      5.392508   273A      5.404044   274A      5.415201  
     275A      5.441246   276A      5.494766   277A      5.505660  
     278A      5.533579   279A      5.594434   280A      5.641133  
     281A      5.752680   282A      5.785043   283A      5.849337  
     284A      5.956090   285A      5.983109   286A      6.021325  
     287A      6.137613   288A      6.153456   289A      6.218489  
     290A      6.246006   291A      6.334966   292A      6.363452  
     293A      6.387463   294A      6.467548   295A      6.562941  
     296A      6.609074   297A      6.705326   298A      6.815081  
     299A      7.012148   300A      7.299385   301A      7.418628  
     302A      9.340388   303A     13.090001   304A     13.547434  
     305A     13.789570   306A     14.118937   307A     14.586567  
     308A     16.514302  

    Final Occupation by Irrep:
              A 
    DOCC [    25 ]

  Energy converged.

  @DF-RHF Final Energy:  -285.83252981276377

   => Energetics <=

    Nuclear Repulsion Energy =            273.6072912042814664
    One-Electron Energy =                -928.1628680638369815
    Two-Electron Energy =                 368.7230470467916916
    DFT Exchange-Correlation Energy =       0.0000000000000000
    Empirical Dispersion Energy =           0.0000000000000000
    PCM Polarization Energy =               0.0000000000000000
    EFP Energy =                            0.0000000000000000
    Total Energy =                       -285.8325298127637666

    Alert: EFP and PCM quantities not currently incorporated into SCF psivars.

Properties will be evaluated at   0.000000,   0.000000,   0.000000 Bohr
  ==> Properties <==


Properties computed using the SCF density matrix

  Nuclear Dipole Moment: (a.u.)
     X:     0.6695      Y:    -0.5018      Z:     0.2293

  Electronic Dipole Moment: (a.u.)
     X:    -0.3329      Y:     0.1104      Z:    -0.0866

  Dipole Moment: (a.u.)
     X:     0.3366      Y:    -0.3914      Z:     0.1428     Total:     0.5356

  Dipole Moment: (Debye)
     X:     0.8556      Y:    -0.9949      Z:     0.3629     Total:     1.3614


  Saving occupied orbitals to File 180.

*** tstop() called on cx1-27-2-4 at Fri Sep  9 20:51:52 2016
Module time:
	user time   =      31.82 seconds =       0.53 minutes
	system time =       0.51 seconds =       0.01 minutes
	total time  =         10 seconds =       0.17 minutes
Total time:
	user time   =     146.56 seconds =       2.44 minutes
	system time =       1.76 seconds =       0.03 minutes
	total time  =         43 seconds =       0.72 minutes

*** tstart() called on cx1-27-2-4
*** at Fri Sep  9 20:51:52 2016


         ------------------------------------------------------------
                                   SCF GRAD                          
                          Rob Parrish, Justin Turney,                
                       Andy Simmonett, and Alex Sokolov              
         ------------------------------------------------------------

  ==> Geometry <==

    Molecular point group: c1
    Full point group: C1

    Geometry (in Angstrom), charge = 0, multiplicity = 1:

       Center              X                  Y                   Z               Mass       
    ------------   -----------------  -----------------  -----------------  -----------------
           H          2.751223811725    -0.664615160309    -0.631043822367     1.007825032070
           N          2.332214388711    -0.008580239008    -0.013085381249    14.003074004780
           C          0.933756250045    -0.046853400916     0.004806178742    12.000000000000
           H          2.744234803518    -0.062210487747     0.888692206942     1.007825032070
           C          0.231744620116    -0.012060668805    -1.192225942583    12.000000000000
           C          0.218681098846    -0.006535872098     1.195875642905    12.000000000000
           H          0.772540734817     0.001413265108    -2.119809935579     1.007825032070
           C         -1.147893312936     0.016839094884    -1.192776959064    12.000000000000
           H          0.746576261414    -0.011304062676     2.131546490726     1.007825032070
           C         -1.160863520435     0.053133494523     1.185805636143    12.000000000000
           H         -1.670733363000     0.034200354949    -2.130534869701     1.007825032070
           C         -1.857524883905     0.050448244080    -0.006757044130    12.000000000000
           H         -1.693052038359     0.083354452810     2.118144108268     1.007825032070
           H         -2.929408744110     0.083849494346    -0.012402696634     1.007825032070

  Nuclear repulsion =  273.607291204281466

  ==> Basis Set <==

  Basis Set: CC-PVTZ
    Number of shells: 112
    Number of basis function: 308
    Number of Cartesian functions: 350
    Spherical Harmonics?: true
    Max angular momentum: 3

  ==> DFJKGrad: Density-Fitted SCF Gradients <==

    Gradient:                    1
    J tasked:                  Yes
    K tasked:                  Yes
    wK tasked:                  No
    OpenMP threads:              4
    Integrals threads:           4
    Memory (MB):              1430
    Schwarz Cutoff:          0E+00
    Fitting Condition:       1E-12

   => Auxiliary Basis Set <=

  Basis Set: 
    Number of shells: 245
    Number of basis function: 763
    Number of Cartesian functions: 917
    Spherical Harmonics?: true
    Max angular momentum: 4


  -Total Gradient:
     Atom            X                  Y                   Z
    ------   -----------------  -----------------  -----------------
       1       -0.000250642679    -0.000339690297     0.001366141255
       2        0.000635615780     0.000818159050    -0.002179041282
       3        0.001716777978    -0.006806666208    -0.000880532479
       4       -0.000747119046     0.001760747997    -0.000798766329
       5        0.001639022595     0.003339941916     0.000799741757
       6       -0.002639232920    -0.000193456792     0.000867372164
       7        0.000050274362     0.000271566386     0.000094220208
       8       -0.000851019309    -0.000335915157     0.000906870242
       9       -0.000061298265     0.000251456917    -0.000244432700
      10        0.000591728444     0.002015503491     0.000669437093
      11        0.000095114585     0.000181930266    -0.000037161910
      12        0.000011230202    -0.000577848746    -0.000736411776
      13       -0.000244738017    -0.000318368735     0.000086967769
      14        0.000054286289    -0.000067360090     0.000085595988


*** tstop() called on cx1-27-2-4 at Fri Sep  9 20:52:11 2016
Module time:
	user time   =      72.61 seconds =       1.21 minutes
	system time =       0.78 seconds =       0.01 minutes
	total time  =         19 seconds =       0.32 minutes
Total time:
	user time   =     219.20 seconds =       3.65 minutes
	system time =       2.54 seconds =       0.04 minutes
	total time  =         62 seconds =       1.03 minutes
CURRENT ENERGY: -285.8325298128

			-----------------------------------------
			 OPTKING 2.0: for geometry optimizations 
			  - R.A. King,  Bethel University        
			-----------------------------------------

	Previous internal coordinate definitions found.
	---Fragment 1 Geometry and Gradient---
	 H           5.1990595344       -1.2559406367       -1.1925000021
	 N           4.4072464778       -0.0162143019       -0.0247277869
	 C           1.7645435875       -0.0885400961        0.0090823616
	 H           5.1858522230       -0.1175607844        1.6793848876
	 C           0.4379338648       -0.0227913610       -2.2529805200
	 C           0.4132473873       -0.0123510083        2.2598774541
	 H           1.4598904153        0.0026706840       -4.0058602320
	 C          -2.1692039912        0.0318212777       -2.2540217902
	 H           1.4108246714       -0.0213615826        4.0280391070
	 C          -2.1937141313        0.1004077531        2.2408478991
	 H          -3.1572284971        0.0646293045       -4.0261274203
	 C          -3.5102133156        0.0953333652       -0.0127689629
	 H          -3.1994046812        0.1575170878        4.0027122746
	 H          -5.5357802576        0.1584525807       -0.0234376999
	            -0.0002506427       -0.0003396903        0.0013661413
	             0.0006356158        0.0008181591       -0.0021790413
	             0.0017167780       -0.0068066662       -0.0008805325
	            -0.0007471190        0.0017607480       -0.0007987663
	             0.0016390226        0.0033399419        0.0007997418
	            -0.0026392329       -0.0001934568        0.0008673722
	             0.0000502744        0.0002715664        0.0000942202
	            -0.0008510193       -0.0003359152        0.0009068702
	            -0.0000612983        0.0002514569       -0.0002444327
	             0.0005917284        0.0020155035        0.0006694371
	             0.0000951146        0.0001819303       -0.0000371619
	             0.0000112302       -0.0005778487       -0.0007364118
	            -0.0002447380       -0.0003183687        0.0000869678
	             0.0000542863       -0.0000673601        0.0000855960

	---Fragment 1 Intrafragment Coordinates---
	 - Coordinate -           - BOHR/RAD -       - ANG/DEG -
	 R(1,2)           =         1.878186	       0.993893
	 R(2,3)           =         2.643909	       1.399096
	 R(2,4)           =         1.876299	       0.992895
	 R(3,5)           =         2.623194	       1.388134
	 R(3,6)           =         2.626382	       1.389822
	 R(5,7)           =         2.029195	       1.073804
	 R(5,8)           =         2.607710	       1.379941
	 R(6,9)           =         2.030182	       1.074326
	 R(6,10)          =         2.609468	       1.380871
	 R(8,11)          =         2.029194	       1.073803
	 R(8,12)          =         2.612576	       1.382516
	 R(10,12)         =         2.609978	       1.381141
	 R(10,13)         =         2.029493	       1.073961
	 R(12,14)         =         2.026578	       1.072419
	 B(1,2,3)         =         1.994661	     114.285659
	 B(1,2,4)         =         1.932748	     110.738322
	 B(2,3,5)         =         2.087227	     119.589296
	 B(2,3,6)         =         2.122853	     121.630521
	 B(3,2,4)         =         1.984155	     113.683725
	 B(3,5,7)         =         2.083491	     119.375226
	 B(3,5,8)         =         2.101896	     120.429743
	 B(3,6,9)         =         2.086841	     119.567209
	 B(3,6,10)        =         2.104840	     120.598452
	 B(5,3,6)         =         2.069272	     118.560564
	 B(5,8,11)        =         2.080004	     119.175442
	 B(5,8,12)        =         2.109873	     120.886830
	 B(6,10,12)       =         2.106142	     120.673042
	 B(6,10,13)       =         2.082825	     119.337094
	 B(7,5,8)         =         2.097757	     120.192610
	 B(8,12,10)       =         2.073592	     118.808095
	 B(8,12,14)       =         2.105138	     120.615542
	 B(9,6,10)        =         2.091447	     119.831072
	 B(10,12,14)      =         2.104405	     120.573512
	 B(11,8,12)       =         2.093087	     119.925044
	 B(12,10,13)      =         2.094046	     119.980025
	*D(1,2,3,5)       =        -0.872665	     -50.000024
	 D(1,2,3,6)       =         2.364276	     135.463058
	 D(2,3,5,7)       =         0.045430	       2.602964
	 D(2,3,5,8)       =        -3.086303	    -176.832129
	 D(2,3,6,9)       =        -0.071609	      -4.102908
	 D(2,3,6,10)      =         3.058488	     175.238441
	 D(3,5,8,11)      =        -3.131647	    -179.430178
	 D(3,5,8,12)      =         0.032575	       1.866438
	 D(3,6,10,12)     =         0.019764	       1.132375
	 D(3,6,10,13)     =         3.141438	     179.991123
	 D(4,2,3,5)       =        -3.114913	    -178.471397
	 D(4,2,3,6)       =         0.122028	       6.991686
	 D(5,3,6,9)       =        -3.118803	    -178.694257
	 D(5,3,6,10)      =         0.011294	       0.647091
	 D(5,8,12,10)     =        -0.001289	      -0.073844
	 D(5,8,12,14)     =         3.129645	     179.315437
	 D(6,3,5,7)       =         3.094599	     177.307464
	 D(6,3,5,8)       =        -0.037134	      -2.127630
	 D(6,10,12,8)     =        -0.024739	      -1.417415
	 D(6,10,12,14)    =         3.127509	     179.193038
	 D(7,5,8,11)      =         0.019886	       1.139360
	 D(7,5,8,12)      =        -3.099077	    -177.564024
	 D(8,12,10,13)    =         3.136900	     179.731154
	 D(9,6,10,12)     =        -3.133355	    -179.528009
	 D(9,6,10,13)     =        -0.011681	      -0.669261
	 D(10,12,8,11)    =        -3.120083	    -178.767573
	 D(11,8,12,14)    =         0.010851	       0.621709
	 D(13,10,12,14)   =         0.005962	       0.341607

	Current energy   :      -285.8325298128

	Energy change for the previous step:
		Projected    :        -0.0011368949
		Actual       :        -0.0008731397
	Energy ratio indicates good step: Trust radius increased to 1.000e+00.


	Performing BFGS update.
	Previous computed or guess Hessian on step 1.
	Steps to be used in Hessian update: 1
	Taking RFO optimization step.
	Going to follow RFO solution 1.
	Using RFO vector 1.
	Norm of target step-size    0.08529
	Projected energy change by RFO approximation:        -0.0009205634

	Back-transformation to cartesian coordinates...
	Successfully converged to displaced geometry.

	Back-transformation to cartesian coordinates to adjust frozen coordinates...
	Successfully converged to displaced geometry.

	--- Internal Coordinate Step in ANG or DEG, aJ/ANG or AJ/DEG ---
	 ---------------------------------------------------------------------------
	   Coordinate                Previous        Force       Change         New 
	   ----------                --------       ------       ------       ------
	    1 R(1,2)          =      0.993893     0.006021     0.000687     0.994580
	    2 R(2,3)          =      1.399096     0.002308     0.000789     1.399886
	    3 R(2,4)          =      0.992895     0.009315     0.000948     0.993842
	    4 R(3,5)          =      1.388134     0.011906     0.001160     1.389294
	    5 R(3,6)          =      1.389822    -0.018376    -0.002077     1.387744
	    6 R(5,7)          =      1.073804     0.000434     0.000007     1.073811
	    7 R(5,8)          =      1.379941    -0.006686    -0.000674     1.379266
	    8 R(6,9)          =      1.074326     0.002011     0.000283     1.074609
	    9 R(6,10)         =      1.380871     0.003552     0.000439     1.381310
	   10 R(8,11)         =      1.073803     0.000090     0.000010     1.073814
	   11 R(8,12)         =      1.382516     0.003274     0.000491     1.383006
	   12 R(10,12)        =      1.381141    -0.000575    -0.000091     1.381050
	   13 R(10,13)        =      1.073961    -0.001547    -0.000209     1.073752
	   14 R(12,14)        =      1.072419     0.000468     0.000071     1.072490
	   15 B(1,2,3)        =    114.285659    -0.000044    -0.730305   113.555354
	   16 B(1,2,4)        =    110.738322    -0.000063    -1.101100   109.637223
	   17 B(2,3,5)        =    119.589296     0.000096     0.184163   119.773459
	   18 B(2,3,6)        =    121.630521    -0.000136    -0.199410   121.431111
	   19 B(3,2,4)        =    113.683725    -0.000004    -0.634297   113.049428
	   20 B(3,5,7)        =    119.375226     0.000006    -0.001899   119.373327
	   21 B(3,5,8)        =    120.429743     0.000000     0.007136   120.436879
	   22 B(3,6,9)        =    119.567209     0.000026     0.081511   119.648720
	   23 B(3,6,10)       =    120.598452    -0.000043    -0.118336   120.480116
	   24 B(5,3,6)        =    118.560564     0.000048     0.128060   118.688624
	   25 B(5,8,11)       =    119.175442     0.000027     0.076128   119.251569
	   26 B(5,8,12)       =    120.886830    -0.000039    -0.090079   120.796750
	   27 B(6,10,12)      =    120.673042     0.000034     0.072605   120.745647
	   28 B(6,10,13)      =    119.337094    -0.000029    -0.073542   119.263553
	   29 B(7,5,8)        =    120.192610    -0.000007    -0.006418   120.186192
	   30 B(8,12,10)      =    118.808095     0.000002     0.031880   118.839975
	   31 B(8,12,14)      =    120.615542    -0.000007    -0.037522   120.578020
	   32 B(9,6,10)       =    119.831072     0.000017     0.040083   119.871155
	   33 B(10,12,14)     =    120.573512     0.000006     0.008451   120.581963
	   34 B(11,8,12)      =    119.925044     0.000013     0.020946   119.945990
	   35 B(12,10,13)     =    119.980025    -0.000004     0.009935   119.989960
	   36 *D(1,2,3,5)     =    -50.000024     0.000000     0.000000   -50.000024
	   37 D(1,2,3,6)      =    135.463058    -0.000021    -1.655910   133.807148
	   38 D(2,3,5,7)      =      2.602964    -0.000009    -0.721692     1.881272
	   39 D(2,3,5,8)      =   -176.832129    -0.000008    -0.597543  -177.429673
	   40 D(2,3,6,9)      =     -4.102908     0.000011     0.588196    -3.514712
	   41 D(2,3,6,10)     =    175.238441     0.000017     1.281980   176.520421
	   42 D(3,5,8,11)     =   -179.430178    -0.000002    -0.214848  -179.645027
	   43 D(3,5,8,12)     =      1.866438    -0.000007    -0.643237     1.223201
	   44 D(3,6,10,12)    =      1.132375    -0.000006    -0.646274     0.486101
	   45 D(3,6,10,13)    =    179.991123     0.000001     0.161341   180.152464
	   46 D(4,2,3,5)      =   -178.471397     0.000031     2.744843  -175.726554
	   47 D(4,2,3,6)      =      6.991686     0.000010     1.088932     8.080618
	   48 D(5,3,6,9)      =   -178.694257    -0.000010    -1.053467  -179.747724
	   49 D(5,3,6,10)     =      0.647091    -0.000004    -0.359683     0.287409
	   50 D(5,8,12,10)    =     -0.073844    -0.000003    -0.364718    -0.438563
	   51 D(5,8,12,14)    =    179.315437     0.000002     0.171755   179.487192
	   52 D(6,3,5,7)      =    177.307464     0.000009     0.870828   178.178291
	   53 D(6,3,5,8)      =     -2.127630     0.000010     0.994977    -1.132653
	   54 D(6,10,12,8)    =     -1.417415     0.000009     1.004374    -0.413041
	   55 D(6,10,12,14)   =    179.193038     0.000004     0.468168   179.661207
	   56 D(7,5,8,11)     =      1.139360    -0.000002    -0.089714     1.049646
	   57 D(7,5,8,12)     =   -177.564024    -0.000006    -0.518103  -178.082126
	   58 D(8,12,10,13)   =    179.731154     0.000002     0.191856   179.923010
	   59 D(9,6,10,12)    =   -179.528009     0.000001     0.049321  -179.478688
	   60 D(9,6,10,13)    =     -0.669261     0.000008     0.856936     0.187675
	   61 D(10,12,8,11)   =   -178.767573    -0.000007    -0.796763  -179.564336
	   62 D(11,8,12,14)   =      0.621709    -0.000003    -0.260290     0.361419
	   63 D(13,10,12,14)  =      0.341607    -0.000003    -0.344349    -0.002742
	 ---------------------------------------------------------------------------

  ==> Convergence Check <==

  Measures of convergence in internal coordinates in au.
  Criteria marked as inactive (o), active & met (*), and active & unmet ( ).
  ---------------------------------------------------------------------------------------------
   Step     Total Energy     Delta E     MAX Force     RMS Force      MAX Disp      RMS Disp   
  ---------------------------------------------------------------------------------------------
    Convergence Criteria    1.00e-06 *    3.00e-04 *             o    1.20e-03 *             o
  ---------------------------------------------------------------------------------------------
      2    -285.83252981   -8.73e-04      2.23e-03      6.50e-04 o    4.79e-02      1.07e-02 o  ~
  ---------------------------------------------------------------------------------------------

	Writing optimization data to binary file.
	Structure for next step:
	Cartesian Geometry (in Angstrom)
	    H     2.7387709975  -0.6718686277  -0.6218180569
	    N     2.3342241013   0.0017932586  -0.0121374516
	    C     0.9347070241  -0.0264861106   0.0031021435
	    H     2.7350298369  -0.0838219045   0.8932615490
	    C     0.2312008605  -0.0068746566  -1.1947431938
	    C     0.2231865144   0.0046031415   1.1941548751
	    H     0.7713737539  -0.0008216818  -2.1227767568
	    C    -1.1478220094   0.0190444602  -1.1948014110
	    H     0.7518928183  -0.0058554873   2.1296462747
	    C    -1.1574060021   0.0480812097   1.1846321697
	    H    -1.6724187820   0.0280960226  -2.1317068830
	    C    -1.8554807232   0.0513745872  -0.0069965032
	    H    -1.6881750368   0.0740900096   2.1176658265
	    H    -2.9275872262   0.0797242507  -0.0112489525
			--------------------------
			 OPTKING Finished Execution 
			--------------------------

    Structure for next step:
    Molecular point group: c1
    Full point group: C1

    Geometry (in Angstrom), charge = 0, multiplicity = 1:

    H            2.737251580469    -0.677424509147    -0.620842468376
    N            2.332704715209    -0.003762674352    -0.011161909657
    C            0.933187744890    -0.032042041328     0.004077684258
    H            2.733510420177    -0.089377830851     0.894237021835
    C            0.229681634979    -0.012430588828    -1.193767561584
    C            0.221667289526    -0.000952791655     1.195130324945
    H            0.769854487110    -0.006377614498    -2.121801053677
    C           -1.149341129643     0.013488525982    -1.193825778765
    H            0.750373552978    -0.011411419645     2.130621653137
    C           -1.158925121551     0.042525273279     1.185607620267
    H           -1.673937862157     0.022540087645    -2.130731179227
    C           -1.856999789355     0.045818650542    -0.006020961648
    H           -1.689694115697     0.068534071186     2.118641205766
    H           -2.929106210528     0.074168311850    -0.010273410601

gradient() will perform analytic gradient computation.

*** tstart() called on cx1-27-2-4
*** at Fri Sep  9 20:52:11 2016


         ---------------------------------------------------------
                                   SCF
            by Justin Turney, Rob Parrish, and Andy Simmonett
                              RHF Reference
                        4 Threads,   2000 MiB Core
         ---------------------------------------------------------

  ==> Geometry <==

    Molecular point group: c1
    Full point group: C1

    Geometry (in Angstrom), charge = 0, multiplicity = 1:

       Center              X                  Y                   Z               Mass       
    ------------   -----------------  -----------------  -----------------  -----------------
           H          2.737251580469    -0.677424509147    -0.620842468376     1.007825032070
           N          2.332704715209    -0.003762674352    -0.011161909657    14.003074004780
           C          0.933187744890    -0.032042041328     0.004077684258    12.000000000000
           H          2.733510420177    -0.089377830851     0.894237021835     1.007825032070
           C          0.229681634979    -0.012430588828    -1.193767561584    12.000000000000
           C          0.221667289526    -0.000952791655     1.195130324945    12.000000000000
           H          0.769854487110    -0.006377614498    -2.121801053677     1.007825032070
           C         -1.149341129643     0.013488525982    -1.193825778765    12.000000000000
           H          0.750373552978    -0.011411419645     2.130621653137     1.007825032070
           C         -1.158925121551     0.042525273279     1.185607620267    12.000000000000
           H         -1.673937862157     0.022540087645    -2.130731179227     1.007825032070
           C         -1.856999789355     0.045818650542    -0.006020961648    12.000000000000
           H         -1.689694115697     0.068534071186     2.118641205766     1.007825032070
           H         -2.929106210528     0.074168311850    -0.010273410601     1.007825032070

  Running in c1 symmetry.

  Rotational constants: A =      0.19147  B =      0.08764  C =      0.06030 [cm^-1]
  Rotational constants: A =   5740.18309  B =   2627.38581  C =   1807.70722 [MHz]
  Nuclear repulsion =  273.639300033176767

  Charge       = 0
  Multiplicity = 1
  Electrons    = 50
  Nalpha       = 25
  Nbeta        = 25

  ==> Algorithm <==

  SCF Algorithm Type is DF.
  DIIS enabled.
  MOM disabled.
  Fractional occupation disabled.
  Guess Type is READ.
  Energy threshold   = 1.00e-08
  Density threshold  = 1.00e-08
  Integral threshold = 0.00e+00

  ==> Primary Basis <==

  Basis Set: CC-PVTZ
    Number of shells: 112
    Number of basis function: 308
    Number of Cartesian functions: 350
    Spherical Harmonics?: true
    Max angular momentum: 3

  ==> Pre-Iterations <==

   -------------------------------------------------------
    Irrep   Nso     Nmo     Nalpha   Nbeta   Ndocc  Nsocc
   -------------------------------------------------------
     A        308     308       0       0       0       0
   -------------------------------------------------------
    Total     308     308      25      25      25       0
   -------------------------------------------------------

 OEINTS: Overlap, kinetic, potential, dipole, and quadrupole integrals
         stored in file 35.

  ==> Integral Setup <==

  ==> DFJK: Density-Fitted J/K Matrices <==

    J tasked:                  Yes
    K tasked:                  Yes
    wK tasked:                  No
    OpenMP threads:              4
    Integrals threads:           4
    Memory (MB):              1430
    Algorithm:                Core
    Integral Cache:           NONE
    Schwarz Cutoff:          1E-12
    Fitting Condition:       1E-12

   => Auxiliary Basis Set <=

  Basis Set: 
    Number of shells: 245
    Number of basis function: 763
    Number of Cartesian functions: 917
    Spherical Harmonics?: true
    Max angular momentum: 4

  Minimum eigenvalue in the overlap matrix is 3.5779673406E-05.
  Using Symmetric Orthogonalization.
  SCF Guess: Reading in previously saved MOs, projecting if necessary.

  Using orbitals from previous SCF, no projection.
  Recomputing DOCC and SOCC from number of alpha and beta electrons from previous calculation.
              A 
    DOCC [    25 ]

  ==> Iterations <==

                           Total Energy        Delta E     RMS |[F,P]|

   @DF-RHF iter   0:  -285.82970599400409   -2.85830e+02   1.23483e-04 
   @DF-RHF iter   1:  -285.83266536103775   -2.95937e-03   2.00748e-05 
   @DF-RHF iter   2:  -285.83269582426993   -3.04632e-05   7.19237e-06 DIIS
   @DF-RHF iter   3:  -285.83270077500043   -4.95073e-06   3.77912e-06 DIIS
   @DF-RHF iter   4:  -285.83270193254708   -1.15755e-06   9.91310e-07 DIIS
   @DF-RHF iter   5:  -285.83270208061259   -1.48066e-07   3.48294e-07 DIIS
   @DF-RHF iter   6:  -285.83270209851781   -1.79052e-08   1.48193e-07 DIIS
   @DF-RHF iter   7:  -285.83270210206211   -3.54430e-09   5.15359e-08 DIIS
   @DF-RHF iter   8:  -285.83270210281995   -7.57836e-10   2.45753e-08 DIIS
   @DF-RHF iter   9:  -285.83270210299753   -1.77579e-10   1.03230e-08 DIIS
   @DF-RHF iter  10:  -285.83270210302993   -3.24007e-11   3.42833e-09 DIIS

  ==> Post-Iterations <==

    Orbital Energies (a.u.)
    -----------------------

    Doubly Occupied:                                                      

       1A    -15.554408     2A    -11.269028     3A    -11.227653  
       4A    -11.227237     5A    -11.217707     6A    -11.216038  
       7A    -11.213515     8A     -1.225257     9A     -1.131313  
      10A     -1.014105    11A     -0.988604    12A     -0.832745  
      13A     -0.813129    14A     -0.707632    15A     -0.684325  
      16A     -0.653839    17A     -0.603669    18A     -0.594978  
      19A     -0.582863    20A     -0.528870    21A     -0.506318  
      22A     -0.488717    23A     -0.446679    24A     -0.336468  
      25A     -0.299471  

    Virtual:                                                              

      26A      0.131274    27A      0.142133    28A      0.150718  
      29A      0.158334    30A      0.167671    31A      0.193318  
      32A      0.195661    33A      0.223374    34A      0.244577  
      35A      0.339663    36A      0.344876    37A      0.374503  
      38A      0.376589    39A      0.407966    40A      0.414040  
      41A      0.438078    42A      0.467838    43A      0.470874  
      44A      0.483487    45A      0.490510    46A      0.498186  
      47A      0.520631    48A      0.527023    49A      0.553895  
      50A      0.567217    51A      0.576305    52A      0.583696  
      53A      0.595584    54A      0.601616    55A      0.612563  
      56A      0.615630    57A      0.632456    58A      0.636716  
      59A      0.649210    60A      0.659990    61A      0.665667  
      62A      0.670020    63A      0.693040    64A      0.703826  
      65A      0.717814    66A      0.741705    67A      0.748919  
      68A      0.765684    69A      0.816420    70A      0.834161  
      71A      0.858729    72A      0.867111    73A      0.887173  
      74A      0.902603    75A      0.932792    76A      0.963665  
      77A      0.972304    78A      0.991670    79A      0.995587  
      80A      1.023255    81A      1.036806    82A      1.055557  
      83A      1.071248    84A      1.102168    85A      1.107373  
      86A      1.133286    87A      1.157645    88A      1.173461  
      89A      1.203233    90A      1.225674    91A      1.231265  
      92A      1.253364    93A      1.269121    94A      1.285594  
      95A      1.300456    96A      1.324737    97A      1.347595  
      98A      1.364643    99A      1.397348   100A      1.404437  
     101A      1.418091   102A      1.460025   103A      1.479539  
     104A      1.511343   105A      1.519992   106A      1.527073  
     107A      1.545327   108A      1.569039   109A      1.586025  
     110A      1.590669   111A      1.597450   112A      1.609139  
     113A      1.616288   114A      1.635457   115A      1.649126  
     116A      1.691610   117A      1.750409   118A      1.755518  
     119A      1.760626   120A      1.772870   121A      1.794553  
     122A      1.879115   123A      1.932716   124A      1.962153  
     125A      1.988931   126A      2.012530   127A      2.055782  
     128A      2.131782   129A      2.205743   130A      2.235292  
     131A      2.303201   132A      2.344362   133A      2.350380  
     134A      2.381252   135A      2.451440   136A      2.473716  
     137A      2.485193   138A      2.534031   139A      2.539529  
     140A      2.557087   141A      2.570213   142A      2.600025  
     143A      2.625735   144A      2.698762   145A      2.746348  
     146A      2.761760   147A      2.793278   148A      2.808313  
     149A      2.847290   150A      2.856916   151A      2.866746  
     152A      2.885713   153A      2.940870   154A      2.944660  
     155A      2.975918   156A      2.988463   157A      3.004716  
     158A      3.015472   159A      3.040148   160A      3.043685  
     161A      3.061017   162A      3.074230   163A      3.112581  
     164A      3.142407   165A      3.160872   166A      3.171889  
     167A      3.185200   168A      3.236058   169A      3.252972  
     170A      3.266102   171A      3.285318   172A      3.311494  
     173A      3.317765   174A      3.347066   175A      3.355260  
     176A      3.381502   177A      3.396932   178A      3.401583  
     179A      3.406479   180A      3.418036   181A      3.423605  
     182A      3.434247   183A      3.438006   184A      3.440890  
     185A      3.450136   186A      3.464711   187A      3.474456  
     188A      3.493970   189A      3.509600   190A      3.581836  
     191A      3.592363   192A      3.628349   193A      3.641912  
     194A      3.653311   195A      3.659177   196A      3.678875  
     197A      3.697015   198A      3.708276   199A      3.713618  
     200A      3.718687   201A      3.735368   202A      3.742412  
     203A      3.770776   204A      3.789627   205A      3.795110  
     206A      3.867215   207A      3.886140   208A      3.913153  
     209A      3.953122   210A      3.959478   211A      3.994365  
     212A      4.011772   213A      4.041516   214A      4.059369  
     215A      4.101422   216A      4.112341   217A      4.121532  
     218A      4.132813   219A      4.154049   220A      4.156832  
     221A      4.160517   222A      4.172136   223A      4.174334  
     224A      4.179615   225A      4.194526   226A      4.209886  
[...]
    Spherical Harmonics?: true
    Max angular momentum: 3

  ==> DFJKGrad: Density-Fitted SCF Gradients <==

    Gradient:                    1
    J tasked:                  Yes
    K tasked:                  Yes
    wK tasked:                  No
    OpenMP threads:              4
    Integrals threads:           4
    Memory (MB):              1430
    Schwarz Cutoff:          0E+00
    Fitting Condition:       1E-12

   => Auxiliary Basis Set <=

  Basis Set: 
    Number of shells: 245
    Number of basis function: 763
    Number of Cartesian functions: 917
    Spherical Harmonics?: true
    Max angular momentum: 4


  -Total Gradient:
     Atom            X                  Y                   Z
    ------   -----------------  -----------------  -----------------
       1        0.000106270975    -0.001791590886     0.001938128000
       2       -0.000162845136     0.003284211066    -0.002493317957
       3        0.000092835845    -0.003485022509     0.000326457850
       4        0.000045867425    -0.000022203509     0.000048326292
       5        0.000019421692     0.001999301737     0.000114878223
       6       -0.000129459086     0.000039882294     0.000051648565
       7        0.000001538656     0.000012716488    -0.000011664697
       8       -0.000079514346    -0.000068741135     0.000064551406
       9        0.000005048116     0.000020930180    -0.000000410976
      10        0.000099071205    -0.000113172015     0.000063840297
      11        0.000012757400     0.000011027616    -0.000003578966
      12       -0.000002090443     0.000089486479    -0.000112202804
      13       -0.000010714713     0.000012870399    -0.000002290106
      14        0.000001812408     0.000010303796     0.000015634869


*** tstop() called on cx1-27-2-4 at Fri Sep  9 20:53:37 2016
Module time:
	user time   =      70.81 seconds =       1.18 minutes
	system time =       0.57 seconds =       0.01 minutes
	total time  =         19 seconds =       0.32 minutes
Total time:
	user time   =     524.77 seconds =       8.75 minutes
	system time =       5.78 seconds =       0.10 minutes
	total time  =        148 seconds =       2.47 minutes
CURRENT ENERGY: -285.8327178353

			-----------------------------------------
			 OPTKING 2.0: for geometry optimizations 
			  - R.A. King,  Bethel University        
			-----------------------------------------

	Previous internal coordinate definitions found.
	---Fragment 1 Geometry and Gradient---
	 H           5.1679464861       -1.2830675881       -1.1747438784
	 N           4.4112370977       -0.0040861029       -0.0199621332
	 C           1.7619443102       -0.0563553599        0.0080203693
	 H           5.1640788129       -0.1963483413        1.6925682042
	 C           0.4330974266       -0.0204602914       -2.2567058825
	 C           0.4196381475        0.0022504535        2.2577587963
	 H           1.4543960871       -0.0128357970       -4.0103682858
	 C          -2.1716864591        0.0238255262       -2.2565161628
	 H           1.4179682638       -0.0100753467        4.0259399308
	 C          -2.1910958412        0.0778101085        2.2399174646
	 H          -3.1640616060        0.0395798083       -4.0263124003
	 C          -3.5095515062        0.0792440096       -0.0104720709
	 H          -3.1939610713        0.1248251403        4.0032379395
	 H          -5.5356557950        0.1288279692       -0.0186676571
	             0.0001062710       -0.0017915909        0.0019381280
	            -0.0001628451        0.0032842111       -0.0024933180
	             0.0000928358       -0.0034850225        0.0003264579
	             0.0000458674       -0.0000222035        0.0000483263
	             0.0000194217        0.0019993017        0.0001148782
	            -0.0001294591        0.0000398823        0.0000516486
	             0.0000015387        0.0000127165       -0.0000116647
	            -0.0000795143       -0.0000687411        0.0000645514
	             0.0000050481        0.0000209302       -0.0000004110
	             0.0000990712       -0.0001131720        0.0000638403
	             0.0000127574        0.0000110276       -0.0000035790
	            -0.0000020904        0.0000894865       -0.0001122028
	            -0.0000107147        0.0000128704       -0.0000022901
	             0.0000018124        0.0000103038        0.0000156349

	---Fragment 1 Intrafragment Coordinates---
	 - Coordinate -           - BOHR/RAD -       - ANG/DEG -
	 R(1,2)           =         1.882000	       0.995912
	 R(2,3)           =         2.649956	       1.402296
	 R(2,4)           =         1.880557	       0.995148
	 R(3,5)           =         2.626044	       1.389643
	 R(3,6)           =         2.620409	       1.386661
	 R(5,7)           =         2.029394	       1.073909
	 R(5,8)           =         2.605160	       1.378592
	 R(6,9)           =         2.030586	       1.074540
	 R(6,10)          =         2.611888	       1.382152
	 R(8,11)          =         2.029097	       1.073752
	 R(8,12)          =         2.614894	       1.383742
	 R(10,12)         =         2.608176	       1.380187
	 R(10,13)         =         2.029100	       1.073754
	 R(12,14)         =         2.026727	       1.072498
	 B(1,2,3)         =         1.976920	     113.269178
	 B(1,2,4)         =         1.905328	     109.167242
	 B(2,3,5)         =         2.090385	     119.770237
	 B(2,3,6)         =         2.118522	     121.382383
	 B(3,2,4)         =         1.969904	     112.867177
	 B(3,5,7)         =         2.083606	     119.381818
	 B(3,5,8)         =         2.101479	     120.405898
	 B(3,6,9)         =         2.089341	     119.710406
	 B(3,6,10)        =         2.102273	     120.451360
	 B(5,3,6)         =         2.072477	     118.744169
	 B(5,8,11)        =         2.081820	     119.279478
	 B(5,8,12)        =         2.108286	     120.795913
	 B(6,10,12)       =         2.107371	     120.743466
	 B(6,10,13)       =         2.081461	     119.258925
	 B(7,5,8)         =         2.098070	     120.210565
	 B(8,12,10)       =         2.074266	     118.846697
	 B(8,12,14)       =         2.104262	     120.565333
	 B(9,6,10)        =         2.091572	     119.838224
	 B(10,12,14)      =         2.104651	     120.587646
	 B(11,8,12)       =         2.092996	     119.919815
	 B(12,10,13)      =         2.094337	     119.996651
	*D(1,2,3,5)       =        -0.872665	     -50.000024
	 D(1,2,3,6)       =         2.334212	     133.740495
	 D(2,3,5,7)       =         0.033935	       1.944330
	 D(2,3,5,8)       =        -3.099353	    -177.579819
	 D(2,3,6,9)       =        -0.056522	      -3.238447
	 D(2,3,6,10)      =         3.084412	     176.723801
	 D(3,5,8,11)      =        -3.135089	    -179.627346
	 D(3,5,8,12)      =         0.020417	       1.169793
	 D(3,6,10,12)     =         0.007634	       0.437418
	 D(3,6,10,13)     =        -3.140177	    -179.918866
	 D(4,2,3,5)       =        -3.049047	    -174.697538
	 D(4,2,3,6)       =         0.157830	       9.042981
	 D(5,3,6,9)       =        -3.133482	    -179.535319
	 D(5,3,6,10)      =         0.007451	       0.426929
	 D(5,8,12,10)     =        -0.005145	      -0.294775
	 D(5,8,12,14)     =         3.132851	     179.499164
	 D(6,3,5,7)       =         3.111963	     178.302344
	 D(6,3,5,8)       =        -0.021325	      -1.221804
	 D(6,10,12,8)     =        -0.008838	      -0.506358
	 D(6,10,12,14)    =         3.136352	     179.699749
	 D(7,5,8,11)      =         0.014878	       0.852463
	 D(7,5,8,12)      =        -3.112802	    -178.350398
	 D(8,12,10,13)    =         3.139019	     179.852544
	 D(9,6,10,12)     =        -3.134618	    -179.600382
	 D(9,6,10,13)     =         0.000756	       0.043334
	 D(10,12,8,11)    =        -3.132736	    -179.492560
	 D(11,8,12,14)    =         0.005260	       0.301380
	 D(13,10,12,14)   =         0.001024	       0.058652

	Current energy   :      -285.8327178353

	Energy change for the previous step:
		Projected    :        -0.0000000257
		Actual       :        -0.0000007256
	Energy ratio indicates good step: Trust radius increased to 7.500e-01.


	Performing BFGS update.
	Previous computed or guess Hessian on step 1.
	Steps to be used in Hessian update: 4 3
	Taking RFO optimization step.
	Going to follow RFO solution 1.
	Rejecting RFO root 1 because normalization gives large value.
	Using RFO vector 2.
	Norm of target step-size    0.00210
	Projected energy change by RFO approximation:        -0.0000003019

	Back-transformation to cartesian coordinates...
	Successfully converged to displaced geometry.

	Back-transformation to cartesian coordinates to adjust frozen coordinates...
	Successfully converged to displaced geometry.

	--- Internal Coordinate Step in ANG or DEG, aJ/ANG or AJ/DEG ---
	 ---------------------------------------------------------------------------
	   Coordinate                Previous        Force       Change         New 
	   ----------                --------       ------       ------       ------
	    1 R(1,2)          =      0.995912    -0.000585    -0.000054     0.995858
	    2 R(2,3)          =      1.402296    -0.000195     0.000011     1.402308
	    3 R(2,4)          =      0.995148    -0.000533    -0.000051     0.995097
	    4 R(3,5)          =      1.389643     0.000468     0.000061     1.389704
	    5 R(3,6)          =      1.386661    -0.000718    -0.000108     1.386553
	    6 R(5,7)          =      1.073909    -0.000090    -0.000014     1.073896
	    7 R(5,8)          =      1.378592    -0.000385    -0.000061     1.378531
	    8 R(6,9)          =      1.074540    -0.000016    -0.000006     1.074534
	    9 R(6,10)         =      1.382152     0.000574     0.000085     1.382237
	   10 R(8,11)         =      1.073752     0.000025     0.000005     1.073757
	   11 R(8,12)         =      1.383742     0.000439     0.000070     1.383812
	   12 R(10,12)        =      1.380187    -0.000405    -0.000060     1.380127
	   13 R(10,13)        =      1.073754    -0.000030    -0.000004     1.073750
	   14 R(12,14)        =      1.072498     0.000013     0.000001     1.072499
	   15 B(1,2,3)        =    113.269178    -0.000002    -0.009453   113.259726
	   16 B(1,2,4)        =    109.167242     0.000002     0.011966   109.179208
	   17 B(2,3,5)        =    119.770237    -0.000002    -0.007980   119.762257
	   18 B(2,3,6)        =    121.382383     0.000001     0.001449   121.383832
	   19 B(3,2,4)        =    112.867177    -0.000002    -0.006764   112.860413
	   20 B(3,5,7)        =    119.381818    -0.000000    -0.000258   119.381560
	   21 B(3,5,8)        =    120.405898    -0.000000    -0.001204   120.404694
	   22 B(3,6,9)        =    119.710406     0.000001     0.004788   119.715194
	   23 B(3,6,10)       =    120.451360    -0.000001    -0.005008   120.446352
	   24 B(5,3,6)        =    118.744169     0.000002     0.005825   118.749994
	   25 B(5,8,11)       =    119.279478     0.000001     0.006145   119.285622
	   26 B(5,8,12)       =    120.795913    -0.000001    -0.002694   120.793219
	   27 B(6,10,12)      =    120.743466     0.000000     0.001228   120.744693
	   28 B(6,10,13)      =    119.258925    -0.000001    -0.005007   119.253918
	   29 B(7,5,8)        =    120.210565     0.000000     0.001558   120.212123
	   30 B(8,12,10)      =    118.846697     0.000000     0.001504   118.848201
	   31 B(8,12,14)      =    120.565333    -0.000001    -0.006850   120.558483
	   32 B(9,6,10)       =    119.838224     0.000000     0.000225   119.838449
	   33 B(10,12,14)     =    120.587646     0.000001     0.005289   120.592935
	   34 B(11,8,12)      =    119.919815    -0.000001    -0.003019   119.916796
	   35 B(12,10,13)     =    119.996651     0.000001     0.003490   120.000141
	   36 *D(1,2,3,5)     =    -50.000024    -0.000000     0.000000   -50.000024
	   37 D(1,2,3,6)      =    133.740495    -0.000000     0.012557   133.753052
	   38 D(2,3,5,7)      =      1.944330    -0.000000     0.012634     1.956964
	   39 D(2,3,5,8)      =   -177.579819    -0.000000    -0.000827  -177.580646
	   40 D(2,3,6,9)      =     -3.238447    -0.000000    -0.018291    -3.256738
	   41 D(2,3,6,10)     =    176.723801     0.000000    -0.006512   176.717290
	   42 D(3,5,8,11)     =   -179.627346     0.000000     0.022613  -179.604733
	   43 D(3,5,8,12)     =      1.169793    -0.000000    -0.014061     1.155732
	   44 D(3,6,10,12)    =      0.437418     0.000000     0.027710     0.465128
	   45 D(3,6,10,13)    =   -179.918866    -0.000000    -0.022448  -179.941314
	   46 D(4,2,3,5)      =   -174.697538     0.000000    -0.003066  -174.700604
	   47 D(4,2,3,6)      =      9.042981    -0.000000     0.009491     9.052472
	   48 D(5,3,6,9)      =   -179.535319    -0.000000    -0.005356  -179.540675
	   49 D(5,3,6,10)     =      0.426929    -0.000000     0.006424     0.433353
	   50 D(5,8,12,10)    =     -0.294775     0.000000     0.047415    -0.247361
	   51 D(5,8,12,14)    =    179.499164     0.000000     0.030429   179.529594
	   52 D(6,3,5,7)      =    178.302344     0.000000     0.000261   178.302605
	   53 D(6,3,5,8)      =     -1.221804    -0.000000    -0.013200    -1.235005
	   54 D(6,10,12,8)    =     -0.506358    -0.000001    -0.054213    -0.560572
	   55 D(6,10,12,14)   =    179.699749    -0.000000    -0.037196   179.662553
	   56 D(7,5,8,11)     =      0.852463     0.000000     0.009049     0.861512
	   57 D(7,5,8,12)     =   -178.350398    -0.000000    -0.027625  -178.378023
	   58 D(8,12,10,13)   =    179.852544    -0.000000    -0.003653   179.848891
	   59 D(9,6,10,12)    =   -179.600382     0.000001     0.039506  -179.560876
	   60 D(9,6,10,13)    =      0.043334    -0.000000    -0.010651     0.032682
	   61 D(10,12,8,11)   =   -179.492560     0.000000     0.010438  -179.482122
	   62 D(11,8,12,14)   =      0.301380    -0.000000    -0.006547     0.294833
	   63 D(13,10,12,14)  =      0.058652     0.000000     0.013365     0.072016
	 ---------------------------------------------------------------------------

  ==> Convergence Check <==

  Measures of convergence in internal coordinates in au.
  Criteria marked as inactive (o), active & met (*), and active & unmet ( ).
  ---------------------------------------------------------------------------------------------
   Step     Total Energy     Delta E     MAX Force     RMS Force      MAX Disp      RMS Disp   
  ---------------------------------------------------------------------------------------------
    Convergence Criteria    1.00e-06 *    3.00e-04 *             o    1.20e-03 *             o
  ---------------------------------------------------------------------------------------------
      5    -285.83271784   -7.26e-07 *    8.71e-05 *    2.64e-05 o    9.46e-04 *    2.64e-04 o  ~
  ---------------------------------------------------------------------------------------------


  **** Optimization is complete! (in 5 steps) ****

  ==> Optimization Summary <==

  Measures of convergence in internal coordinates in au.
  --------------------------------------------------------------------------------------------------------------- ~
   Step         Total Energy             Delta E       MAX Force       RMS Force        MAX Disp        RMS Disp  ~
  --------------------------------------------------------------------------------------------------------------- ~
      1    -285.831656673074   -285.831656673074      0.00498608      0.00133694      0.17072770      0.04109811  ~
      2    -285.832529812764     -0.000873139690      0.00223044      0.00064952      0.04790654      0.01074364  ~
      3    -285.832702103030     -0.000172290266      0.00130869      0.00028394      0.01890931      0.00405291  ~
      4    -285.832717109701     -0.000015006671      0.00020675      0.00005631      0.00337537      0.00095785  ~
      5    -285.832717835278     -0.000000725577      0.00008715      0.00002643      0.00094620      0.00026439  ~
  --------------------------------------------------------------------------------------------------------------- ~

	Writing optimization data to binary file.
	Final energy is   -285.8327178352782
	Final (previous) structure:
	Cartesian Geometry (in Angstrom)
	    H     2.7347597045  -0.6789701766  -0.6216477338
	    N     2.3343263120  -0.0021622727  -0.0105635067
	    C     0.9323808430  -0.0298219743   0.0042441970
	    H     2.7327130198  -0.1039030751   0.8956685860
	    C     0.2291853048  -0.0108271207  -1.1941974107
	    C     0.2220629605   0.0011908888   1.1947545887
	    H     0.7696333203  -0.0067924118  -2.1221956569
	    C    -1.1492070661   0.0126079264  -1.1940970154
	    H     0.7503565450  -0.0053316443   2.1304358172
	    C    -1.1594780695   0.0411753392   1.1853133619
	    H    -1.6743494163   0.0209447341  -2.1306329196
	    C    -1.8571748113   0.0419341270  -0.0055415817
	    H    -1.6901715331   0.0660546244   2.1184224399
	    H    -2.9293431050   0.0681728303  -0.0098784995
	Saving final (previous) structure.
			--------------------------
			 OPTKING Finished Execution 
			--------------------------

    Final optimized geometry and variables:
    Molecular point group: c1
    Full point group: C1

    Geometry (in Angstrom), charge = 0, multiplicity = 1:

    H            2.734759495678    -0.678970124723    -0.621647686373
    N            2.334326133791    -0.002162272551    -0.010563505900
    C            0.932380771785    -0.029821972046     0.004244196654
    H            2.732712811165    -0.103903067161     0.895668517622
    C            0.229185287255    -0.010827119889    -1.194197319510
    C            0.222062943500     0.001190888687     1.194754497492
    H            0.769633261563    -0.006792411242    -2.122195494877
    C           -1.149206978380     0.012607925457    -1.194096924189
    H            0.750356487732    -0.005331643852     2.130435654531
    C           -1.159477981000     0.041175336012     1.185313271394
    H           -1.674349288484     0.020944732474    -2.130632756881
    C           -1.857174669445     0.041934123803    -0.005541581254
    H           -1.690171404070     0.066054619310     2.118422278155
    H           -2.929342881292     0.068172825139    -0.009878498700

	Cleaning optimization helper files.


Properties will be evaluated at   0.000000,   0.000000,   0.000000 Bohr

Properties computed using the  density matrix

  Nuclear Dipole Moment: (a.u.)
     X:     0.6434      Y:    -0.5998      Z:     0.2439

  Electronic Dipole Moment: (a.u.)
     X:    -0.3467      Y:     0.1692      Z:    -0.0977

  Dipole Moment: (a.u.)
     X:     0.2967      Y:    -0.4306      Z:     0.1463     Total:     0.5430

  Dipole Moment: (Debye)
     X:     0.7541      Y:    -1.0945      Z:     0.3718     Total:     1.3801

  Quadrupole Moment: (Debye Ang)
    XX:   -36.3755     YY:   -46.3274     ZZ:   -36.7508
    XY:    -3.7541     XZ:     1.2727     YZ:     0.7747

  Traceless Quadrupole Moment: (Debye Ang)
    XX:     3.4424     YY:    -6.5095     ZZ:     3.0672
    XY:    -3.7541     XZ:     1.2727     YZ:     0.7747

  Mulliken Charges: (a.u.)
   Center  Symbol    Alpha    Beta     Spin     Total
       1     H     0.42038  0.42038  0.00000  0.15924
       2     N     3.67257  3.67257  0.00000 -0.34514
       3     C     2.88927  2.88927  0.00000  0.22147
       4     H     0.42693  0.42693  0.00000  0.14613
       5     C     3.11462  3.11462  0.00000 -0.22923
       6     C     3.11758  3.11758  0.00000 -0.23516
       7     H     0.42897  0.42897  0.00000  0.14207
       8     C     3.05963  3.05963  0.00000 -0.11927
       9     H     0.43457  0.43457  0.00000  0.13087
      10     C     3.06072  3.06072  0.00000 -0.12144
      11     H     0.42442  0.42442  0.00000  0.15116
      12     C     3.10081  3.10081  0.00000 -0.20163
      13     H     0.42455  0.42455  0.00000  0.15090
      14     H     0.42499  0.42499  0.00000  0.15002

   Total alpha = 25.00000, Total beta = 25.00000, Total charge = -0.00000


*** PSI4 exiting successfully. Buy a developer a beer!
