    -----------------------------------------------------------------------
          Psi4: An Open-Source Ab Initio Electronic Structure Package
                              Psi4 (no tag) Driver

                          Git: Rev {detached?}  

    J. M. Turney, A. C. Simmonett, R. M. Parrish, E. G. Hohenstein,
    F. A. Evangelista, J. T. Fermann, B. J. Mintz, L. A. Burns, J. J. Wilke,
    M. L. Abrams, N. J. Russ, M. L. Leininger, C. L. Janssen, E. T. Seidl,
    W. D. Allen, H. F. Schaefer, R. A. King, E. F. Valeev, C. D. Sherrill,
    and T. D. Crawford, WIREs Comput. Mol. Sci. 2, 556-565 (2012)
    (doi: 10.1002/wcms.93)

                         Additional Contributions by
    A. E. DePrince, M. Saitow, U. Bozkaya, A. Yu. Sokolov
    -----------------------------------------------------------------------


    Psi4 started on: Fri Sep  2 14:14:19 2016

    Process ID:  19035
    PSI4DATADIR: /export131/home/mjharvey/miniconda3/share
    Memory level set to 256.000 MB

  ==> Input File <==

--------------------------------------------------------------------------
set {
	reference rhf
	basis 6-31G*
}


set_num_threads( 4 )
memory 2 gb

molecule MOL {
0 1

H	 -3.654266	 1.363636	 0.002584
C	 -3.055204	 0.564864	 0.394692
C	 -1.953678	 0.208335	 -0.224605
H	 -3.378281	 0.074374	 1.293554
O	 -1.180634	 -0.819263	 0.215062
H	 -1.609032	 0.691433	 -1.121840
C	 0.051604	 -1.018856	 -0.387932
C	 1.043764	 0.054862	 -0.001873
H	 -0.017620	 -1.041351	 -1.469781
H	 0.437898	 -1.966374	 -0.042284
F	 2.212596	 -0.199467	 -0.571921
F	 0.652529	 1.252447	 -0.405055
F	 1.230877	 0.110694	 1.300533

	symmetry c1
}
set optking {
	frozen_dihedral = ("
		3 5 7 9
	")
}

ee = optimize('scf')
oeprop('DIPOLE', 'QUADRUPOLE', 'MULLIKEN_CHARGES')
f=open( 'psi4out.xyz', 'w' )
f.write( "13  " )
f.write( str(ee) + "\n" )
f.write( MOL.save_string_xyz() )
f.close()
--------------------------------------------------------------------------

  Memory set to   2.000 GiB by Python script.
gradient() will perform analytic gradient computation.

*** tstart() called on cx1-5-5-1.cx1.hpc.ic.ac.uk
*** at Fri Sep  2 14:14:20 2016


         ---------------------------------------------------------
                                   SCF
            by Justin Turney, Rob Parrish, and Andy Simmonett
                              RHF Reference
                        4 Threads,   2000 MiB Core
         ---------------------------------------------------------

  ==> Geometry <==

    Molecular point group: c1
    Full point group: C1

    Geometry (in Angstrom), charge = 0, multiplicity = 1:

       Center              X                  Y                   Z               Mass       
    ------------   -----------------  -----------------  -----------------  -----------------
           H         -3.683509660876     1.317383153317    -0.041866900363     1.007825032070
           C         -3.084447660876     0.518611153317     0.350241099637    12.000000000000
           C         -1.982921660876     0.162082153317    -0.269055900363    12.000000000000
           H         -3.407524660876     0.028121153317     1.249103099637     1.007825032070
           O         -1.209877660876    -0.865515846683     0.170611099637    15.994914619560
           H         -1.638275660876     0.645180153317    -1.166290900363     1.007825032070
           C          0.022360339124    -1.065108846683    -0.432382900363    12.000000000000
           C          1.014520339124     0.008609153317    -0.046323900363    12.000000000000
           H         -0.046863660876    -1.087603846683    -1.514231900363     1.007825032070
           H          0.408654339124    -2.012626846683    -0.086734900363     1.007825032070
           F          2.183352339124    -0.245719846683    -0.616371900363    18.998403224000
           F          0.623285339124     1.206194153317    -0.449505900363    18.998403224000
           F          1.201633339124     0.064441153317     1.256082099637    18.998403224000

  Running in c1 symmetry.

  Rotational constants: A =      0.14549  B =      0.04190  C =      0.04043 [cm^-1]
  Rotational constants: A =   4361.68310  B =   1256.16367  C =   1212.07331 [MHz]
  Nuclear repulsion =  416.277188675072068

  Charge       = 0
  Multiplicity = 1
  Electrons    = 64
  Nalpha       = 32
  Nbeta        = 32

  ==> Algorithm <==

  SCF Algorithm Type is DF.
  DIIS enabled.
  MOM disabled.
  Fractional occupation disabled.
  Guess Type is CORE.
  Energy threshold   = 1.00e-08
  Density threshold  = 1.00e-08
  Integral threshold = 0.00e+00

  ==> Primary Basis <==

  Basis Set: 6-31G*
    Number of shells: 58
    Number of basis function: 130
    Number of Cartesian functions: 130
    Spherical Harmonics?: false
    Max angular momentum: 2

  ==> Pre-Iterations <==

   -------------------------------------------------------
    Irrep   Nso     Nmo     Nalpha   Nbeta   Ndocc  Nsocc
   -------------------------------------------------------
     A        130     130       0       0       0       0
   -------------------------------------------------------
    Total     130     130      32      32      32       0
   -------------------------------------------------------

 OEINTS: Overlap, kinetic, potential, dipole, and quadrupole integrals
         stored in file 35.

  ==> Integral Setup <==

  ==> DFJK: Density-Fitted J/K Matrices <==

    J tasked:                  Yes
    K tasked:                  Yes
    wK tasked:                  No
    OpenMP threads:              4
    Integrals threads:           4
    Memory (MB):              1430
    Algorithm:                Core
    Integral Cache:           NONE
    Schwarz Cutoff:          1E-12
    Fitting Condition:       1E-12

   => Auxiliary Basis Set <=

  Basis Set: 
    Number of shells: 237
    Number of basis function: 773
    Number of Cartesian functions: 773
    Spherical Harmonics?: false
    Max angular momentum: 3

  Minimum eigenvalue in the overlap matrix is 1.8461316094E-03.
  Using Symmetric Orthogonalization.
  SCF Guess: Core (One-Electron) Hamiltonian.

  ==> Iterations <==

                           Total Energy        Delta E     RMS |[F,P]|

   @DF-RHF iter   1:  -439.96363737769087   -4.39964e+02   7.43787e-02 
   @DF-RHF iter   2:  -178.56529426951050    2.61398e+02   9.76612e-02 DIIS
   @DF-RHF iter   3:  -490.54425437592892   -3.11979e+02   4.06511e-02 DIIS
   @DF-RHF iter   4:  -424.76845147303692    6.57758e+01   6.74757e-02 DIIS
   @DF-RHF iter   5:  -523.51145403975352   -9.87430e+01   1.69748e-02 DIIS
   @DF-RHF iter   6:  -527.10710515740539   -3.59565e+00   7.82916e-03 DIIS
   @DF-RHF iter   7:  -527.50688289846403   -3.99778e-01   1.68065e-03 DIIS
   @DF-RHF iter   8:  -527.52721203634951   -2.03291e-02   7.96053e-04 DIIS
   @DF-RHF iter   9:  -527.53303434367763   -5.82231e-03   3.70202e-04 DIIS
   @DF-RHF iter  10:  -527.53422854618225   -1.19420e-03   1.94463e-04 DIIS
   @DF-RHF iter  11:  -527.53467315895841   -4.44613e-04   3.63922e-05 DIIS
   @DF-RHF iter  12:  -527.53469246206237   -1.93031e-05   1.38255e-05 DIIS
   @DF-RHF iter  13:  -527.53469589408382   -3.43202e-06   5.99986e-06 DIIS
   @DF-RHF iter  14:  -527.53469647418615   -5.80102e-07   1.48202e-06 DIIS
   @DF-RHF iter  15:  -527.53469652304716   -4.88610e-08   6.29326e-07 DIIS
   @DF-RHF iter  16:  -527.53469652865238   -5.60522e-09   1.46238e-07 DIIS
   @DF-RHF iter  17:  -527.53469652904823   -3.95858e-10   4.40261e-08 DIIS
   @DF-RHF iter  18:  -527.53469652908166   -3.34239e-11   1.37039e-08 DIIS
   @DF-RHF iter  19:  -527.53469652908484   -3.18323e-12   4.01683e-09 DIIS

  ==> Post-Iterations <==

    Orbital Energies (a.u.)
    -----------------------

    Doubly Occupied:                                                      

       1A    -26.347081     2A    -26.345866     3A    -26.342242  
       4A    -20.607377     5A    -11.504923     6A    -11.319061  
       7A    -11.297004     8A    -11.214409     9A     -1.744041  
      10A     -1.642530    11A     -1.640200    12A     -1.437715  
      13A     -1.083587    14A     -1.016464    15A     -0.927090  
      16A     -0.837936    17A     -0.832880    18A     -0.827473  
      19A     -0.784679    20A     -0.724191    21A     -0.712187  
      22A     -0.697708    23A     -0.676175    24A     -0.661623  
      25A     -0.656429    26A     -0.645295    27A     -0.634983  
      28A     -0.587392    29A     -0.561979    30A     -0.524260  
      31A     -0.509120    32A     -0.350409  

    Virtual:                                                              

      33A      0.191351    34A      0.242266    35A      0.272938  
      36A      0.282639    37A      0.296198    38A      0.307842  
      39A      0.347467    40A      0.412254    41A      0.417206  
      42A      0.451785    43A      0.472888    44A      0.507526  
      45A      0.514531    46A      0.688141    47A      0.699970  
      48A      0.715132    49A      0.742125    50A      0.760584  
      51A      0.772748    52A      0.806272    53A      0.834491  
      54A      0.876506    55A      0.902950    56A      0.927552  
      57A      0.990920    58A      1.081014    59A      1.103406  
      60A      1.133754    61A      1.151757    62A      1.172698  
      63A      1.203090    64A      1.239710    65A      1.273450  
      66A      1.322064    67A      1.368952    68A      1.373735  
      69A      1.413351    70A      1.426263    71A      1.444952  
      72A      1.473237    73A      1.582868    74A      1.613595  
      75A      1.635962    76A      1.638518    77A      1.659558  
      78A      1.674033    79A      1.695015    80A      1.705458  
      81A      1.737764    82A      1.814278    83A      1.840352  
      84A      1.915019    85A      1.950663    86A      1.968595  
      87A      2.016001    88A      2.053608    89A      2.109273  
      90A      2.128895    91A      2.138680    92A      2.149414  
      93A      2.232438    94A      2.238637    95A      2.282712  
      96A      2.299164    97A      2.321737    98A      2.332050  
      99A      2.377660   100A      2.396913   101A      2.411560  
     102A      2.423230   103A      2.489762   104A      2.529646  
     105A      2.539798   106A      2.599618   107A      2.654149  
     108A      2.692443   109A      2.737944   110A      2.822881  
     111A      2.857708   112A      2.902247   113A      2.993559  
     114A      3.108433   115A      3.138251   116A      3.168250  
     117A      3.217148   118A      3.294862   119A      3.415958  
     120A      3.426808   121A      3.454024   122A      3.480222  
     123A      4.369495   124A      4.540065   125A      4.613966  
     126A      4.712355   127A      4.919519   128A      4.943010  
     129A      5.156869   130A      5.766743  

    Final Occupation by Irrep:
              A 
    DOCC [    32 ]

  Energy converged.

  @DF-RHF Final Energy:  -527.53469652908484

   => Energetics <=

    Nuclear Repulsion Energy =            416.2771886750720682
    One-Electron Energy =               -1556.2351541914713380
    Two-Electron Energy =                 612.4232689873144864
    DFT Exchange-Correlation Energy =       0.0000000000000000
    Empirical Dispersion Energy =           0.0000000000000000
    PCM Polarization Energy =               0.0000000000000000
    EFP Energy =                            0.0000000000000000
    Total Energy =                       -527.5346965290848402

    Alert: EFP and PCM quantities not currently incorporated into SCF psivars.

Properties will be evaluated at   0.000000,   0.000000,   0.000000 Bohr
  ==> Properties <==


Properties computed using the SCF density matrix

  Nuclear Dipole Moment: (a.u.)
     X:   -11.6313      Y:    -2.0112      Z:    -1.6411

  Electronic Dipole Moment: (a.u.)
     X:    11.4584      Y:     1.7027      Z:     1.0077

  Dipole Moment: (a.u.)
     X:    -0.1729      Y:    -0.3085      Z:    -0.6333     Total:     0.7254

  Dipole Moment: (Debye)
     X:    -0.4395      Y:    -0.7841      Z:    -1.6098     Total:     1.8438


  Saving occupied orbitals to File 180.

*** tstop() called on cx1-5-5-1.cx1.hpc.ic.ac.uk at Fri Sep  2 14:14:25 2016
Module time:
	user time   =      14.61 seconds =       0.24 minutes
	system time =       0.18 seconds =       0.00 minutes
	total time  =          5 seconds =       0.08 minutes
Total time:
	user time   =      14.61 seconds =       0.24 minutes
	system time =       0.18 seconds =       0.00 minutes
	total time  =          5 seconds =       0.08 minutes

*** tstart() called on cx1-5-5-1.cx1.hpc.ic.ac.uk
*** at Fri Sep  2 14:14:25 2016


         ------------------------------------------------------------
                                   SCF GRAD                          
                          Rob Parrish, Justin Turney,                
                       Andy Simmonett, and Alex Sokolov              
         ------------------------------------------------------------

  ==> Geometry <==

    Molecular point group: c1
    Full point group: C1

    Geometry (in Angstrom), charge = 0, multiplicity = 1:

       Center              X                  Y                   Z               Mass       
    ------------   -----------------  -----------------  -----------------  -----------------
           H         -3.683509660876     1.317383153317    -0.041866900363     1.007825032070
           C         -3.084447660876     0.518611153317     0.350241099637    12.000000000000
           C         -1.982921660876     0.162082153317    -0.269055900363    12.000000000000
           H         -3.407524660876     0.028121153317     1.249103099637     1.007825032070
           O         -1.209877660876    -0.865515846683     0.170611099637    15.994914619560
           H         -1.638275660876     0.645180153317    -1.166290900363     1.007825032070
           C          0.022360339124    -1.065108846683    -0.432382900363    12.000000000000
           C          1.014520339124     0.008609153317    -0.046323900363    12.000000000000
           H         -0.046863660876    -1.087603846683    -1.514231900363     1.007825032070
           H          0.408654339124    -2.012626846683    -0.086734900363     1.007825032070
           F          2.183352339124    -0.245719846683    -0.616371900363    18.998403224000
           F          0.623285339124     1.206194153317    -0.449505900363    18.998403224000
           F          1.201633339124     0.064441153317     1.256082099637    18.998403224000

  Nuclear repulsion =  416.277188675072068

  ==> Basis Set <==

  Basis Set: 6-31G*
    Number of shells: 58
    Number of basis function: 130
    Number of Cartesian functions: 130
    Spherical Harmonics?: false
    Max angular momentum: 2

  ==> DFJKGrad: Density-Fitted SCF Gradients <==

    Gradient:                    1
    J tasked:                  Yes
    K tasked:                  Yes
    wK tasked:                  No
    OpenMP threads:              4
    Integrals threads:           4
    Memory (MB):              1430
    Schwarz Cutoff:          0E+00
    Fitting Condition:       1E-12

   => Auxiliary Basis Set <=

  Basis Set: 
    Number of shells: 237
    Number of basis function: 773
    Number of Cartesian functions: 773
    Spherical Harmonics?: false
    Max angular momentum: 3


  -Total Gradient:
     Atom            X                  Y                   Z
    ------   -----------------  -----------------  -----------------
       1       -0.000044483061    -0.000007820368     0.000010396077
       2       -0.000117070165     0.000421351891    -0.000386288615
       3        0.002015513296     0.000435951362     0.003970077500
       4        0.000023826061    -0.000046806745    -0.000197460195
       5       -0.000435003929     0.001508387542    -0.002784756593
       6        0.001676132385     0.000766483741    -0.000738262356
       7        0.000503462324    -0.002758660695     0.000224107999
       8       -0.002804863805     0.002619436340    -0.000302934880
       9        0.000349200144    -0.000410477707     0.000518549364
      10        0.001158326963    -0.000212561458    -0.000135462943
      11        0.000154260455    -0.000432054802    -0.000044034176
      12       -0.002669261310    -0.001528081781    -0.000263338326
      13        0.000189960649    -0.000355147322     0.000129407146


*** tstop() called on cx1-5-5-1.cx1.hpc.ic.ac.uk at Fri Sep  2 14:14:30 2016
Module time:
	user time   =      17.91 seconds =       0.30 minutes
	system time =       0.20 seconds =       0.00 minutes
	total time  =          5 seconds =       0.08 minutes
Total time:
	user time   =      32.54 seconds =       0.54 minutes
	system time =       0.38 seconds =       0.01 minutes
	total time  =         10 seconds =       0.17 minutes
CURRENT ENERGY: -527.5346965291

			-----------------------------------------
			 OPTKING 2.0: for geometry optimizations 
			  - R.A. King,  Bethel University        
			-----------------------------------------

	Internal coordinates to be generated automatically.
	Detected frag with atoms:  1 2 3 4 5 6 7 8 9 10 11 12 13
	---Fragment 1 Bond Connectivity---
	 1 : 2
	 2 : 1 3 4
	 3 : 2 5 6
	 4 : 2
	 5 : 3 7
	 6 : 3
	 7 : 5 8 9 10
	 8 : 7 11 12 13
	 9 : 7
	 10 : 7
	 11 : 8
	 12 : 8
	 13 : 8

	Assuming in current code that numbering for constraints corresponds to unified fragment.
	Frozen dihedral atom list: 
	     3     5     7     9
	---Fragment 1 Geometry and Gradient---
	 H          -6.9608244669        2.4894933718       -0.0791169757
	 C          -5.8287613503        0.9800330492        0.6618597588
	 C          -3.7471788820        0.3062908808       -0.5084419661
	 H          -6.4392884001        0.0531412783        2.3604627701
	 O          -2.2863374334       -1.6355879139        0.3224082535
	 H          -3.0958923292        1.2192137961       -2.2039703930
	 C           0.0422549172       -2.0127640219       -0.8170852662
	 C           1.9171655972        0.0162689420       -0.0875394851
	 H          -0.0885594846       -2.0552734113       -2.8614835934
	 H           0.7722447840       -3.8033135479       -0.1639052078
	 F           4.1259379725       -0.4643432156       -1.1647740877
	 F           1.1778385936        2.2793766129       -0.8494430468
	 F           2.2707579231        0.1217761315        2.3736511687
	            -0.0000444831       -0.0000078204        0.0000103961
	            -0.0001170702        0.0004213519       -0.0003862886
	             0.0020155133        0.0004359514        0.0039700775
	             0.0000238261       -0.0000468067       -0.0001974602
	            -0.0004350039        0.0015083875       -0.0027847566
	             0.0016761324        0.0007664837       -0.0007382624
	             0.0005034623       -0.0027586607        0.0002241080
	            -0.0028048638        0.0026194363       -0.0003029349
	             0.0003492001       -0.0004104777        0.0005185494
	             0.0011583270       -0.0002125615       -0.0001354629
	             0.0001542605       -0.0004320548       -0.0000440342
	            -0.0026692613       -0.0015280818       -0.0002633383
	             0.0001899606       -0.0003551473        0.0001294071

	Previous optimization step data not found.  Starting new optimization.

	---Fragment 1 Intrafragment Coordinates---
	 - Coordinate -           - BOHR/RAD -       - ANG/DEG -
	 R(1,2)           =         2.027088	       1.072689
	 R(2,3)           =         2.481234	       1.313012
	 R(2,4)           =         2.029070	       1.073738
	 R(3,5)           =         2.568124	       1.358993
	 R(3,6)           =         2.032835	       1.075730
	 R(5,7)           =         2.619742	       1.386308
	 R(7,8)           =         2.857359	       1.512050
	 R(7,9)           =         2.049020	       1.084295
	 R(7,10)          =         2.040979	       1.080040
	 R(8,11)          =         2.504016	       1.325068
	 R(8,12)          =         2.499752	       1.322812
	 R(8,13)          =         2.488698	       1.316962
	 B(1,2,3)         =         2.092437	     119.887790
	 B(1,2,4)         =         2.069315	     118.563009
	 B(2,3,5)         =         2.129327	     122.001429
	 B(2,3,6)         =         2.141513	     122.699630
	 B(3,2,4)         =         2.121434	     121.549201
	 B(3,5,7)         =         2.064354	     118.278761
	 B(5,3,6)         =         2.012160	     115.288300
	 B(5,7,8)         =         1.949753	     111.712615
	 B(5,7,9)         =         1.960833	     112.347471
	 B(5,7,10)        =         1.880758	     107.759521
	 B(7,8,11)        =         1.909925	     109.430651
	 B(7,8,12)        =         1.950877	     111.777019
	 B(7,8,13)        =         1.956091	     112.075763
	 B(8,7,9)         =         1.887430	     108.141765
	 B(8,7,10)        =         1.882390	     107.853005
	 B(9,7,10)        =         1.900692	     108.901636
	 B(11,8,12)       =         1.879194	     107.669861
	 B(11,8,13)       =         1.884157	     107.954269
	 B(12,8,13)       =         1.880801	     107.761958
	 D(1,2,3,5)       =        -3.111991	    -178.303966
	 D(1,2,3,6)       =         0.007908	       0.453079
	 D(2,3,5,7)       =        -2.995590	    -171.634645
	 D(3,5,7,8)       =         1.252097	      71.739867
	*D(3,5,7,9)       =        -0.872665	     -49.999997
	 D(3,5,7,10)      =        -2.966419	    -169.963295
	 D(4,2,3,5)       =         0.029684	       1.700783
	 D(4,2,3,6)       =        -3.133602	    -179.542172
	 D(5,7,8,11)      =         3.111700	     178.287279
	 D(5,7,8,12)      =        -1.091433	     -62.534523
	 D(5,7,8,13)      =         1.022147	      58.564708
	 D(6,3,5,7)       =         0.166193	       9.522165
	 D(9,7,8,11)      =        -1.004924	     -57.577891
	 D(9,7,8,12)      =         1.075128	      61.600308
	 D(9,7,8,13)      =        -3.094477	    -177.300461
	 D(10,7,8,11)     =         1.048005	      60.046277
	 D(10,7,8,12)     =         3.128057	     179.224475
	 D(10,7,8,13)     =        -1.041548	     -59.676294
	 R(3,12)          =         5.316498	       2.813370

	Current energy   :      -527.5346965291

	Generating empirical Hessian (Schlegel '84) for each fragment.
	Taking RFO optimization step.
	Going to follow RFO solution 1.
	Using RFO vector 1.
	Norm of target step-size    0.22503
	Projected energy change by RFO approximation:        -0.0017039093

	Back-transformation to cartesian coordinates...
	Successfully converged to displaced geometry.

	Back-transformation to cartesian coordinates to adjust frozen coordinates...
	Successfully converged to displaced geometry.

	--- Internal Coordinate Step in ANG or DEG, aJ/ANG or AJ/DEG ---
	 ---------------------------------------------------------------------------
	   Coordinate                Previous        Force       Change         New 
	   ----------                --------       ------       ------       ------
	    1 R(1,2)          =      1.072689    -0.000125    -0.000022     1.072667
	    2 R(2,3)          =      1.313012     0.000456     0.000046     1.313058
	    3 R(2,4)          =      1.073738     0.001245     0.000217     1.073954
	    4 R(3,5)          =      1.358993     0.006936     0.001004     1.359997
	    5 R(3,6)          =      1.075730    -0.012333    -0.002163     1.073568
	    6 R(5,7)          =      1.386308    -0.005225    -0.000044     1.386264
	    7 R(7,8)          =      1.512050     0.000317     0.001140     1.513190
	    8 R(7,9)          =      1.084295     0.004376     0.000790     1.085085
	    9 R(7,10)         =      1.080040    -0.004592    -0.000817     1.079223
	   10 R(8,11)         =      1.325068    -0.001960    -0.000207     1.324861
	   11 R(8,12)         =      1.322812     0.001690     0.000230     1.323041
	   12 R(8,13)         =      1.316962    -0.001153    -0.000118     1.316845
	   13 B(1,2,3)        =    119.887790    -0.000007    -0.031365   119.856425
	   14 B(1,2,4)        =    118.563009    -0.000001    -0.004337   118.558672
	   15 B(2,3,5)        =    122.001429    -0.000119    -0.412404   121.589025
	   16 B(2,3,6)        =    122.699630    -0.000007    -0.118439   122.581191
	   17 B(3,2,4)        =    121.549201     0.000008     0.035264   121.584464
	   18 B(3,5,7)        =    118.278761    -0.000113     0.002347   118.281109
	   19 B(5,3,6)        =    115.288300     0.000126     0.504737   115.793037
	   20 B(5,7,8)        =    111.712615     0.000180     1.295982   113.008597
	   21 B(5,7,9)        =    112.347471    -0.000098    -0.066856   112.280616
	   22 B(5,7,10)       =    107.759521    -0.000099    -1.394941   106.364581
	   23 B(7,8,11)       =    109.430651     0.000066     0.215910   109.646561
	   24 B(7,8,12)       =    111.777019    -0.000080    -0.016098   111.760921
	   25 B(7,8,13)       =    112.075763     0.000018    -0.015289   112.060474
	   26 B(8,7,9)        =    108.141765     0.000074     1.499765   109.641530
	   27 B(8,7,10)       =    107.853005    -0.000053    -0.624673   107.228332
	   28 B(9,7,10)       =    108.901636    -0.000007    -0.881288   108.020348
	   29 B(11,8,12)      =    107.669861     0.000021    -0.001118   107.668743
	   30 B(11,8,13)      =    107.954269    -0.000010     0.069773   108.024042
	   31 B(12,8,13)      =    107.761958    -0.000013    -0.256054   107.505904
	   32 D(1,2,3,5)      =   -178.303966     0.000004     0.490767  -177.813199
	   33 D(1,2,3,6)      =      0.453079    -0.000004    -0.564527    -0.111448
	   34 D(2,3,5,7)      =   -171.634645     0.000017     5.407060  -166.227585
	   35 D(3,5,7,8)      =     71.739867     0.000036     2.916023    74.655890
	   36 *D(3,5,7,9)     =    -49.999997     0.000000     0.000000   -49.999997
	   37 D(3,5,7,10)     =   -169.963295     0.000031     2.010293  -167.953002
	   38 D(4,2,3,5)      =      1.700783     0.000006     0.730311     2.431095
	   39 D(4,2,3,6)      =   -179.542172    -0.000002    -0.324982  -179.867154
	   40 D(5,7,8,11)     =    178.287279    -0.000002     0.252073   178.539351
	   41 D(5,7,8,12)     =    -62.534523     0.000002     0.382245   -62.152278
	   42 D(5,7,8,13)     =     58.564708    -0.000012     0.029443    58.594151
	   43 D(6,3,5,7)      =      9.522165     0.000025     6.401036    15.923201
	   44 D(9,7,8,11)     =    -57.577891     0.000009     2.197591   -55.380300
	   45 D(9,7,8,12)     =     61.600308     0.000013     2.327763    63.928071
	   46 D(9,7,8,13)     =   -177.300461    -0.000001     1.974962  -175.325499
	   47 D(10,7,8,11)    =     60.046277     0.000009     1.610666    61.656943
	   48 D(10,7,8,12)    =    179.224475     0.000014     1.740839   180.965314
	   49 D(10,7,8,13)    =    -59.676294    -0.000001     1.388037   -58.288257
	   50 R(3,12)         =      2.813370     0.031166     0.067024     2.880393
	 ---------------------------------------------------------------------------

  ==> Convergence Check <==

  Measures of convergence in internal coordinates in au.
  Criteria marked as inactive (o), active & met (*), and active & unmet ( ).
  --------------------------------------------------------------------------------------------- ~
   Step     Total Energy     Delta E     MAX Force     RMS Force      MAX Disp      RMS Disp    ~
  --------------------------------------------------------------------------------------------- ~
    Convergence Criteria    1.00e-06 *    3.00e-04 *             o    1.20e-03 *             o  ~
  --------------------------------------------------------------------------------------------- ~
      1    -527.53469653   -5.28e+02      3.78e-03      1.01e-03 o    1.27e-01      3.18e-02 o  ~
  ---------------------------------------------------------------------------------------------

	Writing optimization data to binary file.
	Structure for next step:
	Cartesian Geometry (in Angstrom)
	    H    -3.7015148558   1.3018374221  -0.0443891231
	    C    -3.0733326889   0.5306933800   0.3572801322
	    C    -2.0140335493   0.1363023337  -0.3108987049
	    H    -3.3308613665   0.1017267441   1.3075666738
	    O    -1.2180787362  -0.8682627156   0.1439595659
	    H    -1.7405488209   0.5553343242  -1.2607226515
	    C     0.0250487383  -1.0392569755  -0.4452127583
	    C     1.0300533153   0.0092977197  -0.0206631249
	    H    -0.0337996347  -1.0706989348  -1.5282440352
	    H     0.3949900853  -1.9936322711  -0.1031116116
	    F     2.1982970819  -0.2346773428  -0.5959372894
	    F     0.6517306620   1.2251640559  -0.3797997162
	    F     1.2124344450   0.0202191520   1.2834448163
			--------------------------
			 OPTKING Finished Execution 
			--------------------------

    Structure for next step:
    Molecular point group: c1
    Full point group: C1

    Geometry (in Angstrom), charge = 0, multiplicity = 1:

    H           -3.708120201626     1.303072239916    -0.056076862889
    C           -3.079938082643     0.531928256694     0.345592361782
    C           -2.020639023983     0.137537240505    -0.322586424285
    H           -3.337466740570     0.102961653561     1.295878830815
    O           -1.224684271657    -0.867027732014     0.132271811787
    H           -1.747154316475     0.556569199027    -1.272410298348
    C            0.018443107942    -1.038021978943    -0.456900467441
    C            1.023447608139     0.010532636189    -0.032350866496
    H           -0.040405260620    -1.069463935827    -1.539931661620
    H            0.388384426668    -1.992397201637    -0.114799346864
    F            2.191691285604    -0.233442407610    -0.607624987006
    F            0.645124983764     1.226398879619    -0.391487430405
    F            1.205828723944     0.021454067667     1.271756975138

gradient() will perform analytic gradient computation.

*** tstart() called on cx1-5-5-1.cx1.hpc.ic.ac.uk
*** at Fri Sep  2 14:14:31 2016


         ---------------------------------------------------------
                                   SCF
            by Justin Turney, Rob Parrish, and Andy Simmonett
                              RHF Reference
                        4 Threads,   2000 MiB Core
         ---------------------------------------------------------

  ==> Geometry <==

    Molecular point group: c1
    Full point group: C1

    Geometry (in Angstrom), charge = 0, multiplicity = 1:

       Center              X                  Y                   Z               Mass       
    ------------   -----------------  -----------------  -----------------  -----------------
           H         -3.708120201626     1.303072239916    -0.056076862889     1.007825032070
           C         -3.079938082643     0.531928256694     0.345592361782    12.000000000000
           C         -2.020639023983     0.137537240505    -0.322586424285    12.000000000000
           H         -3.337466740570     0.102961653561     1.295878830815     1.007825032070
           O         -1.224684271657    -0.867027732014     0.132271811787    15.994914619560
           H         -1.747154316475     0.556569199027    -1.272410298348     1.007825032070
           C          0.018443107942    -1.038021978943    -0.456900467441    12.000000000000
           C          1.023447608139     0.010532636189    -0.032350866496    12.000000000000
           H         -0.040405260620    -1.069463935827    -1.539931661620     1.007825032070
           H          0.388384426668    -1.992397201637    -0.114799346864     1.007825032070
           F          2.191691285604    -0.233442407610    -0.607624987006    18.998403224000
           F          0.645124983764     1.226398879619    -0.391487430405    18.998403224000
           F          1.205828723944     0.021454067667     1.271756975138    18.998403224000

  Running in c1 symmetry.

  Rotational constants: A =      0.14449  B =      0.04147  C =      0.04011 [cm^-1]
  Rotational constants: A =   4331.57738  B =   1243.19825  C =   1202.43466 [MHz]
  Nuclear repulsion =  415.084780477914876

  Charge       = 0
  Multiplicity = 1
  Electrons    = 64
  Nalpha       = 32
  Nbeta        = 32

  ==> Algorithm <==

  SCF Algorithm Type is DF.
  DIIS enabled.
  MOM disabled.
  Fractional occupation disabled.
  Guess Type is READ.
  Energy threshold   = 1.00e-08
  Density threshold  = 1.00e-08
  Integral threshold = 0.00e+00

  ==> Primary Basis <==

  Basis Set: 6-31G*
    Number of shells: 58
    Number of basis function: 130
    Number of Cartesian functions: 130
    Spherical Harmonics?: false
    Max angular momentum: 2

  ==> Pre-Iterations <==

   -------------------------------------------------------
    Irrep   Nso     Nmo     Nalpha   Nbeta   Ndocc  Nsocc
   -------------------------------------------------------
     A        130     130       0       0       0       0
   -------------------------------------------------------
    Total     130     130      32      32      32       0
   -------------------------------------------------------

 OEINTS: Overlap, kinetic, potential, dipole, and quadrupole integrals
         stored in file 35.

  ==> Integral Setup <==

  ==> DFJK: Density-Fitted J/K Matrices <==

    J tasked:                  Yes
    K tasked:                  Yes
    wK tasked:                  No
    OpenMP threads:              4
    Integrals threads:           4
    Memory (MB):              1430
    Algorithm:                Core
    Integral Cache:           NONE
    Schwarz Cutoff:          1E-12
    Fitting Condition:       1E-12

   => Auxiliary Basis Set <=

  Basis Set: 
    Number of shells: 237
    Number of basis function: 773
    Number of Cartesian functions: 773
    Spherical Harmonics?: false
    Max angular momentum: 3

  Minimum eigenvalue in the overlap matrix is 1.8618908398E-03.
  Using Symmetric Orthogonalization.
  SCF Guess: Reading in previously saved MOs, projecting if necessary.

  Using orbitals from previous SCF, no projection.
  Recomputing DOCC and SOCC from number of alpha and beta electrons from previous calculation.
              A 
    DOCC [    32 ]

  ==> Iterations <==

                           Total Energy        Delta E     RMS |[F,P]|

   @DF-RHF iter   0:  -527.52399918537026   -5.27524e+02   1.08458e-03 
   @DF-RHF iter   1:  -527.53430549686391   -1.03063e-02   1.90224e-04 
   @DF-RHF iter   2:  -527.53501623177635   -7.10735e-04   7.67116e-05 DIIS
   @DF-RHF iter   3:  -527.53517136395635   -1.55132e-04   2.95923e-05 DIIS
   @DF-RHF iter   4:  -527.53518628256074   -1.49186e-05   9.03347e-06 DIIS
   @DF-RHF iter   5:  -527.53518850164687   -2.21909e-06   2.89663e-06 DIIS
   @DF-RHF iter   6:  -527.53518865942942   -1.57783e-07   6.99053e-07 DIIS
   @DF-RHF iter   7:  -527.53518866882973   -9.40031e-09   2.06640e-07 DIIS
   @DF-RHF iter   8:  -527.53518866948320   -6.53472e-10   7.65139e-08 DIIS
   @DF-RHF iter   9:  -527.53518866957756   -9.43601e-11   2.08657e-08 DIIS
   @DF-RHF iter  10:  -527.53518866958484   -7.27596e-12   6.07585e-09 DIIS

  ==> Post-Iterations <==

    Orbital Energies (a.u.)
    -----------------------

    Doubly Occupied:                                                      

       1A    -26.346122     2A    -26.344810     3A    -26.341966  
       4A    -20.607702     5A    -11.505032     6A    -11.318412  
       7A    -11.297285     8A    -11.215166     9A     -1.743275  
      10A     -1.641347    11A     -1.639505    12A     -1.437178  
      13A     -1.083282    14A     -1.016594    15A     -0.926400  
      16A     -0.836867    17A     -0.832185    18A     -0.825343  
      19A     -0.787459    20A     -0.722152    21A     -0.711891  
      22A     -0.696440    23A     -0.675478    24A     -0.661887  
      25A     -0.655394    26A     -0.644376    27A     -0.635971  
      28A     -0.585462    29A     -0.562091    30A     -0.524110  
      31A     -0.509693    32A     -0.351535  

    Virtual:                                                              

      33A      0.191139    34A      0.239237    35A      0.273438  
      36A      0.281638    37A      0.296310    38A      0.308246  
      39A      0.346325    40A      0.411141    41A      0.417115  
      42A      0.451198    43A      0.474788    44A      0.508292  
      45A      0.514376    46A      0.687709    47A      0.701081  
      48A      0.711136    49A      0.740620    50A      0.761589  
      51A      0.772053    52A      0.804239    53A      0.836105  
      54A      0.876401    55A      0.907073    56A      0.924207  
      57A      0.988471    58A      1.080488    59A      1.102482  
      60A      1.130905    61A      1.150707    62A      1.166547  
      63A      1.202465    64A      1.236824    65A      1.278614  
      66A      1.319625    67A      1.367208    68A      1.370811  
      69A      1.412538    70A      1.428882    71A      1.450861  
      72A      1.474350    73A      1.587684    74A      1.613386  
      75A      1.632210    76A      1.639045    77A      1.658626  
      78A      1.673576    79A      1.692215    80A      1.702126  
      81A      1.728907    82A      1.828440    83A      1.832654  
      84A      1.912031    85A      1.950680    86A      1.960824  
      87A      2.020511    88A      2.040446    89A      2.106636  
      90A      2.123415    91A      2.140025    92A      2.148419  
      93A      2.234737    94A      2.248306    95A      2.277085  
      96A      2.296217    97A      2.319960    98A      2.322575  
      99A      2.378468   100A      2.399785   101A      2.413234  
     102A      2.418935   103A      2.484295   104A      2.535117  
     105A      2.547368   106A      2.595225   107A      2.651452  
     108A      2.678096   109A      2.733289   110A      2.819335  
     111A      2.853151   112A      2.907026   113A      2.999490  
     114A      3.102369   115A      3.144917   116A      3.171034  
     117A      3.220756   118A      3.288697   119A      3.415191  
     120A      3.427881   121A      3.448681   122A      3.479198  
     123A      4.363896   124A      4.538345   125A      4.613721  
     126A      4.704719   127A      4.909145   128A      4.944199  
     129A      5.125527   130A      5.756862  

    Final Occupation by Irrep:
              A 
    DOCC [    32 ]

  Energy converged.

  @DF-RHF Final Energy:  -527.53518866958484

   => Energetics <=

    Nuclear Repulsion Energy =            415.0847804779148760
    One-Electron Energy =               -1553.8751145199451003
    Two-Electron Energy =                 611.2551453724453268
    DFT Exchange-Correlation Energy =       0.0000000000000000
    Empirical Dispersion Energy =           0.0000000000000000
    PCM Polarization Energy =               0.0000000000000000
    EFP Energy =                            0.0000000000000000
    Total Energy =                       -527.5351886695849544

    Alert: EFP and PCM quantities not currently incorporated into SCF psivars.

Properties will be evaluated at   0.000000,   0.000000,   0.000000 Bohr
  ==> Properties <==


Properties computed using the SCF density matrix

  Nuclear Dipole Moment: (a.u.)
     X:   -11.7362      Y:    -1.9916      Z:    -1.8384

  Electronic Dipole Moment: (a.u.)
     X:    11.5326      Y:     1.6913      Z:     1.1835

  Dipole Moment: (a.u.)
     X:    -0.2037      Y:    -0.3003      Z:    -0.6549     Total:     0.7487

  Dipole Moment: (Debye)
     X:    -0.5177      Y:    -0.7634      Z:    -1.6646     Total:     1.9031


  Saving occupied orbitals to File 180.

*** tstop() called on cx1-5-5-1.cx1.hpc.ic.ac.uk at Fri Sep  2 14:14:35 2016
Module time:
	user time   =      13.37 seconds =       0.22 minutes
	system time =       0.12 seconds =       0.00 minutes
	total time  =          4 seconds =       0.07 minutes
Total time:
	user time   =      47.27 seconds =       0.79 minutes
	system time =       0.54 seconds =       0.01 minutes
	total time  =         15 seconds =       0.25 minutes

*** tstart() called on cx1-5-5-1.cx1.hpc.ic.ac.uk
*** at Fri Sep  2 14:14:35 2016


         ------------------------------------------------------------
                                   SCF GRAD                          
                          Rob Parrish, Justin Turney,                
                       Andy Simmonett, and Alex Sokolov              
         ------------------------------------------------------------

  ==> Geometry <==

    Molecular point group: c1
    Full point group: C1

    Geometry (in Angstrom), charge = 0, multiplicity = 1:

       Center              X                  Y                   Z               Mass       
    ------------   -----------------  -----------------  -----------------  -----------------
           H         -3.708120201626     1.303072239916    -0.056076862889     1.007825032070
           C         -3.079938082643     0.531928256694     0.345592361782    12.000000000000
           C         -2.020639023983     0.137537240505    -0.322586424285    12.000000000000
           H         -3.337466740570     0.102961653561     1.295878830815     1.007825032070
           O         -1.224684271657    -0.867027732014     0.132271811787    15.994914619560
           H         -1.747154316475     0.556569199027    -1.272410298348     1.007825032070
           C          0.018443107942    -1.038021978943    -0.456900467441    12.000000000000
           C          1.023447608139     0.010532636189    -0.032350866496    12.000000000000
           H         -0.040405260620    -1.069463935827    -1.539931661620     1.007825032070
           H          0.388384426668    -1.992397201637    -0.114799346864     1.007825032070
           F          2.191691285604    -0.233442407610    -0.607624987006    18.998403224000
           F          0.645124983764     1.226398879619    -0.391487430405    18.998403224000
           F          1.205828723944     0.021454067667     1.271756975138    18.998403224000

  Nuclear repulsion =  415.084780477914876

  ==> Basis Set <==

  Basis Set: 6-31G*
    Number of shells: 58
    Number of basis function: 130
    Number of Cartesian functions: 130
    Spherical Harmonics?: false
    Max angular momentum: 2

  ==> DFJKGrad: Density-Fitted SCF Gradients <==

    Gradient:                    1
    J tasked:                  Yes
    K tasked:                  Yes
    wK tasked:                  No
    OpenMP threads:              4
    Integrals threads:           4
    Memory (MB):              1430
    Schwarz Cutoff:          0E+00
    Fitting Condition:       1E-12

   => Auxiliary Basis Set <=

  Basis Set: 
    Number of shells: 237
    Number of basis function: 773
    Number of Cartesian functions: 773
    Spherical Harmonics?: false
    Max angular momentum: 3


  -Total Gradient:
     Atom            X                  Y                   Z
    ------   -----------------  -----------------  -----------------
       1        0.000292053155     0.000110489342     0.000051652717
       2       -0.000221928636    -0.000685709620     0.000017035218
       3        0.003344793286     0.002034833686    -0.000590710168
       4       -0.000104030111    -0.000025777718     0.000076042923
       5       -0.001685674984    -0.003326588076    -0.000991907433
       6       -0.001132262235    -0.000069255262     0.001023631191
       7        0.000273694764     0.006313389410    -0.001068794266
       8        0.001364651489    -0.001456166200     0.001114574562
       9       -0.000751264588    -0.003799619014    -0.000131111996
      10       -0.001070426192     0.000654396077     0.000299407075
      11        0.001018312615     0.000502972204    -0.000345804405
      12       -0.001324664142    -0.001149361965     0.000620765009
      13       -0.000003254411     0.000896397134    -0.000074780425


*** tstop() called on cx1-5-5-1.cx1.hpc.ic.ac.uk at Fri Sep  2 14:14:40 2016
Module time:
	user time   =      17.54 seconds =       0.29 minutes
	system time =       0.17 seconds =       0.00 minutes
	total time  =          5 seconds =       0.08 minutes
Total time:
	user time   =      64.82 seconds =       1.08 minutes
	system time =       0.71 seconds =       0.01 minutes
	total time  =         20 seconds =       0.33 minutes
CURRENT ENERGY: -527.5351886696

			-----------------------------------------
			 OPTKING 2.0: for geometry optimizations 
			  - R.A. King,  Bethel University        
			-----------------------------------------

	Previous internal coordinate definitions found.
	---Fragment 1 Geometry and Gradient---
	 H          -7.0073316489        2.4624496648       -0.1059699133
	 C          -5.8202394824        1.0051987275        0.6530749174
	 C          -3.8184543687        0.2599077176       -0.6095999961
	 H          -6.3068981173        0.1945693274        2.4488560916
	 O          -2.3143178727       -1.6384449631        0.2499574994
	 H          -3.3016431700        1.0517633602       -2.4045069925
	 C           0.0348524230       -1.9615772601       -0.8634167535
	 C           1.9340356907        0.0199037979       -0.0611342778
	 H          -0.0763548769       -2.0209939477       -2.9100491038
	 H           0.7339402007       -3.7650850590       -0.2169393258
	 F           4.1416962976       -0.4411422182       -1.1482448169
	 F           1.2191095408        2.3175580122       -0.7398040279
	 F           2.2786860514        0.0405423123        2.4032723906
	             0.0002920532        0.0001104893        0.0000516527
	            -0.0002219286       -0.0006857096        0.0000170352
	             0.0033447933        0.0020348337       -0.0005907102
	            -0.0001040301       -0.0000257777        0.0000760429
	            -0.0016856750       -0.0033265881       -0.0009919074
	            -0.0011322622       -0.0000692553        0.0010236312
	             0.0002736948        0.0063133894       -0.0010687943
	             0.0013646515       -0.0014561662        0.0011145746
	            -0.0007512646       -0.0037996190       -0.0001311120
	            -0.0010704262        0.0006543961        0.0002994071
	             0.0010183126        0.0005029722       -0.0003458044
	            -0.0013246641       -0.0011493620        0.0006207650
	            -0.0000032544        0.0008963971       -0.0000747804

	---Fragment 1 Intrafragment Coordinates---
	 - Coordinate -           - BOHR/RAD -       - ANG/DEG -
	 R(1,2)           =         2.027046	       1.072667
	 R(2,3)           =         2.481320	       1.313058
	 R(2,4)           =         2.029479	       1.073954
	 R(3,5)           =         2.570021	       1.359997
	 R(3,6)           =         2.028748	       1.073568
	 R(5,7)           =         2.619660	       1.386264
	 R(7,8)           =         2.859514	       1.513190
	 R(7,9)           =         2.050512	       1.085085
	 R(7,10)          =         2.039436	       1.079223
	 R(8,11)          =         2.503625	       1.324861
	 R(8,12)          =         2.500185	       1.323041
	 R(8,13)          =         2.488475	       1.316845
	 B(1,2,3)         =         2.091889	     119.856425
	 B(1,2,4)         =         2.069239	     118.558672
	 B(2,3,5)         =         2.122129	     121.589025
	 B(2,3,6)         =         2.139445	     122.581191
	 B(3,2,4)         =         2.122049	     121.584464
	 B(3,5,7)         =         2.064395	     118.281109
	 B(5,3,6)         =         2.020970	     115.793037
	 B(5,7,8)         =         1.972372	     113.008597
	 B(5,7,9)         =         1.959666	     112.280616
	 B(5,7,10)        =         1.856412	     106.364581
	 B(7,8,11)        =         1.913693	     109.646561
	 B(7,8,12)        =         1.950596	     111.760921
	 B(7,8,13)        =         1.955824	     112.060474
	 B(8,7,9)         =         1.913606	     109.641530
	 B(8,7,10)        =         1.871487	     107.228332
	 B(9,7,10)        =         1.885311	     108.020348
	 B(11,8,12)       =         1.879174	     107.668743
	 B(11,8,13)       =         1.885375	     108.024042
	 B(12,8,13)       =         1.876332	     107.505904
	 D(1,2,3,5)       =        -3.103426	    -177.813199
	 D(1,2,3,6)       =        -0.001945	      -0.111448
	 D(2,3,5,7)       =        -2.901219	    -166.227585
	 D(3,5,7,8)       =         1.302991	      74.655890
	*D(3,5,7,9)       =        -0.872665	     -49.999997
	 D(3,5,7,10)      =        -2.931333	    -167.953002
	 D(4,2,3,5)       =         0.042431	       2.431095
	 D(4,2,3,6)       =        -3.139274	    -179.867154
	 D(5,7,8,11)      =         3.116100	     178.539351
	 D(5,7,8,12)      =        -1.084762	     -62.152278
	 D(5,7,8,13)      =         1.022661	      58.594151
	 D(6,3,5,7)       =         0.277912	      15.923201
	 D(9,7,8,11)      =        -0.966569	     -55.380300
	 D(9,7,8,12)      =         1.115755	      63.928071
	 D(9,7,8,13)      =        -3.060007	    -175.325499
	 D(10,7,8,11)     =         1.076117	      61.656943
	 D(10,7,8,12)     =        -3.124745	    -179.034686
	 D(10,7,8,13)     =        -1.017322	     -58.288257
	 R(3,12)          =         5.443154	       2.880393

	Current energy   :      -527.5351886696

	Energy change for the previous step:
		Projected    :        -0.0017039093
		Actual       :        -0.0004921405

	Performing BFGS update.
	Previous computed or guess Hessian on step 1.
	Steps to be used in Hessian update: 1
	Taking RFO optimization step.
	Going to follow RFO solution 1.
	Using RFO vector 1.
	Norm of target step-size    0.11656
	Projected energy change by RFO approximation:        -0.0004992988

	Back-transformation to cartesian coordinates...
	Successfully converged to displaced geometry.

	Back-transformation to cartesian coordinates to adjust frozen coordinates...
	Successfully converged to displaced geometry.

	--- Internal Coordinate Step in ANG or DEG, aJ/ANG or AJ/DEG ---
	 ---------------------------------------------------------------------------
	   Coordinate                Previous        Force       Change         New 
	   ----------                --------       ------       ------       ------
	    1 R(1,2)          =      1.072667     0.000914     0.000142     1.072808
	    2 R(2,3)          =      1.313058     0.000655     0.000068     1.313126
	    3 R(2,4)          =      1.073954    -0.000845    -0.000100     1.073855
	    4 R(3,5)          =      1.359997     0.002333     0.000454     1.360450
	    5 R(3,6)          =      1.073568     0.010060     0.001265     1.074833
	    6 R(5,7)          =      1.386264     0.002534     0.000438     1.386703
	    7 R(7,8)          =      1.513190    -0.006917    -0.000909     1.512280
	    8 R(7,9)          =      1.085085    -0.002321    -0.000256     1.084829
	    9 R(7,10)         =      1.079223     0.007009     0.001009     1.080232
	   10 R(8,11)         =      1.324861    -0.007872    -0.000793     1.324068
	   11 R(8,12)         =      1.323041     0.006458     0.000666     1.323707
	   12 R(8,13)         =      1.316845     0.000553     0.000033     1.316877
	   13 B(1,2,3)        =    119.856425     0.000018     0.072430   119.928855
	   14 B(1,2,4)        =    118.558672    -0.000003    -0.015422   118.543250
	   15 B(2,3,5)        =    121.589025     0.000087     0.209265   121.798290
	   16 B(2,3,6)        =    122.581191     0.000026     0.147682   122.728873
	   17 B(3,2,4)        =    121.584464    -0.000015    -0.056595   121.527869
	   18 B(3,5,7)        =    118.281109    -0.000005     0.049662   118.330771
	   19 B(5,3,6)        =    115.793037    -0.000113    -0.347892   115.445145
	   20 B(5,7,8)        =    113.008597    -0.000036     0.118280   113.126877
	   21 B(5,7,9)        =    112.280616     0.000034    -0.036204   112.244412
	   22 B(5,7,10)       =    106.364581     0.000058     0.422259   106.786840
	   23 B(7,8,11)       =    109.646561    -0.000106    -0.407501   109.239060
	   24 B(7,8,12)       =    111.760921     0.000134     0.550337   112.311257
	   25 B(7,8,13)       =    112.060474    -0.000088    -0.241211   111.819262
	   26 B(8,7,9)        =    109.641530    -0.000063    -0.495000   109.146531
	   27 B(8,7,10)       =    107.228332     0.000011     0.015101   107.243433
	   28 B(9,7,10)       =    108.020348     0.000001     0.003447   108.023795
	   29 B(11,8,12)      =    107.668743    -0.000013    -0.069952   107.598791
	   30 B(11,8,13)      =    108.024042     0.000045    -0.118136   107.905907
	   31 B(12,8,13)      =    107.505904     0.000030     0.279203   107.785107
	   32 D(1,2,3,5)      =   -177.813199     0.000002     0.248255  -177.564945
	   33 D(1,2,3,6)      =     -0.111448     0.000006     0.544601     0.433153
	   34 D(2,3,5,7)      =   -166.227585     0.000006     2.164884  -164.062701
	   35 D(3,5,7,8)      =     74.655890    -0.000020    -0.599969    74.055922
	   36 *D(3,5,7,9)     =    -49.999997    -0.000000     0.000000   -49.999997
	   37 D(3,5,7,10)     =   -167.953002    -0.000013    -0.247028  -168.200030
	   38 D(4,2,3,5)      =      2.431095    -0.000001    -0.054763     2.376331
	   39 D(4,2,3,6)      =   -179.867154     0.000002     0.241583  -179.625571
	   40 D(5,7,8,11)     =    178.539351    -0.000001    -1.604967   176.934385
	   41 D(5,7,8,12)     =    -62.152278    -0.000001    -1.614509   -63.766787
	   42 D(5,7,8,13)     =     58.594151     0.000016    -1.033001    57.561151
	   43 D(6,3,5,7)      =     15.923201     0.000002     1.879034    17.802235
	   44 D(9,7,8,11)     =    -55.380300    -0.000008    -1.951195   -57.331494
	   45 D(9,7,8,12)     =     63.928071    -0.000008    -1.960737    61.967334
	   46 D(9,7,8,13)     =   -175.325499     0.000008    -1.379229  -176.704728
	   47 D(10,7,8,11)    =     61.656943    -0.000014    -2.199453    59.457490
	   48 D(10,7,8,12)    =   -179.034686    -0.000014    -2.208995  -181.243682
	   49 D(10,7,8,13)    =    -58.288257     0.000003    -1.627487   -59.915744
	   50 R(3,12)         =      2.880393     0.005738     0.022720     2.903113
	 ---------------------------------------------------------------------------

  ==> Convergence Check <==

  Measures of convergence in internal coordinates in au.
  Criteria marked as inactive (o), active & met (*), and active & unmet ( ).
  ---------------------------------------------------------------------------------------------
   Step     Total Energy     Delta E     MAX Force     RMS Force      MAX Disp      RMS Disp   
  ---------------------------------------------------------------------------------------------
    Convergence Criteria    1.00e-06 *    3.00e-04 *             o    1.20e-03 *             o
  ---------------------------------------------------------------------------------------------
      2    -527.53518867   -4.92e-04      1.76e-03      6.69e-04 o    4.29e-02      1.65e-02 o  ~
  ---------------------------------------------------------------------------------------------

	Writing optimization data to binary file.
	Structure for next step:
	Cartesian Geometry (in Angstrom)
	    H    -3.7019921880   1.3073060425  -0.0436734449
	    C    -3.0706595572   0.5369532339   0.3549411927
	    C    -2.0271314337   0.1262914824  -0.3282172688
	    H    -3.3146513313   0.1182959192   1.3132511081
	    O    -1.2292860105  -0.8811728800   0.1181948170
	    H    -1.7617627064   0.5356686514  -1.2859519299
	    C     0.0197332006  -1.0383599039  -0.4633442840
	    C     1.0140302250   0.0150247399  -0.0288949186
	    H    -0.0308499060  -1.0545443502  -1.5468720580
	    H     0.4000689928  -1.9936527153  -0.1321928416
	    F     2.1918595743  -0.2451649523  -0.5749498182
	    F     0.6562456727   1.2312427148  -0.4096892612
	    F     1.1689069664   0.0322128348   1.2787302081
			--------------------------
			 OPTKING Finished Execution 
			--------------------------

    Structure for next step:
    Molecular point group: c1
    Full point group: C1

    Geometry (in Angstrom), charge = 0, multiplicity = 1:

    H           -3.697319759483     1.308614421966    -0.045124600413
    C           -3.065987176877     0.538261672212     0.353490006746
    C           -2.022459133095     0.127599952015    -0.329668402627
    H           -3.309978932336     0.119604389465     1.311799848929
    O           -1.224613770777    -0.879864333463     0.116743649106
    H           -1.757090426041     0.536977089777    -1.287402990594
    C            0.024405344890    -1.037051345314    -0.464795407449
    C            1.018702293384     0.016333217998    -0.030346075306
    H           -0.026177757829    -1.053235790336    -1.548323098726
    H            0.404741108108    -1.992344083763    -0.133643990416
    F            2.196531552725    -0.243856454288    -0.576400933189
    F            0.660917768448     1.232551100021    -0.411140388757
    F            1.173579022951     0.033521311616     1.277278951567

gradient() will perform analytic gradient computation.

*** tstart() called on cx1-5-5-1.cx1.hpc.ic.ac.uk
*** at Fri Sep  2 14:14:40 2016


         ---------------------------------------------------------
                                   SCF
            by Justin Turney, Rob Parrish, and Andy Simmonett
                              RHF Reference
                        4 Threads,   2000 MiB Core
         ---------------------------------------------------------

  ==> Geometry <==

    Molecular point group: c1
    Full point group: C1

    Geometry (in Angstrom), charge = 0, multiplicity = 1:

       Center              X                  Y                   Z               Mass       
    ------------   -----------------  -----------------  -----------------  -----------------
           H         -3.697319759483     1.308614421966    -0.045124600413     1.007825032070
           C         -3.065987176877     0.538261672212     0.353490006746    12.000000000000
           C         -2.022459133095     0.127599952015    -0.329668402627    12.000000000000
           H         -3.309978932336     0.119604389465     1.311799848929     1.007825032070
           O         -1.224613770777    -0.879864333463     0.116743649106    15.994914619560
           H         -1.757090426041     0.536977089777    -1.287402990594     1.007825032070
           C          0.024405344890    -1.037051345314    -0.464795407449    12.000000000000
           C          1.018702293384     0.016333217998    -0.030346075306    12.000000000000
           H         -0.026177757829    -1.053235790336    -1.548323098726     1.007825032070
           H          0.404741108108    -1.992344083763    -0.133643990416     1.007825032070
           F          2.196531552725    -0.243856454288    -0.576400933189    18.998403224000
           F          0.660917768448     1.232551100021    -0.411140388757    18.998403224000
           F          1.173579022951     0.033521311616     1.277278951567    18.998403224000

  Running in c1 symmetry.

  Rotational constants: A =      0.14336  B =      0.04166  C =      0.04022 [cm^-1]
  Rotational constants: A =   4297.95836  B =   1248.92190  C =   1205.86863 [MHz]
  Nuclear repulsion =  415.088545333842887

  Charge       = 0
  Multiplicity = 1
  Electrons    = 64
  Nalpha       = 32
  Nbeta        = 32

  ==> Algorithm <==

  SCF Algorithm Type is DF.
  DIIS enabled.
  MOM disabled.
  Fractional occupation disabled.
  Guess Type is READ.
  Energy threshold   = 1.00e-08
  Density threshold  = 1.00e-08
  Integral threshold = 0.00e+00

  ==> Primary Basis <==

  Basis Set: 6-31G*
    Number of shells: 58
    Number of basis function: 130
    Number of Cartesian functions: 130
    Spherical Harmonics?: false
    Max angular momentum: 2

  ==> Pre-Iterations <==

   -------------------------------------------------------
    Irrep   Nso     Nmo     Nalpha   Nbeta   Ndocc  Nsocc
   -------------------------------------------------------
     A        130     130       0       0       0       0
   -------------------------------------------------------
    Total     130     130      32      32      32       0
   -------------------------------------------------------

 OEINTS: Overlap, kinetic, potential, dipole, and quadrupole integrals
         stored in file 35.

  ==> Integral Setup <==

  ==> DFJK: Density-Fitted J/K Matrices <==

    J tasked:                  Yes
    K tasked:                  Yes
    wK tasked:                  No
    OpenMP threads:              4
    Integrals threads:           4
    Memory (MB):              1430
    Algorithm:                Core
    Integral Cache:           NONE
    Schwarz Cutoff:          1E-12
    Fitting Condition:       1E-12

   => Auxiliary Basis Set <=

  Basis Set: 
    Number of shells: 237
    Number of basis function: 773
    Number of Cartesian functions: 773
    Spherical Harmonics?: false
    Max angular momentum: 3

  Minimum eigenvalue in the overlap matrix is 1.8626254447E-03.
  Using Symmetric Orthogonalization.
  SCF Guess: Reading in previously saved MOs, projecting if necessary.

  Using orbitals from previous SCF, no projection.
  Recomputing DOCC and SOCC from number of alpha and beta electrons from previous calculation.
              A 
    DOCC [    32 ]

  ==> Iterations <==

                           Total Energy        Delta E     RMS |[F,P]|

   @DF-RHF iter   0:  -527.53298354829940   -5.27533e+02   5.37322e-04 
   @DF-RHF iter   1:  -527.53519409413479   -2.21055e-03   7.90822e-05 
   @DF-RHF iter   2:  -527.53529034196504   -9.62478e-05   2.80248e-05 DIIS
   @DF-RHF iter   3:  -527.53530556961141   -1.52276e-05   9.93304e-06 DIIS
   @DF-RHF iter   4:  -527.53530672387160   -1.15426e-06   3.15215e-06 DIIS
   @DF-RHF iter   5:  -527.53530696376674   -2.39895e-07   8.99027e-07 DIIS
   @DF-RHF iter   6:  -527.53530697938390   -1.56172e-08   2.87202e-07 DIIS
   @DF-RHF iter   7:  -527.53530698050213   -1.11822e-09   7.21329e-08 DIIS
   @DF-RHF iter   8:  -527.53530698058898   -8.68567e-11   2.32441e-08 DIIS
   @DF-RHF iter   9:  -527.53530698059922   -1.02318e-11   7.51020e-09 DIIS

  ==> Post-Iterations <==

    Orbital Energies (a.u.)
    -----------------------

    Doubly Occupied:                                                      

       1A    -26.345643     2A    -26.345188     3A    -26.341604  
       4A    -20.607542     5A    -11.504706     6A    -11.318408  
       7A    -11.297747     8A    -11.215817     9A     -1.743096  
      10A     -1.641119    11A     -1.639490    12A     -1.436744  
      13A     -1.083212    14A     -1.017000    15A     -0.926267  
      16A     -0.836811    17A     -0.831881    18A     -0.825243  
      19A     -0.787382    20A     -0.721648    21A     -0.711841  
      22A     -0.695767    23A     -0.675616    24A     -0.661655  
      25A     -0.655516    26A     -0.644257    27A     -0.636400  
      28A     -0.585920    29A     -0.562497    30A     -0.523661  
      31A     -0.508840    32A     -0.352192  

    Virtual:                                                              

      33A      0.190890    34A      0.238511    35A      0.273227  
      36A      0.281748    37A      0.296063    38A      0.308729  
      39A      0.346204    40A      0.412464    41A      0.416759  
      42A      0.451323    43A      0.475081    44A      0.507472  
      45A      0.514033    46A      0.686458    47A      0.700421  
      48A      0.710384    49A      0.740657    50A      0.761885  
      51A      0.772067    52A      0.803224    53A      0.838431  
      54A      0.876433    55A      0.907415    56A      0.923607  
      57A      0.988357    58A      1.080853    59A      1.101873  
      60A      1.131239    61A      1.151177    62A      1.165668  
      63A      1.202600    64A      1.236934    65A      1.279509  
      66A      1.318752    67A      1.367029    68A      1.370936  
      69A      1.413008    70A      1.425964    71A      1.450948  
      72A      1.479244    73A      1.585282    74A      1.613515  
      75A      1.630954    76A      1.639138    77A      1.658775  
      78A      1.673058    79A      1.693982    80A      1.697307  
      81A      1.728008    82A      1.827305    83A      1.836111  
      84A      1.912498    85A      1.950682    86A      1.962272  
      87A      2.021450    88A      2.037521    89A      2.107037  
      90A      2.123594    91A      2.139920    92A      2.148548  
      93A      2.235022    94A      2.245507    95A      2.277086  
      96A      2.296265    97A      2.318749    98A      2.322334  
      99A      2.383617   100A      2.398430   101A      2.412992  
     102A      2.415787   103A      2.484115   104A      2.532004  
     105A      2.549688   106A      2.593719   107A      2.645736  
     108A      2.677430   109A      2.732341   110A      2.820006  
     111A      2.855621   112A      2.906738   113A      3.002400  
     114A      3.100151   115A      3.145147   116A      3.170611  
     117A      3.222671   118A      3.287131   119A      3.414342  
     120A      3.427307   121A      3.449033   122A      3.478208  
     123A      4.363393   124A      4.538278   125A      4.615475  
     126A      4.705385   127A      4.914910   128A      4.941560  
     129A      5.115410   130A      5.747787  

    Final Occupation by Irrep:
              A 
    DOCC [    32 ]

  Energy converged.

  @DF-RHF Final Energy:  -527.53530698059922

   => Energetics <=

    Nuclear Repulsion Energy =            415.0885453338428874
    One-Electron Energy =               -1553.8862920228866642
    Two-Electron Energy =                 611.2624397084447310
    DFT Exchange-Correlation Energy =       0.0000000000000000
    Empirical Dispersion Energy =           0.0000000000000000
    PCM Polarization Energy =               0.0000000000000000
    EFP Energy =                            0.0000000000000000
    Total Energy =                       -527.5353069805991026

    Alert: EFP and PCM quantities not currently incorporated into SCF psivars.

Properties will be evaluated at   0.000000,   0.000000,   0.000000 Bohr
  ==> Properties <==


Properties computed using the SCF density matrix

  Nuclear Dipole Moment: (a.u.)
     X:   -11.6700      Y:    -1.9814      Z:    -1.8690

  Electronic Dipole Moment: (a.u.)
     X:    11.4622      Y:     1.6916      Z:     1.2159

  Dipole Moment: (a.u.)
     X:    -0.2078      Y:    -0.2898      Z:    -0.6531     Total:     0.7441

  Dipole Moment: (Debye)
     X:    -0.5281      Y:    -0.7365      Z:    -1.6601     Total:     1.8914


  Saving occupied orbitals to File 180.

*** tstop() called on cx1-5-5-1.cx1.hpc.ic.ac.uk at Fri Sep  2 14:14:45 2016
Module time:
	user time   =      12.63 seconds =       0.21 minutes
	system time =       0.12 seconds =       0.00 minutes
	total time  =          5 seconds =       0.08 minutes
Total time:
	user time   =      77.98 seconds =       1.30 minutes
	system time =       0.85 seconds =       0.01 minutes
	total time  =         25 seconds =       0.42 minutes

*** tstart() called on cx1-5-5-1.cx1.hpc.ic.ac.uk
*** at Fri Sep  2 14:14:45 2016


         ------------------------------------------------------------
                                   SCF GRAD                          
                          Rob Parrish, Justin Turney,                
                       Andy Simmonett, and Alex Sokolov              
         ------------------------------------------------------------

  ==> Geometry <==

    Molecular point group: c1
    Full point group: C1

    Geometry (in Angstrom), charge = 0, multiplicity = 1:

       Center              X                  Y                   Z               Mass       
    ------------   -----------------  -----------------  -----------------  -----------------
           H         -3.697319759483     1.308614421966    -0.045124600413     1.007825032070
           C         -3.065987176877     0.538261672212     0.353490006746    12.000000000000
           C         -2.022459133095     0.127599952015    -0.329668402627    12.000000000000
           H         -3.309978932336     0.119604389465     1.311799848929     1.007825032070
           O         -1.224613770777    -0.879864333463     0.116743649106    15.994914619560
           H         -1.757090426041     0.536977089777    -1.287402990594     1.007825032070
           C          0.024405344890    -1.037051345314    -0.464795407449    12.000000000000
           C          1.018702293384     0.016333217998    -0.030346075306    12.000000000000
           H         -0.026177757829    -1.053235790336    -1.548323098726     1.007825032070
           H          0.404741108108    -1.992344083763    -0.133643990416     1.007825032070
           F          2.196531552725    -0.243856454288    -0.576400933189    18.998403224000
           F          0.660917768448     1.232551100021    -0.411140388757    18.998403224000
           F          1.173579022951     0.033521311616     1.277278951567    18.998403224000

  Nuclear repulsion =  415.088545333842887

  ==> Basis Set <==

  Basis Set: 6-31G*
    Number of shells: 58
    Number of basis function: 130
    Number of Cartesian functions: 130
    Spherical Harmonics?: false
    Max angular momentum: 2

  ==> DFJKGrad: Density-Fitted SCF Gradients <==

    Gradient:                    1
    J tasked:                  Yes
    K tasked:                  Yes
    wK tasked:                  No
    OpenMP threads:              4
    Integrals threads:           4
    Memory (MB):              1430
    Schwarz Cutoff:          0E+00
    Fitting Condition:       1E-12

   => Auxiliary Basis Set <=

  Basis Set: 
    Number of shells: 237
    Number of basis function: 773
    Number of Cartesian functions: 773
    Spherical Harmonics?: false
    Max angular momentum: 3


  -Total Gradient:
     Atom            X                  Y                   Z
    ------   -----------------  -----------------  -----------------
       1        0.000046496649     0.000102637800     0.000040917226
       2       -0.000288566007    -0.000104004252     0.000163067868
       3        0.001529468317     0.001401583554     0.000505336461
       4       -0.000041633555     0.000012475912     0.000005153670
       5       -0.001430410272    -0.002458801426    -0.001754532432
       6       -0.000298710968     0.000021542590     0.000469301538
       7        0.001345091701     0.004459274267     0.000537813286
       8        0.000294947063    -0.000148581667     0.000007991624
       9       -0.000276237890    -0.003005173859     0.000199808905
      10       -0.000153461480    -0.000272502247    -0.000100647498
      11       -0.000407685277     0.000033893455     0.000569079831
      12       -0.000635920696     0.000508393715    -0.000322689614
      13        0.000316622419    -0.000550737840    -0.000320600867


*** tstop() called on cx1-5-5-1.cx1.hpc.ic.ac.uk at Fri Sep  2 14:14:49 2016
Module time:
	user time   =      18.12 seconds =       0.30 minutes
	system time =       0.20 seconds =       0.00 minutes
	total time  =          4 seconds =       0.07 minutes
Total time:
	user time   =      96.12 seconds =       1.60 minutes
	system time =       1.05 seconds =       0.02 minutes
	total time  =         29 seconds =       0.48 minutes
CURRENT ENERGY: -527.5353069806

			-----------------------------------------
			 OPTKING 2.0: for geometry optimizations 
			  - R.A. King,  Bethel University        
			-----------------------------------------

	Previous internal coordinate definitions found.
	---Fragment 1 Geometry and Gradient---
	 H          -6.9869217711        2.4729228711       -0.0852731366
	 C          -5.7938760912        1.0171671483        0.6679993035
	 C          -3.8218938765        0.2411289639       -0.6229829956
	 H          -6.2549536877        0.2260195404        2.4789424556
	 O          -2.3141846453       -1.6627026243        0.2206135246
	 H          -3.3204196959        1.0147396393       -2.4328390749
	 C           0.0461194180       -1.9597430284       -0.8783360279
	 C           1.9250683454        0.0308653089       -0.0573457715
	 H          -0.0494687931       -1.9903271971       -2.9259066218
	 H           0.7648498490       -3.7649846808       -0.2525505412
	 F           4.1508430769       -0.4608219143       -1.0892399065
	 F           1.2489535787        2.3291840238       -0.7769427369
	 F           2.2177429487        0.0633460986        2.4137074138
	             0.0000464966        0.0001026378        0.0000409172
	            -0.0002885660       -0.0001040043        0.0001630679
	             0.0015294683        0.0014015836        0.0005053365
	            -0.0000416336        0.0000124759        0.0000051537
	            -0.0014304103       -0.0024588014       -0.0017545324
	            -0.0002987110        0.0000215426        0.0004693015
	             0.0013450917        0.0044592743        0.0005378133
	             0.0002949471       -0.0001485817        0.0000079916
	            -0.0002762379       -0.0030051739        0.0001998089
	            -0.0001534615       -0.0002725022       -0.0001006475
	            -0.0004076853        0.0000338935        0.0005690798
	            -0.0006359207        0.0005083937       -0.0003226896
	             0.0003166224       -0.0005507378       -0.0003206009

	---Fragment 1 Intrafragment Coordinates---
	 - Coordinate -           - BOHR/RAD -       - ANG/DEG -
	 R(1,2)           =         2.027314	       1.072808
	 R(2,3)           =         2.481448	       1.313126
	 R(2,4)           =         2.029291	       1.073855
	 R(3,5)           =         2.570879	       1.360450
	 R(3,6)           =         2.031140	       1.074833
	 R(5,7)           =         2.620488	       1.386703
	 R(7,8)           =         2.857796	       1.512280
	 R(7,9)           =         2.050029	       1.084829
	 R(7,10)          =         2.041342	       1.080232
	 R(8,11)          =         2.502126	       1.324068
	 R(8,12)          =         2.501444	       1.323707
	 R(8,13)          =         2.488537	       1.316877
	 B(1,2,3)         =         2.093153	     119.928855
	 B(1,2,4)         =         2.068970	     118.543250
	 B(2,3,5)         =         2.125781	     121.798290
	 B(2,3,6)         =         2.142023	     122.728873
	 B(3,2,4)         =         2.121061	     121.527869
	 B(3,5,7)         =         2.065262	     118.330771
	 B(5,3,6)         =         2.014898	     115.445145
	 B(5,7,8)         =         1.974436	     113.126877
	 B(5,7,9)         =         1.959035	     112.244412
	 B(5,7,10)        =         1.863782	     106.786840
	 B(7,8,11)        =         1.906581	     109.239060
	 B(7,8,12)        =         1.960201	     112.311257
	 B(7,8,13)        =         1.951614	     111.819262
	 B(8,7,9)         =         1.904966	     109.146531
	 B(8,7,10)        =         1.871751	     107.243433
	 B(9,7,10)        =         1.885371	     108.023795
	 B(11,8,12)       =         1.877953	     107.598791
	 B(11,8,13)       =         1.883313	     107.905907
	 B(12,8,13)       =         1.881205	     107.785107
	 D(1,2,3,5)       =        -3.099093	    -177.564945
	 D(1,2,3,6)       =         0.007560	       0.433153
	 D(2,3,5,7)       =        -2.863434	    -164.062701
	 D(3,5,7,8)       =         1.292520	      74.055922
	*D(3,5,7,9)       =        -0.872665	     -49.999997
	 D(3,5,7,10)      =        -2.935644	    -168.200030
	 D(4,2,3,5)       =         0.041475	       2.376331
	 D(4,2,3,6)       =        -3.135058	    -179.625571
	 D(5,7,8,11)      =         3.088088	     176.934385
	 D(5,7,8,12)      =        -1.112940	     -63.766787
	 D(5,7,8,13)      =         1.004632	      57.561151
	 D(6,3,5,7)       =         0.310708	      17.802235
	 D(9,7,8,11)      =        -1.000623	     -57.331494
	 D(9,7,8,12)      =         1.081534	      61.967334
	 D(9,7,8,13)      =        -3.084079	    -176.704728
	 D(10,7,8,11)     =         1.037729	      59.457490
	 D(10,7,8,12)     =         3.119886	     178.756318
	 D(10,7,8,13)     =        -1.045727	     -59.915744
	 R(3,12)          =         5.486089	       2.903113

	Current energy   :      -527.5353069806

	Energy change for the previous step:
		Projected    :        -0.0004992988
		Actual       :        -0.0001183110
	Energy ratio indicates iffy step: Trust radius decreased to 1.250e-01.


	Performing BFGS update.
	Previous computed or guess Hessian on step 1.
	Steps to be used in Hessian update: 2 1
	Taking RFO optimization step.
	Going to follow RFO solution 1.
	Using RFO vector 1.
	Norm of target step-size    0.11116
	Projected energy change by RFO approximation:        -0.0002904979

	Back-transformation to cartesian coordinates...
	Successfully converged to displaced geometry.

	Back-transformation to cartesian coordinates to adjust frozen coordinates...
	Successfully converged to displaced geometry.

	--- Internal Coordinate Step in ANG or DEG, aJ/ANG or AJ/DEG ---
	 ---------------------------------------------------------------------------
	   Coordinate                Previous        Force       Change         New 
	   ----------                --------       ------       ------       ------
	    1 R(1,2)          =      1.072808    -0.000257    -0.000024     1.072784
	    2 R(2,3)          =      1.313126    -0.002782    -0.000345     1.312781
	    3 R(2,4)          =      1.073855    -0.000076    -0.000028     1.073826
	    4 R(3,5)          =      1.360450    -0.001504    -0.000068     1.360383
	    5 R(3,6)          =      1.074833     0.003985     0.001089     1.075921
	    6 R(5,7)          =      1.386703    -0.002348    -0.000327     1.386375
	    7 R(7,8)          =      1.512280     0.001574     0.000228     1.512509
	    8 R(7,9)          =      1.084829     0.001169     0.000262     1.085090
	    9 R(7,10)         =      1.080232    -0.001286    -0.000100     1.080131
	   10 R(8,11)         =      1.324068     0.004976     0.000476     1.324544
	   11 R(8,12)         =      1.323707    -0.006257    -0.000677     1.323030
	   12 R(8,13)         =      1.316877     0.002375     0.000317     1.317194
	   13 B(1,2,3)        =    119.928855     0.000002     0.027859   119.956714
	   14 B(1,2,4)        =    118.543250     0.000002     0.008814   118.552064
	   15 B(2,3,5)        =    121.798290     0.000020     0.114475   121.912765
	   16 B(2,3,6)        =    122.728873     0.000011     0.110473   122.839346
	   17 B(3,2,4)        =    121.527869    -0.000004    -0.037526   121.490344
	   18 B(3,5,7)        =    118.330771    -0.000028    -0.108909   118.221862
	   19 B(5,3,6)        =    115.445145    -0.000031    -0.230182   115.214963
	   20 B(5,7,8)        =    113.126877     0.000020     0.136310   113.263186
	   21 B(5,7,9)        =    112.244412    -0.000000    -0.007384   112.237028
	   22 B(5,7,10)       =    106.786840     0.000001     0.105375   106.892215
	   23 B(7,8,11)       =    109.239060    -0.000018    -0.112530   109.126530
	   24 B(7,8,12)       =    112.311257     0.000019     0.121488   112.432745
	   25 B(7,8,13)       =    111.819262     0.000024     0.069905   111.889168
	   26 B(8,7,9)        =    109.146531    -0.000020    -0.254985   108.891546
	   27 B(8,7,10)       =    107.243433    -0.000018    -0.147033   107.096400
	   28 B(9,7,10)       =    108.023795     0.000017     0.175728   108.199523
	   29 B(11,8,12)      =    107.598791    -0.000013    -0.134087   107.464704
	   30 B(11,8,13)      =    107.905907     0.000023     0.219362   108.125269
	   31 B(12,8,13)      =    107.785107    -0.000036    -0.165548   107.619558
	   32 D(1,2,3,5)      =   -177.564945     0.000002     0.442886  -177.122059
	   33 D(1,2,3,6)      =      0.433153     0.000001     0.257063     0.690216
	   34 D(2,3,5,7)      =   -164.062701     0.000002     1.620368  -162.442333
	   35 D(3,5,7,8)      =     74.055922    -0.000003    -0.240877    73.815044
	   36 *D(3,5,7,9)     =    -49.999997    -0.000000     0.000000   -49.999997
	   37 D(3,5,7,10)     =   -168.200030    -0.000005    -0.276190  -168.476220
[...]
*** at Fri Sep  2 14:15:13 2016


         ------------------------------------------------------------
                                   SCF GRAD                          
                          Rob Parrish, Justin Turney,                
                       Andy Simmonett, and Alex Sokolov              
         ------------------------------------------------------------

  ==> Geometry <==

    Molecular point group: c1
    Full point group: C1

    Geometry (in Angstrom), charge = 0, multiplicity = 1:

       Center              X                  Y                   Z               Mass       
    ------------   -----------------  -----------------  -----------------  -----------------
           H         -3.685609121285     1.311856310770    -0.034623690420     1.007825032070
           C         -3.049641275965     0.543701411575     0.360719219087    12.000000000000
           C         -2.023705509449     0.117732471107    -0.338841655480    12.000000000000
           H         -3.276363021420     0.137152843045     1.328431688412     1.007825032070
           O         -1.225020431600    -0.892901668560     0.098882237910    15.994914619560
           H         -1.774131847542     0.513489527120    -1.307490674348     1.007825032070
           C          0.028131843311    -1.034907546993    -0.476668480368    12.000000000000
           C          1.015762216187     0.019397462463    -0.026757442533    12.000000000000
           H         -0.015850152308    -1.034947156220    -1.560884506802     1.007825032070
           H          0.413770775965    -1.990722277563    -0.154300795702     1.007825032070
           F          2.205422343119    -0.252720803503    -0.542441368732    18.998403224000
           F          0.675814046230     1.233152392834    -0.429104291606    18.998403224000
           F          1.137572925323     0.051354621406     1.284170027501    18.998403224000

  Nuclear repulsion =  415.119280401885021

  ==> Basis Set <==

  Basis Set: 6-31G*
    Number of shells: 58
    Number of basis function: 130
    Number of Cartesian functions: 130
    Spherical Harmonics?: false
    Max angular momentum: 2

  ==> DFJKGrad: Density-Fitted SCF Gradients <==

    Gradient:                    1
    J tasked:                  Yes
    K tasked:                  Yes
    wK tasked:                  No
    OpenMP threads:              4
    Integrals threads:           4
    Memory (MB):              1430
    Schwarz Cutoff:          0E+00
    Fitting Condition:       1E-12

   => Auxiliary Basis Set <=

  Basis Set: 
    Number of shells: 237
    Number of basis function: 773
    Number of Cartesian functions: 773
    Spherical Harmonics?: false
    Max angular momentum: 3


  -Total Gradient:
     Atom            X                  Y                   Z
    ------   -----------------  -----------------  -----------------
       1       -0.000006839666    -0.000015391651    -0.000006501684
       2       -0.000010799231     0.000000704241    -0.000015982815
       3        0.000835876300     0.001319036076     0.001445916477
       4       -0.000001330524    -0.000007225058    -0.000001625415
       5       -0.001230097468    -0.002587717619    -0.002100782424
       6       -0.000040108346    -0.000016114766     0.000009450989
       7        0.000682862549     0.003671497230     0.000655196856
       8        0.000013793821     0.000071486168    -0.000037534217
       9       -0.000274879580    -0.002435597124     0.000012304250
      10       -0.000009927257     0.000012180676    -0.000004226577
      11       -0.000008332637    -0.000017645185     0.000045235785
      12        0.000007412286     0.000046059289    -0.000037837555
      13        0.000042369753    -0.000041272280     0.000036386336


*** tstop() called on cx1-5-5-1.cx1.hpc.ic.ac.uk at Fri Sep  2 14:15:18 2016
Module time:
	user time   =      17.65 seconds =       0.29 minutes
	system time =       0.18 seconds =       0.00 minutes
	total time  =          5 seconds =       0.08 minutes
Total time:
	user time   =     188.76 seconds =       3.15 minutes
	system time =       2.05 seconds =       0.03 minutes
	total time  =         58 seconds =       0.97 minutes
CURRENT ENERGY: -527.5353349161

			-----------------------------------------
			 OPTKING 2.0: for geometry optimizations 
			  - R.A. King,  Bethel University        
			-----------------------------------------

	Previous internal coordinate definitions found.
	---Fragment 1 Geometry and Gradient---
	 H          -6.9647918721        2.4790491531       -0.0654292926
	 C          -5.7629868151        1.0274467659        0.6816605349
	 C          -3.8242491865        0.2224821273       -0.6403179313
	 H          -6.1914288224        0.2591813117        2.5103720773
	 O          -2.3149531229       -1.6873396172        0.1868603491
	 H          -3.3526233155        0.9703545784       -2.4707992958
	 C           0.0531614795       -1.9556918367       -0.9007728841
	 C           1.9195124047        0.0366558917       -0.0505642384
	 H          -0.0299524470       -1.9557666873       -2.9496442429
	 H           0.7819134484       -3.7619199112       -0.2915862460
	 F           4.1676442358       -0.4775731067       -1.0250656301
	 F           1.2771034641        2.3303203026       -0.8108895936
	 F           2.1497012850        0.0970461701        2.4267296600
	            -0.0000068397       -0.0000153917       -0.0000065017
	            -0.0000107992        0.0000007042       -0.0000159828
	             0.0008358763        0.0013190361        0.0014459165
	            -0.0000013305       -0.0000072251       -0.0000016254
	            -0.0012300975       -0.0025877176       -0.0021007824
	            -0.0000401083       -0.0000161148        0.0000094510
	             0.0006828625        0.0036714972        0.0006551969
	             0.0000137938        0.0000714862       -0.0000375342
	            -0.0002748796       -0.0024355971        0.0000123043
	            -0.0000099273        0.0000121807       -0.0000042266
	            -0.0000083326       -0.0000176452        0.0000452358
	             0.0000074123        0.0000460593       -0.0000378376
	             0.0000423698       -0.0000412723        0.0000363863

	---Fragment 1 Intrafragment Coordinates---
	 - Coordinate -           - BOHR/RAD -       - ANG/DEG -
	 R(1,2)           =         2.027222	       1.072760
	 R(2,3)           =         2.480786	       1.312775
	 R(2,4)           =         2.029281	       1.073849
	 R(3,5)           =         2.570918	       1.360471
	 R(3,6)           =         2.032832	       1.075728
	 R(5,7)           =         2.619719	       1.386296
	 R(7,8)           =         2.859295	       1.513074
	 R(7,9)           =         2.050556	       1.085108
	 R(7,10)          =         2.040747	       1.079917
	 R(8,11)          =         2.503634	       1.324866
	 R(8,12)          =         2.500336	       1.323121
	 R(8,13)          =         2.488698	       1.316962
	 B(1,2,3)         =         2.093542	     119.951140
	 B(1,2,4)         =         2.069208	     118.556868
	 B(2,3,5)         =         2.127488	     121.896098
	 B(2,3,6)         =         2.143349	     122.804852
	 B(3,2,4)         =         2.120426	     121.491449
	 B(3,5,7)         =         2.063713	     118.242063
	 B(5,3,6)         =         2.011759	     115.265300
	 B(5,7,8)         =         1.977097	     113.279295
	 B(5,7,9)         =         1.958642	     112.221908
	 B(5,7,10)        =         1.864536	     106.830062
	 B(7,8,11)        =         1.904201	     109.102704
	 B(7,8,12)        =         1.961755	     112.400289
	 B(7,8,13)        =         1.953326	     111.917321
	 B(8,7,9)         =         1.900314	     108.879981
	 B(8,7,10)        =         1.870115	     107.149705
	 B(9,7,10)        =         1.888839	     108.222511
	 B(11,8,12)       =         1.876288	     107.503405
	 B(11,8,13)       =         1.885338	     108.021914
	 B(12,8,13)       =         1.879895	     107.710043
	 D(1,2,3,5)       =        -3.092285	    -177.174858
	 D(1,2,3,6)       =         0.010669	       0.611302
	 D(2,3,5,7)       =        -2.825542	    -161.891649
	 D(3,5,7,8)       =         1.288056	      73.800156
	*D(3,5,7,9)       =        -0.872665	     -49.999997
	 D(3,5,7,10)      =        -2.940122	    -168.456588
	 D(4,2,3,5)       =         0.044560	       2.553099
	 D(4,2,3,6)       =        -3.135671	    -179.660741
	 D(5,7,8,11)      =         3.058444	     175.235907
	 D(5,7,8,12)      =        -1.145274	     -65.619382
	 D(5,7,8,13)      =         0.972958	      55.746364
	 D(6,3,5,7)       =         0.351961	      20.165887
	 D(9,7,8,11)      =        -1.032441	     -59.154512
	 D(9,7,8,12)      =         1.047027	      59.990200
	 D(9,7,8,13)      =        -3.117927	    -178.644055
	 D(10,7,8,11)     =         1.006690	      57.679067
	 D(10,7,8,12)     =         3.086157	     176.823779
	 D(10,7,8,13)     =        -1.078796	     -61.810476
	 R(3,12)          =         5.522307	       2.922279

	Current energy   :      -527.5353349161

	Energy change for the previous step:
		Projected    :        -0.0000009034
		Actual       :        -0.0000003493

	Performing BFGS update.
	Previous computed or guess Hessian on step 1.
	Steps to be used in Hessian update: 5 4
	Taking RFO optimization step.
	Going to follow RFO solution 1.
	Using RFO vector 1.
	Norm of target step-size    0.00360
	Projected energy change by RFO approximation:        -0.0000004884

	Back-transformation to cartesian coordinates...
	Successfully converged to displaced geometry.

	Back-transformation to cartesian coordinates to adjust frozen coordinates...
	Successfully converged to displaced geometry.

	--- Internal Coordinate Step in ANG or DEG, aJ/ANG or AJ/DEG ---
	 ---------------------------------------------------------------------------
	   Coordinate                Previous        Force       Change         New 
	   ----------                --------       ------       ------       ------
	    1 R(1,2)          =      1.072760     0.000038     0.000008     1.072768
	    2 R(2,3)          =      1.312775     0.000042     0.000017     1.312792
	    3 R(2,4)          =      1.073849    -0.000013    -0.000002     1.073847
	    4 R(3,5)          =      1.360471    -0.000223    -0.000008     1.360463
	    5 R(3,6)          =      1.075728     0.000196     0.000008     1.075736
	    6 R(5,7)          =      1.386296     0.000231     0.000050     1.386346
	    7 R(7,8)          =      1.513074    -0.000422    -0.000058     1.513016
	    8 R(7,9)          =      1.085108     0.000009    -0.000006     1.085102
	    9 R(7,10)         =      1.079917     0.000128     0.000015     1.079932
	   10 R(8,11)         =      1.324866     0.000177     0.000039     1.324905
	   11 R(8,12)         =      1.323121    -0.000395    -0.000031     1.323090
	   12 R(8,13)         =      1.316962    -0.000322    -0.000058     1.316904
	   13 B(1,2,3)        =    119.951140    -0.000000    -0.000173   119.950967
	   14 B(1,2,4)        =    118.556868    -0.000000    -0.001098   118.555770
	   15 B(2,3,5)        =    121.896098     0.000001     0.002349   121.898448
	   16 B(2,3,6)        =    122.804852     0.000001     0.003144   122.807996
	   17 B(3,2,4)        =    121.491449     0.000000     0.001321   121.492770
	   18 B(3,5,7)        =    118.242063    -0.000001     0.001181   118.243244
	   19 B(5,3,6)        =    115.265300    -0.000002    -0.003827   115.261473
	   20 B(5,7,8)        =    113.279295    -0.000000    -0.003498   113.275796
	   21 B(5,7,9)        =    112.221908     0.000000     0.001084   112.222992
	   22 B(5,7,10)       =    106.830062     0.000000     0.005245   106.835307
	   23 B(7,8,11)       =    109.102704    -0.000000     0.003880   109.106584
	   24 B(7,8,12)       =    112.400289     0.000002    -0.004891   112.395397
	   25 B(7,8,13)       =    111.917321     0.000001     0.003161   111.920482
	   26 B(8,7,9)        =    108.879981     0.000000    -0.003055   108.876925
	   27 B(8,7,10)       =    107.149705    -0.000000     0.001745   107.151450
	   28 B(9,7,10)       =    108.222511    -0.000000    -0.001221   108.221290
	   29 B(11,8,12)      =    107.503405    -0.000002    -0.006806   107.496599
	   30 B(11,8,13)      =    108.021914     0.000003     0.013929   108.035843
	   31 B(12,8,13)      =    107.710043    -0.000003    -0.008971   107.701072
	   32 D(1,2,3,5)      =   -177.174858    -0.000001    -0.035128  -177.209986
	   33 D(1,2,3,6)      =      0.611302     0.000000     0.020116     0.631418
	   34 D(2,3,5,7)      =   -161.891649     0.000001     0.129090  -161.762559
	   35 D(3,5,7,8)      =     73.800156     0.000000    -0.005961    73.794196
	   36 *D(3,5,7,9)     =    -49.999997     0.000000     0.000000   -49.999997
	   37 D(3,5,7,10)     =   -168.456588    -0.000000    -0.002421  -168.459010
	   38 D(4,2,3,5)      =      2.553099    -0.000000    -0.022291     2.530808
	   39 D(4,2,3,6)      =   -179.660741     0.000001     0.032953  -179.627788
	   40 D(5,7,8,11)     =    175.235907     0.000000     0.047643   175.283550
	   41 D(5,7,8,12)     =    -65.619382     0.000000     0.038653   -65.580729
	   42 D(5,7,8,13)     =     55.746364    -0.000000     0.025751    55.772115
	   43 D(6,3,5,7)      =     20.165887    -0.000000     0.077616    20.243503
	   44 D(9,7,8,11)     =    -59.154512     0.000000     0.044149   -59.110363
	   45 D(9,7,8,12)     =     59.990200     0.000000     0.035159    60.025358
	   46 D(9,7,8,13)     =   -178.644055    -0.000000     0.022257  -178.621797
	   47 D(10,7,8,11)    =     57.679067     0.000000     0.042067    57.721134
	   48 D(10,7,8,12)    =    176.823779     0.000000     0.033076   176.856855
	   49 D(10,7,8,13)    =    -61.810476    -0.000000     0.020175   -61.790301
	   50 R(3,12)         =      2.922279    -0.000264    -0.000632     2.921647
	 ---------------------------------------------------------------------------

  ==> Convergence Check <==

  Measures of convergence in internal coordinates in au.
  Criteria marked as inactive (o), active & met (*), and active & unmet ( ).
  ---------------------------------------------------------------------------------------------
   Step     Total Energy     Delta E     MAX Force     RMS Force      MAX Disp      RMS Disp   
  ---------------------------------------------------------------------------------------------
    Convergence Criteria    1.00e-06 *    3.00e-04 *             o    1.20e-03 *             o
  ---------------------------------------------------------------------------------------------
      6    -527.53533492   -3.49e-07 *    5.12e-05 *    2.19e-05 o    2.25e-03      5.10e-04 o  ~
  ---------------------------------------------------------------------------------------------


  **** Optimization is complete! (in 6 steps) ****

  ==> Optimization Summary <==

  Measures of convergence in internal coordinates in au.
  --------------------------------------------------------------------------------------------------------------- ~
   Step         Total Energy             Delta E       MAX Force       RMS Force        MAX Disp        RMS Disp  ~
  --------------------------------------------------------------------------------------------------------------- ~
      1    -527.534696529085   -527.534696529085      0.00378288      0.00100943      0.12665668      0.03182334  ~
      2    -527.535188669585     -0.000492140500      0.00176198      0.00066900      0.04293467      0.01648361  ~
      3    -527.535306980599     -0.000118311014      0.00075946      0.00025688      0.03440577      0.01571985  ~
      4    -527.535332463582     -0.000025482983      0.00031032      0.00012807      0.00810318      0.00173562  ~
      5    -527.535334566798     -0.000002103216      0.00012631      0.00004377      0.00448218      0.00087222  ~
      6    -527.535334916136     -0.000000349338      0.00005122      0.00002189      0.00225305      0.00050953  ~
  --------------------------------------------------------------------------------------------------------------- ~

	Writing optimization data to binary file.
	Final energy is   -527.5353349161364
	Final (previous) structure:
	Cartesian Geometry (in Angstrom)
	    H    -3.6856094027   1.3118564109  -0.0346236931
	    C    -3.0496415088   0.5437014531   0.3607192466
	    C    -2.0237056640   0.1177324801  -0.3388416814
	    H    -3.2763632716   0.1371528535   1.3284317899
	    O    -1.2250205251  -0.8929017367   0.0988822455
	    H    -1.7741319830   0.5134895663  -1.3074907742
	    C     0.0281318455  -1.0349076260  -0.4766685168
	    C     1.0157622938   0.0193974639  -0.0267574446
	    H    -0.0158501535  -1.0349472353  -1.5608846260
	    H     0.4137708076  -1.9907224296  -0.1543008075
	    F     2.2054225115  -0.2527208228  -0.5424414102
	    F     0.6758140978   1.2331524870  -0.4291043244
	    F     1.1375730122   0.0513546253   1.2841701256
	Saving final (previous) structure.
			--------------------------
			 OPTKING Finished Execution 
			--------------------------

    Final optimized geometry and variables:
    Molecular point group: c1
    Full point group: C1

    Geometry (in Angstrom), charge = 0, multiplicity = 1:

    H           -3.685609121285     1.311856310770    -0.034623690420
    C           -3.049641275965     0.543701411575     0.360719219087
    C           -2.023705509449     0.117732471107    -0.338841655480
    H           -3.276363021420     0.137152843045     1.328431688412
    O           -1.225020431600    -0.892901668560     0.098882237910
    H           -1.774131847542     0.513489527120    -1.307490674348
    C            0.028131843311    -1.034907546993    -0.476668480368
    C            1.015762216187     0.019397462463    -0.026757442533
    H           -0.015850152308    -1.034947156220    -1.560884506802
    H            0.413770775965    -1.990722277563    -0.154300795702
    F            2.205422343119    -0.252720803503    -0.542441368732
    F            0.675814046230     1.233152392834    -0.429104291606
    F            1.137572925323     0.051354621406     1.284170027501

	Cleaning optimization helper files.


Properties will be evaluated at   0.000000,   0.000000,   0.000000 Bohr

Properties computed using the  density matrix

  Nuclear Dipole Moment: (a.u.)
     X:   -11.6138      Y:    -1.9743      Z:    -1.9152

  Electronic Dipole Moment: (a.u.)
     X:    11.3993      Y:     1.6916      Z:     1.2626

  Dipole Moment: (a.u.)
     X:    -0.2145      Y:    -0.2827      Z:    -0.6526     Total:     0.7428

  Dipole Moment: (Debye)
     X:    -0.5452      Y:    -0.7185      Z:    -1.6587     Total:     1.8880

  Quadrupole Moment: (Debye Ang)
    XX:   -46.3310     YY:   -44.0972     ZZ:   -43.2806
    XY:    -3.6059     XZ:     0.4957     YZ:     0.4996

  Traceless Quadrupole Moment: (Debye Ang)
    XX:    -1.7614     YY:     0.4724     ZZ:     1.2890
    XY:    -3.6059     XZ:     0.4957     YZ:     0.4996

  Mulliken Charges: (a.u.)
   Center  Symbol    Alpha    Beta     Spin     Total
       1     H     0.40695  0.40695  0.00000  0.18609
       2     C     3.23286  3.23286  0.00000 -0.46573
       3     C     2.89883  2.89883  0.00000  0.20235
       4     H     0.40183  0.40183  0.00000  0.19635
       5     O     4.30137  4.30137  0.00000 -0.60274
       6     H     0.40633  0.40633  0.00000  0.18734
       7     C     3.06245  3.06245  0.00000 -0.12489
       8     C     2.45868  2.45868  0.00000  1.08263
       9     H     0.40552  0.40552  0.00000  0.18897
      10     H     0.38927  0.38927  0.00000  0.22145
      11     F     4.68250  4.68250  0.00000 -0.36500
      12     F     4.67932  4.67932  0.00000 -0.35864
      13     F     4.67409  4.67409  0.00000 -0.34818

   Total alpha = 32.00000, Total beta = 32.00000, Total charge =  0.00000


*** PSI4 exiting successfully. Buy a developer a beer!
