    -----------------------------------------------------------------------
          Psi4: An Open-Source Ab Initio Electronic Structure Package
                              Psi4 1.0.54 Driver

                          Git: Rev {master} 8d4cec3 dirty

    J. M. Turney, A. C. Simmonett, R. M. Parrish, E. G. Hohenstein,
    F. A. Evangelista, J. T. Fermann, B. J. Mintz, L. A. Burns, J. J. Wilke,
    M. L. Abrams, N. J. Russ, M. L. Leininger, C. L. Janssen, E. T. Seidl,
    W. D. Allen, H. F. Schaefer, R. A. King, E. F. Valeev, C. D. Sherrill,
    and T. D. Crawford, WIREs Comput. Mol. Sci. 2, 556-565 (2012)
    (doi: 10.1002/wcms.93)

                         Additional Contributions by
    A. E. DePrince, U. Bozkaya, A. Yu. Sokolov, D. G. A. Smith, R. Di Remigio,
    R. M. Richard, J. F. Gonthier, H. R. McAlexander, M. Saitow, and
    B. P. Pritchard
    -----------------------------------------------------------------------


    Psi4 started on: Sat Sep 10 18:30:52 2016

    Process ID:  34157
    PSI4DATADIR: /export131/home/mjharvey/miniconda3/share/psi4
    Memory level set to 256.000 MB

  ==> Input File <==

--------------------------------------------------------------------------
set {
	reference rhf
	basis cc-pvtz
}


set_num_threads( 4 )
memory 2 gb

molecule MOL {
0 1

H	 -2.849538	 2.897841	 -1.217445
C	 -3.379816	 2.202470	 -0.552501
C	 -2.653809	 0.914422	 -0.273689
O	 -4.443573	 2.489050	 -0.124015
C	 -1.216901	 1.136108	 0.207794
H	 -3.230372	 0.341841	 0.441197
H	 -2.635563	 0.359798	 -1.209297
C	 -0.247837	 0.040196	 -0.230469
H	 -0.872882	 2.093195	 -0.169002
H	 -1.209325	 1.218376	 1.291938
C	 1.181757	 0.280428	 0.247371
H	 -0.259600	 -0.030819	 -1.314870
H	 -0.591284	 -0.923375	 0.136958
C	 2.151032	 -0.811012	 -0.202643
H	 1.515939	 1.247397	 -0.115449
H	 1.191514	 0.341223	 1.333422
C	 3.580021	 -0.656538	 0.320835
H	 2.170545	 -0.847575	 -1.289412
H	 1.766632	 -1.772905	 0.124928
C	 4.327657	 0.562694	 -0.213579
H	 4.138806	 -1.549270	 0.057813
H	 3.561991	 -0.620783	 1.406976
H	 4.355973	 0.557257	 -1.298551
H	 3.867136	 1.491650	 0.100501
H	 5.351524	 0.571613	 0.142204

	symmetry c1
}
set optking {
	frozen_dihedral = ("
		6 3 5 8
	")
}

ee,wfn = optimize('scf', return_wfn=True)
oeprop( wfn, 'DIPOLE', 'QUADRUPOLE', 'MULLIKEN_CHARGES')
f=open( 'psi4out.xyz', 'w' )
f.write( "25  " )
f.write( str(ee) + "\n" )
f.write( MOL.save_string_xyz() )
f.close()
--------------------------------------------------------------------------

  Memory set to   2.000 GiB by Python script.
gradient() will perform analytic gradient computation.

*** tstart() called on cx1-27-2-1
*** at Sat Sep 10 18:30:53 2016


         ---------------------------------------------------------
                                   SCF
            by Justin Turney, Rob Parrish, and Andy Simmonett
                              RHF Reference
                        4 Threads,   2000 MiB Core
         ---------------------------------------------------------

  ==> Geometry <==

    Molecular point group: c1
    Full point group: C1

    Geometry (in Angstrom), charge = 0, multiplicity = 1:

       Center              X                  Y                   Z               Mass       
    ------------   -----------------  -----------------  -----------------  -----------------
           H         -2.773277517775     2.201190943765    -1.124277592827     1.007825032070
           C         -3.303555517775     1.505819943765    -0.459333592827    12.000000000000
           C         -2.577548517775     0.217771943765    -0.180521592827    12.000000000000
           O         -4.367312517775     1.792399943765    -0.030847592827    15.994914619560
           C         -1.140640517775     0.439457943765     0.300961407173    12.000000000000
           H         -3.154111517775    -0.354809056235     0.534364407173     1.007825032070
           H         -2.559302517775    -0.336852056235    -1.116129592827     1.007825032070
           C         -0.171576517775    -0.656454056235    -0.137301592827    12.000000000000
           H         -0.796621517775     1.396544943765    -0.075834592827     1.007825032070
           H         -1.133064517775     0.521725943765     1.385105407173     1.007825032070
           C          1.258017482225    -0.416222056235     0.340538407173    12.000000000000
           H         -0.183339517775    -0.727469056235    -1.221702592827     1.007825032070
           H         -0.515023517775    -1.620025056235     0.230125407173     1.007825032070
           C          2.227292482225    -1.507662056235    -0.109475592827    12.000000000000
           H          1.592199482225     0.550746943765    -0.022281592827     1.007825032070
           H          1.267774482225    -0.355427056235     1.426589407173     1.007825032070
           C          3.656281482225    -1.353188056235     0.414002407173    12.000000000000
           H          2.246805482225    -1.544225056235    -1.196244592827     1.007825032070
           H          1.842892482225    -2.469555056235     0.218095407173     1.007825032070
           C          4.403917482225    -0.133956056235    -0.120411592827    12.000000000000
           H          4.215066482225    -2.245920056235     0.150980407173     1.007825032070
           H          3.638251482225    -1.317433056235     1.500143407173     1.007825032070
           H          4.432233482225    -0.139393056235    -1.205383592827     1.007825032070
           H          3.943396482225     0.794999943765     0.193668407173     1.007825032070
           H          5.427784482225    -0.125037056235     0.235371407173     1.007825032070

  Running in c1 symmetry.

  Rotational constants: A =      0.20661  B =      0.01333  C =      0.01291 [cm^-1]
  Rotational constants: A =   6193.89260  B =    399.68984  C =    386.93500 [MHz]
  Nuclear repulsion =  432.417492333272207

  Charge       = 0
  Multiplicity = 1
  Electrons    = 72
  Nalpha       = 36
  Nbeta        = 36

  ==> Algorithm <==

  SCF Algorithm Type is DF.
  DIIS enabled.
  MOM disabled.
  Fractional occupation disabled.
  Guess Type is SAD.
  Energy threshold   = 1.00e-08
  Density threshold  = 1.00e-08
  Integral threshold = 0.00e+00

  ==> Primary Basis <==

  Basis Set: CC-PVTZ
    Number of shells: 186
    Number of basis function: 494
    Number of Cartesian functions: 555
    Spherical Harmonics?: true
    Max angular momentum: 3

  ==> Pre-Iterations <==

   -------------------------------------------------------
    Irrep   Nso     Nmo     Nalpha   Nbeta   Ndocc  Nsocc
   -------------------------------------------------------
     A        494     494       0       0       0       0
   -------------------------------------------------------
    Total     494     494      36      36      36       0
   -------------------------------------------------------

  ==> Integral Setup <==

  ==> DFJK: Density-Fitted J/K Matrices <==

    J tasked:                  Yes
    K tasked:                  Yes
    wK tasked:                  No
    OpenMP threads:              4
    Integrals threads:           4
    Memory (MB):              1430
    Algorithm:                Core
    Integral Cache:           NONE
    Schwarz Cutoff:          1E-12
    Fitting Condition:       1E-12

   => Auxiliary Basis Set <=

  Basis Set: 
    Number of shells: 385
    Number of basis function: 1191
    Number of Cartesian functions: 1424
    Spherical Harmonics?: true
    Max angular momentum: 4

  Minimum eigenvalue in the overlap matrix is 2.4534024624E-04.
  Using Symmetric Orthogonalization.
  SCF Guess: Superposition of Atomic Densities via on-the-fly atomic UHF.

  ==> Iterations <==

                           Total Energy        Delta E     RMS |[F,P]|

   @DF-RHF iter   0:  -391.78264585690397   -3.91783e+02   1.21301e-02 
   @DF-RHF iter   1:  -386.96266532929747    4.81998e+00   1.26599e-03 
   @DF-RHF iter   2:  -387.19420200941215   -2.31537e-01   7.52165e-04 DIIS
   @DF-RHF iter   3:  -387.24676165565472   -5.25596e-02   2.29603e-04 DIIS
   @DF-RHF iter   4:  -387.25690075783598   -1.01391e-02   7.02798e-05 DIIS
   @DF-RHF iter   5:  -387.25811273623083   -1.21198e-03   2.66150e-05 DIIS
   @DF-RHF iter   6:  -387.25837436529162   -2.61629e-04   1.08610e-05 DIIS
   @DF-RHF iter   7:  -387.25842083797863   -4.64727e-05   3.61874e-06 DIIS
   @DF-RHF iter   8:  -387.25842770953909   -6.87156e-06   1.56410e-06 DIIS
   @DF-RHF iter   9:  -387.25842940652899   -1.69699e-06   6.89448e-07 DIIS
   @DF-RHF iter  10:  -387.25842977716843   -3.70639e-07   2.89820e-07 DIIS
   @DF-RHF iter  11:  -387.25842983401594   -5.68475e-08   9.77614e-08 DIIS
   @DF-RHF iter  12:  -387.25842983837799   -4.36205e-09   2.99533e-08 DIIS
   @DF-RHF iter  13:  -387.25842983867676   -2.98769e-10   9.32059e-09 DIIS

  ==> Post-Iterations <==

    Orbital Energies (a.u.)
    -----------------------

    Doubly Occupied:                                                      

       1A    -20.551717     2A    -11.321423     3A    -11.233352  
       4A    -11.232707     5A    -11.224845     6A    -11.219184  
       7A    -11.218011     8A    -11.217230     9A    -11.210230  
      10A     -1.406597    11A     -1.106330    12A     -1.072191  
      13A     -1.016692    14A     -0.945844    15A     -0.876241  
      16A     -0.815547    17A     -0.795875    18A     -0.782839  
      19A     -0.677156    20A     -0.660610    21A     -0.637734  
      22A     -0.622825    23A     -0.608961    24A     -0.596035  
      25A     -0.573154    26A     -0.555019    27A     -0.538333  
      28A     -0.524398    29A     -0.512538    30A     -0.498920  
      31A     -0.486750    32A     -0.478964    33A     -0.467203  
      34A     -0.461207    35A     -0.452784    36A     -0.410481  

    Virtual:                                                              

      37A      0.134436    38A      0.143696    39A      0.149107  
      40A      0.153729    41A      0.155761    42A      0.173518  
      43A      0.175470    44A      0.189612    45A      0.205605  
      46A      0.212977    47A      0.219007    48A      0.228809  
      49A      0.237867    50A      0.245999    51A      0.261356  
      52A      0.267963    53A      0.274246    54A      0.302669  
      55A      0.311301    56A      0.327810    57A      0.344272  
      58A      0.356131    59A      0.362213    60A      0.382139  
      61A      0.384073    62A      0.400955    63A      0.413230  
      64A      0.434554    65A      0.440583    66A      0.442286  
      67A      0.460800    68A      0.470403    69A      0.472794  
      70A      0.499443    71A      0.502145    72A      0.516965  
      73A      0.531677    74A      0.543414    75A      0.552686  
      76A      0.553806    77A      0.583542    78A      0.587565  
      79A      0.593799    80A      0.604594    81A      0.612197  
      82A      0.619510    83A      0.629961    84A      0.634254  
      85A      0.637303    86A      0.642591    87A      0.648874  
      88A      0.657038    89A      0.659331    90A      0.666103  
      91A      0.671883    92A      0.677176    93A      0.685257  
      94A      0.690582    95A      0.698884    96A      0.706325  
      97A      0.719485    98A      0.727218    99A      0.730784  
     100A      0.743997   101A      0.773373   102A      0.788227  
     103A      0.805648   104A      0.808001   105A      0.841962  
     106A      0.856369   107A      0.866359   108A      0.877427  
     109A      0.890085   110A      0.909939   111A      0.917796  
     112A      0.931455   113A      0.938937   114A      0.945566  
     115A      0.972949   116A      0.980947   117A      0.985949  
     118A      1.004142   119A      1.016639   120A      1.036580  
     121A      1.044446   122A      1.050794   123A      1.060227  
     124A      1.096500   125A      1.105584   126A      1.129791  
     127A      1.138676   128A      1.155473   129A      1.163935  
     130A      1.173560   131A      1.197277   132A      1.216448  
     133A      1.229127   134A      1.238561   135A      1.247152  
     136A      1.249088   137A      1.262029   138A      1.268535  
     139A      1.273945   140A      1.292844   141A      1.301271  
     142A      1.308826   143A      1.318566   144A      1.327686  
     145A      1.336653   146A      1.344280   147A      1.359870  
     148A      1.363097   149A      1.382305   150A      1.386595  
     151A      1.388940   152A      1.400343   153A      1.404248  
     154A      1.417581   155A      1.421556   156A      1.433143  
     157A      1.435390   158A      1.445860   159A      1.462930  
     160A      1.473483   161A      1.487174   162A      1.488555  
     163A      1.493812   164A      1.501563   165A      1.527560  
     166A      1.531511   167A      1.533167   168A      1.547215  
     169A      1.555210   170A      1.562563   171A      1.576426  
     172A      1.592239   173A      1.603534   174A      1.605532  
     175A      1.618829   176A      1.628754   177A      1.656584  
     178A      1.668566   179A      1.678287   180A      1.690573  
     181A      1.693173   182A      1.713413   183A      1.722631  
     184A      1.740846   185A      1.748906   186A      1.769023  
     187A      1.777821   188A      1.795750   189A      1.817647  
     190A      1.822743   191A      1.832839   192A      1.843800  
     193A      1.848136   194A      1.865215   195A      1.894546  
     196A      1.925351   197A      1.972926   198A      1.978512  
     199A      1.991071   200A      2.020189   201A      2.050314  
     202A      2.075315   203A      2.198584   204A      2.310958  
     205A      2.374067   206A      2.443990   207A      2.448196  
     208A      2.520274   209A      2.550875   210A      2.569902  
     211A      2.602343   212A      2.637457   213A      2.645628  
     214A      2.653222   215A      2.668482   216A      2.694592  
     217A      2.701300   218A      2.709130   219A      2.727518  
     220A      2.753707   221A      2.766956   222A      2.775256  
     223A      2.793945   224A      2.799958   225A      2.813197  
     226A      2.814062   227A      2.831509   228A      2.846678  
     229A      2.857059   230A      2.869820   231A      2.885600  
     232A      2.901776   233A      2.917561   234A      2.924888  
     235A      2.933496   236A      2.948188   237A      2.966249  
     238A      2.968501   239A      2.987342   240A      2.998694  
     241A      3.014477   242A      3.021957   243A      3.032078  
     244A      3.035013   245A      3.057150   246A      3.073214  
     247A      3.089466   248A      3.092805   249A      3.111491  
     250A      3.138988   251A      3.147098   252A      3.147990  
     253A      3.160967   254A      3.186365   255A      3.205397  
     256A      3.223676   257A      3.234131   258A      3.250306  
     259A      3.255864   260A      3.272046   261A      3.276567  
     262A      3.291416   263A      3.306098   264A      3.315817  
     265A      3.327193   266A      3.335399   267A      3.342561  
     268A      3.356522   269A      3.358509   270A      3.370308  
     271A      3.384688   272A      3.390098   273A      3.405270  
     274A      3.411916   275A      3.414627   276A      3.422584  
     277A      3.428509   278A      3.434097   279A      3.438774  
     280A      3.444793   281A      3.459339   282A      3.474612  
     283A      3.479236   284A      3.490489   285A      3.497142  
     286A      3.511342   287A      3.519323   288A      3.526574  
     289A      3.534847   290A      3.547787   291A      3.563570  
     292A      3.569052   293A      3.574484   294A      3.581047  
     295A      3.599006   296A      3.606232   297A      3.627157  
     298A      3.639135   299A      3.646610   300A      3.661658  
     301A      3.670898   302A      3.692604   303A      3.712908  
     304A      3.733110   305A      3.737322   306A      3.755540  
     307A      3.767771   308A      3.777583   309A      3.794405  
     310A      3.806196   311A      3.833017   312A      3.839362  
     313A      3.850486   314A      3.859074   315A      3.873730  
     316A      3.884610   317A      3.900328   318A      3.909882  
     319A      3.921989   320A      3.925032   321A      3.939502  
     322A      3.944119   323A      3.952525   324A      3.968149  
     325A      3.991520   326A      4.011231   327A      4.029554  
     328A      4.039074   329A      4.052297   330A      4.056243  
     331A      4.078386   332A      4.102212   333A      4.109753  
     334A      4.114592   335A      4.125044   336A      4.133130  
     337A      4.136157   338A      4.144880   339A      4.153232  
     340A      4.160032   341A      4.169099   342A      4.177337  
     343A      4.188419   344A      4.197376   345A      4.198218  
     346A      4.207967   347A      4.241272   348A      4.249573  
     349A      4.259535   350A      4.274941   351A      4.278757  
     352A      4.296728   353A      4.299517   354A      4.306302  
     355A      4.331559   356A      4.338018   357A      4.341661  
     358A      4.354753   359A      4.374537   360A      4.378135  
     361A      4.388295   362A      4.400776   363A      4.404011  
     364A      4.422643   365A      4.424226   366A      4.440229  
     367A      4.450727   368A      4.466701   369A      4.486967  
     370A      4.493063   371A      4.509070   372A      4.513136  
     373A      4.531082   374A      4.544479   375A      4.550824  
     376A      4.567228   377A      4.573815   378A      4.585121  
     379A      4.600371   380A      4.611657   381A      4.617737  
     382A      4.633568   383A      4.651074   384A      4.657034  
     385A      4.661851   386A      4.668703   387A      4.680776  
     388A      4.698278   389A      4.703807   390A      4.716944  
     391A      4.749166   392A      4.757197   393A      4.776781  
     394A      4.789440   395A      4.802619   396A      4.818052  
     397A      4.837641   398A      4.864325   399A      4.884443  
     400A      4.923408   401A      4.945474   402A      4.953586  
     403A      4.990972   404A      5.008354   405A      5.020505  
     406A      5.034074   407A      5.048528   408A      5.055711  
     409A      5.075465   410A      5.086844   411A      5.127836  
     412A      5.146867   413A      5.155522   414A      5.187711  
     415A      5.193689   416A      5.196709   417A      5.217291  
     418A      5.233789   419A      5.252136   420A      5.263429  
     421A      5.267349   422A      5.288076   423A      5.293667  
     424A      5.318474   425A      5.347551   426A      5.366703  
     427A      5.372480   428A      5.381207   429A      5.396214  
     430A      5.407818   431A      5.431514   432A      5.446090  
     433A      5.468117   434A      5.493928   435A      5.511437  
     436A      5.545194   437A      5.564012   438A      5.572605  
     439A      5.594638   440A      5.614735   441A      5.629754  
     442A      5.639553   443A      5.679480   444A      5.718999  
     445A      5.740396   446A      5.747894   447A      5.755883  
     448A      5.777904   449A      5.790177   450A      5.799521  
     451A      5.807158   452A      5.826181   453A      5.845483  
     454A      5.858754   455A      5.879183   456A      5.889882  
     457A      5.913215   458A      5.932228   459A      5.942708  
     460A      5.946619   461A      5.968127   462A      5.996208  
     463A      6.001489   464A      6.038873   465A      6.058541  
     466A      6.099970   467A      6.123311   468A      6.165401  
     469A      6.281958   470A      6.321532   471A      6.340052  
     472A      6.347320   473A      6.368695   474A      6.416177  
     475A      6.430137   476A      6.465009   477A      6.531043  
     478A      6.787125   479A      6.791153   480A      6.914622  
     481A      6.974842   482A      7.362355   483A      7.388054  
     484A      7.542808   485A      7.589079   486A     10.885922  
     487A     12.998403   488A     13.312805   489A     13.480112  
     490A     13.521438   491A     13.794213   492A     14.027108  
     493A     14.264165   494A     14.335479  

    Final Occupation by Irrep:
              A 
    DOCC [    36 ]

  Energy converged.

  @DF-RHF Final Energy:  -387.25842983867676

   => Energetics <=

    Nuclear Repulsion Energy =            432.4174923332722074
    One-Electron Energy =               -1381.3319904438603771
    Two-Electron Energy =                 561.6560682719116357
    DFT Exchange-Correlation Energy =       0.0000000000000000
    Empirical Dispersion Energy =           0.0000000000000000
    PCM Polarization Energy =               0.0000000000000000
    EFP Energy =                            0.0000000000000000
    Total Energy =                       -387.2584298386765340


  Saving occupied orbitals to File 180.

*** tstop() called on cx1-27-2-1 at Sat Sep 10 18:31:15 2016
Module time:
	user time   =      78.97 seconds =       1.32 minutes
	system time =       1.57 seconds =       0.03 minutes
	total time  =         22 seconds =       0.37 minutes
Total time:
	user time   =      78.97 seconds =       1.32 minutes
	system time =       1.57 seconds =       0.03 minutes
	total time  =         22 seconds =       0.37 minutes


Properties will be evaluated at   0.000000,   0.000000,   0.000000 Bohr

Properties computed using the SCF density matrix

  Nuclear Dipole Moment: (a.u.)
     X:    16.3769      Y:    -5.4015      Z:    -0.0821

  Electronic Dipole Moment: (a.u.)
     X:   -15.1801      Y:     4.8858      Z:    -0.2036

  Dipole Moment: (a.u.)
     X:     1.1968      Y:    -0.5156      Z:    -0.2857     Total:     1.3341

  Dipole Moment: (Debye)
     X:     3.0420      Y:    -1.3106      Z:    -0.7261     Total:     3.3909


*** tstart() called on cx1-27-2-1
*** at Sat Sep 10 18:31:15 2016


         ------------------------------------------------------------
                                   SCF GRAD                          
                          Rob Parrish, Justin Turney,                
                       Andy Simmonett, and Alex Sokolov              
         ------------------------------------------------------------

  ==> Geometry <==

    Molecular point group: c1
    Full point group: C1

    Geometry (in Angstrom), charge = 0, multiplicity = 1:

       Center              X                  Y                   Z               Mass       
    ------------   -----------------  -----------------  -----------------  -----------------
           H         -2.773277517775     2.201190943765    -1.124277592827     1.007825032070
           C         -3.303555517775     1.505819943765    -0.459333592827    12.000000000000
           C         -2.577548517775     0.217771943765    -0.180521592827    12.000000000000
           O         -4.367312517775     1.792399943765    -0.030847592827    15.994914619560
           C         -1.140640517775     0.439457943765     0.300961407173    12.000000000000
           H         -3.154111517775    -0.354809056235     0.534364407173     1.007825032070
           H         -2.559302517775    -0.336852056235    -1.116129592827     1.007825032070
           C         -0.171576517775    -0.656454056235    -0.137301592827    12.000000000000
           H         -0.796621517775     1.396544943765    -0.075834592827     1.007825032070
           H         -1.133064517775     0.521725943765     1.385105407173     1.007825032070
           C          1.258017482225    -0.416222056235     0.340538407173    12.000000000000
           H         -0.183339517775    -0.727469056235    -1.221702592827     1.007825032070
           H         -0.515023517775    -1.620025056235     0.230125407173     1.007825032070
           C          2.227292482225    -1.507662056235    -0.109475592827    12.000000000000
           H          1.592199482225     0.550746943765    -0.022281592827     1.007825032070
           H          1.267774482225    -0.355427056235     1.426589407173     1.007825032070
           C          3.656281482225    -1.353188056235     0.414002407173    12.000000000000
           H          2.246805482225    -1.544225056235    -1.196244592827     1.007825032070
           H          1.842892482225    -2.469555056235     0.218095407173     1.007825032070
           C          4.403917482225    -0.133956056235    -0.120411592827    12.000000000000
           H          4.215066482225    -2.245920056235     0.150980407173     1.007825032070
           H          3.638251482225    -1.317433056235     1.500143407173     1.007825032070
           H          4.432233482225    -0.139393056235    -1.205383592827     1.007825032070
           H          3.943396482225     0.794999943765     0.193668407173     1.007825032070
           H          5.427784482225    -0.125037056235     0.235371407173     1.007825032070

  Nuclear repulsion =  432.417492333272207

  ==> Basis Set <==

  Basis Set: CC-PVTZ
    Number of shells: 186
    Number of basis function: 494
    Number of Cartesian functions: 555
    Spherical Harmonics?: true
    Max angular momentum: 3

  ==> DFJKGrad: Density-Fitted SCF Gradients <==

    Gradient:                    1
    J tasked:                  Yes
    K tasked:                  Yes
    wK tasked:                  No
    OpenMP threads:              4
    Integrals threads:           4
    Memory (MB):              1430
    Schwarz Cutoff:          0E+00
    Fitting Condition:       1E-12

   => Auxiliary Basis Set <=

  Basis Set: 
    Number of shells: 385
    Number of basis function: 1191
    Number of Cartesian functions: 1424
    Spherical Harmonics?: true
    Max angular momentum: 4


  -Total Gradient:
     Atom            X                  Y                   Z
    ------   -----------------  -----------------  -----------------
       1        0.000030059070     0.000272344902    -0.000104698091
       2        0.001204759286    -0.000064146901    -0.001167767247
       3        0.001648816707     0.002904519811    -0.001058703612
       4       -0.000616693810     0.000101015731    -0.000038030722
       5       -0.000348217081    -0.000978334437    -0.001371653163
       6        0.000387293216     0.000565630711     0.001662517444
       7        0.000940508474    -0.000719409701     0.000617098271
       8       -0.000539882634    -0.000308048424    -0.000972819457
       9       -0.003648804974    -0.000515533495     0.000787842941
      10        0.000265730589    -0.000705108311     0.001825482267
      11       -0.000061127873     0.000175739816    -0.000106723972
      12       -0.000292955285    -0.000424978184     0.000262129516
      13        0.000994837222    -0.000374862835    -0.000519281020
      14        0.000012115791    -0.000107008683    -0.000046459939
      15        0.000012642505     0.000030227930    -0.000009297660
      16        0.000065884276     0.000009200331     0.000166157534
      17       -0.000055669543     0.000038880527    -0.000029535298
      18       -0.000077271471    -0.000001140769     0.000103260906
      19        0.000006861211     0.000083230799    -0.000070653132
      20        0.000045064427    -0.000039427549    -0.000004346896
      21       -0.000018154722     0.000017654277     0.000002346540
      22        0.000041880418    -0.000000997983     0.000055801519
      23       -0.000010824696     0.000004433369     0.000018504478
      24       -0.000023719982     0.000021680809    -0.000006936454
      25        0.000036868872     0.000014438257     0.000005765245


*** tstop() called on cx1-27-2-1 at Sat Sep 10 18:31:36 2016
Module time:
	user time   =      78.32 seconds =       1.31 minutes
	system time =       1.17 seconds =       0.02 minutes
	total time  =         21 seconds =       0.35 minutes
Total time:
	user time   =     157.48 seconds =       2.62 minutes
	system time =       2.75 seconds =       0.05 minutes
	total time  =         43 seconds =       0.72 minutes

			-----------------------------------------
			 OPTKING 2.0: for geometry optimizations 
			  - R.A. King,  Bethel University        
			-----------------------------------------

	Internal coordinates to be generated automatically.
	Detected frag 1 with atoms:  1 2 3 4 5 6 7 8 9 10 11 12 13 14 15 16 17 18 19 20
	 21 22 23 24 25
	---Fragment 1 Bond Connectivity---
	 1 : 2
	 2 : 1 3 4
	 3 : 2 5 6 7
	 4 : 2
	 5 : 3 8 9 10
	 6 : 3
	 7 : 3
	 8 : 5 11 12 13
	 9 : 5
	 10 : 5
	 11 : 8 14 15 16
	 12 : 8
	 13 : 8
	 14 : 11 17 18 19
	 15 : 11
	 16 : 11
	 17 : 14 20 21 22
	 18 : 14
	 19 : 14
	 20 : 17 23 24 25
	 21 : 17
	 22 : 17
	 23 : 20
	 24 : 20
	 25 : 20

	Assuming in current code that numbering for constraints corresponds to unified fragment.
	Frozen dihedral atom list: 
	     6     3     5     8
	---Fragment 1 Geometry and Gradient---
	 H          -5.2407349991        4.1596480499       -2.1245767478
	 C          -6.2428151934        2.8455872992       -0.8680146941
	 C          -4.8708607928        0.4115293331       -0.3411363715
	 O          -8.2530245953        3.3871450143       -0.0582935023
	 C          -2.1554981947        0.8304551606        0.5687346361
	 H          -5.9604069612       -0.6704919458        1.0098023847
	 H          -4.8363808498       -0.6365581336       -2.1091792593
	 C          -0.3242326294       -1.2405183851       -0.2594624081
	 H          -1.5053965002        2.6390874760       -0.1433066118
	 H          -2.1411816295        0.9859191501        2.6174698847
	 C           2.3773085118       -0.7865456968        0.6435243273
	 H          -0.3464614779       -1.3747172864       -2.3086833163
	 H          -0.9732534006       -3.0614036847        0.4348739958
	 C           4.2089728092       -2.8490683872       -0.2068788887
	 H           3.0088209703        1.0407608922       -0.0421061082
	 H           2.3957465697       -0.6716597965        2.6958632836
	 C           6.9093706661       -2.5571548326        0.7823511679
	 H           4.2458470353       -2.9181624438       -2.2605746684
	 H           3.4825620838       -4.6667827264        0.4121405904
	 C           8.3221979532       -0.2531402601       -0.2275449337
	 H           7.9653212833       -4.2441738226        0.2853116210
	 H           6.8752989040       -2.4895876747        2.8348601996
	 H           8.3757074384       -0.2634147011       -2.2778448755
	 H           7.4519393848        1.5023321694        0.3659802501
	 H          10.2570261797       -0.2362857927        0.4447874991
	             0.0000300591        0.0002723449       -0.0001046981
	             0.0012047593       -0.0000641469       -0.0011677672
	             0.0016488167        0.0029045198       -0.0010587036
	            -0.0006166938        0.0001010157       -0.0000380307
	            -0.0003482171       -0.0009783344       -0.0013716532
	             0.0003872932        0.0005656307        0.0016625174
	             0.0009405085       -0.0007194097        0.0006170983
	            -0.0005398826       -0.0003080484       -0.0009728195
	            -0.0036488050       -0.0005155335        0.0007878429
	             0.0002657306       -0.0007051083        0.0018254823
	            -0.0000611279        0.0001757398       -0.0001067240
	            -0.0002929553       -0.0004249782        0.0002621295
	             0.0009948372       -0.0003748628       -0.0005192810
	             0.0000121158       -0.0001070087       -0.0000464599
	             0.0000126425        0.0000302279       -0.0000092977
	             0.0000658843        0.0000092003        0.0001661575
	            -0.0000556695        0.0000388805       -0.0000295353
	            -0.0000772715       -0.0000011408        0.0001032609
	             0.0000068612        0.0000832308       -0.0000706531
	             0.0000450644       -0.0000394275       -0.0000043469
	            -0.0000181547        0.0000176543        0.0000023465
	             0.0000418804       -0.0000009980        0.0000558015
	            -0.0000108247        0.0000044334        0.0000185045
	            -0.0000237200        0.0000216808       -0.0000069365
	             0.0000368689        0.0000144383        0.0000057652

	Previous optimization step data not found.  Starting new optimization.

	---Fragment 1 Intrafragment Coordinates---
	 - Coordinate -           - BOHR/RAD -       - ANG/DEG -
	 R(1,2)           =         2.076022	       1.098584
	 R(2,3)           =         2.843325	       1.504623
	 R(2,4)           =         2.233803	       1.182078
	 R(3,5)           =         2.894228	       1.531560
	 R(3,6)           =         2.045218	       1.082283
	 R(3,7)           =         2.055639	       1.087797
	 R(5,8)           =         2.885892	       1.527149
	 R(5,9)           =         2.049582	       1.084592
	 R(5,10)          =         2.054675	       1.087287
	 R(8,11)          =         2.884406	       1.526362
	 R(8,12)          =         2.053731	       1.086787
	 R(8,13)          =         2.054009	       1.086935
	 R(11,14)         =         2.886552	       1.527497
	 R(11,15)         =         2.051328	       1.085516
	 R(11,16)         =         2.055635	       1.087795
	 R(14,17)         =         2.890664	       1.529673
	 R(14,18)         =         2.055189	       1.087559
	 R(14,19)         =         2.053033	       1.086418
	 R(17,20)         =         2.885213	       1.526789
	 R(17,21)         =         2.051369	       1.085538
	 R(17,22)         =         2.053903	       1.086879
	 R(20,23)         =         2.051024	       1.085355
	 R(20,24)         =         2.047268	       1.083367
	 R(20,25)         =         2.048384	       1.083958
	 B(1,2,3)         =         2.005468	     114.904860
	 B(1,2,4)         =         2.094770	     120.021459
	 B(2,3,5)         =         1.968217	     112.770544
	 B(2,3,6)         =         1.894676	     108.556934
	 B(2,3,7)         =         1.859996	     106.569943
	 B(3,2,4)         =         2.182901	     125.071003
	 B(3,5,8)         =         1.983677	     113.656345
	 B(3,5,9)         =         1.892410	     108.427100
	 B(3,5,10)        =         1.908111	     109.326725
	 B(5,3,6)         =         1.948436	     111.637166
	 B(5,3,7)         =         1.905463	     109.174996
	 B(5,8,11)        =         1.973102	     113.050431
	 B(5,8,12)        =         1.903262	     109.048898
	 B(5,8,13)        =         1.916283	     109.794953
	 B(6,3,7)         =         1.883169	     107.897628
	 B(8,5,9)         =         1.909519	     109.407389
	 B(8,5,10)        =         1.913493	     109.635049
	 B(8,11,14)       =         1.971030	     112.931703
	 B(8,11,15)       =         1.900648	     108.899117
	 B(8,11,16)       =         1.906838	     109.253797
	 B(9,5,10)        =         1.851909	     106.106588
	 B(11,8,12)       =         1.910060	     109.438355
	 B(11,8,13)       =         1.906723	     109.247208
	 B(11,14,17)      =         2.004030	     114.822470
	 B(11,14,18)      =         1.906890	     109.256746
	 B(11,14,19)      =         1.895767	     108.619471
	 B(12,8,13)       =         1.850374	     106.018613
	 B(14,11,15)      =         1.920561	     110.040048
	 B(14,11,16)      =         1.905383	     109.170388
	 B(14,17,20)      =         2.002376	     114.727695
	 B(14,17,21)      =         1.891154	     108.355155
	 B(14,17,22)      =         1.906897	     109.257145
	 B(15,11,16)      =         1.855794	     106.329170
	 B(17,14,18)      =         1.905618	     109.183880
	 B(17,14,19)      =         1.893109	     108.467179
	 B(17,20,23)      =         1.937646	     111.018922
	 B(17,20,24)      =         1.955313	     112.031206
	 B(17,20,25)      =         1.932872	     110.745407
	 B(18,14,19)      =         1.852381	     106.133603
	 B(20,17,21)      =         1.896369	     108.653922
	 B(20,17,22)      =         1.908838	     109.368356
	 B(21,17,22)      =         1.852222	     106.124486
	 B(23,20,24)      =         1.880939	     107.769838
	 B(23,20,25)      =         1.879169	     107.668446
	 B(24,20,25)      =         1.874762	     107.415931
	 D(1,2,3,5)       =         0.904080	      51.799954
	 D(1,2,3,6)       =         3.072571	     176.045357
	 D(1,2,3,7)       =        -1.186332	     -67.971804
	 D(2,3,5,8)       =        -2.573745	    -147.464724
	 D(2,3,5,9)       =        -0.446321	     -25.572326
	 D(2,3,5,10)      =         1.565354	      89.688150
	 D(3,5,8,11)      =         3.133715	     179.548647
	 D(3,5,8,12)      =         1.004858	      57.574100
	 D(3,5,8,13)      =        -1.015471	     -58.182216
	 D(4,2,3,5)       =        -2.247955	    -128.798310
	 D(4,2,3,6)       =        -0.079463	      -4.552907
	 D(4,2,3,7)       =         1.944819	     111.429932
	 D(5,8,11,14)     =        -3.132940	    -179.504257
	 D(5,8,11,15)     =        -0.993932	     -56.948104
	 D(5,8,11,16)     =         1.026198	      58.796813
	*D(6,3,5,8)       =         1.570796	      90.000009
	 D(6,3,5,9)       =        -2.584965	    -148.107593
	 D(6,3,5,10)      =        -0.573290	     -32.847117
	 D(7,3,5,8)       =        -0.509770	     -29.207690
	 D(7,3,5,9)       =         1.617653	      92.684708
	 D(7,3,5,10)      =        -2.653857	    -152.054816
	 D(8,11,14,17)    =        -3.082192	    -176.596598
	 D(8,11,14,18)    =         1.053695	      60.372289
	 D(8,11,14,19)    =        -0.959717	     -54.987714
	 D(9,5,8,11)      =         1.015815	      58.201932
	 D(9,5,8,12)      =        -1.113042	     -63.772615
	 D(9,5,8,13)      =        -3.133371	    -179.528931
	 D(10,5,8,11)     =        -1.008341	     -57.773712
	 D(10,5,8,12)     =        -3.137199	    -179.748259
	 D(10,5,8,13)     =         1.125658	      64.495425
	 D(11,14,17,20)   =        -1.155837	     -66.224578
	 D(11,14,17,21)   =         3.005228	     172.186872
	 D(11,14,17,22)   =         0.994512	      56.981338
	 D(12,8,11,14)    =        -1.007900	     -57.748430
	 D(12,8,11,15)    =         1.131108	      64.807723
	 D(12,8,11,16)    =        -3.131947	    -179.447360
	 D(13,8,11,14)    =         1.010910	      57.920864
	 D(13,8,11,15)    =        -3.133267	    -179.522983
	 D(13,8,11,16)    =        -1.113137	     -63.778066
	 D(14,17,20,23)   =        -0.985694	     -56.476110
	 D(14,17,20,24)   =         1.118185	      64.067281
	 D(14,17,20,25)   =        -3.072286	    -176.029001
	 D(15,11,14,17)   =         1.073148	      61.486861
	 D(15,11,14,18)   =        -1.074150	     -61.544252
	 D(15,11,14,19)   =        -3.087562	    -176.904256
	 D(16,11,14,17)   =        -0.957324	     -54.850647
	 D(16,11,14,18)   =        -3.104622	    -177.881761
	 D(16,11,14,19)   =         1.165151	      66.758236
	 D(18,14,17,20)   =         0.992143	      56.845579
	 D(18,14,17,21)   =        -1.129978	     -64.742971
	 D(18,14,17,22)   =        -3.140694	    -179.948506
	 D(19,14,17,20)   =         3.003427	     172.083666
	 D(19,14,17,21)   =         0.881306	      50.495116
	 D(19,14,17,22)   =        -1.129410	     -64.710419
	 D(21,17,20,23)   =         1.133579	      64.949311
	 D(21,17,20,24)   =        -3.045727	    -174.507297
	 D(21,17,20,25)   =        -0.953012	     -54.603579
	 D(22,17,20,23)   =        -3.135003	    -179.622414
	 D(22,17,20,24)   =        -1.031123	     -59.079022
	 D(22,17,20,25)   =         1.061591	      60.824695

	Current energy   :      -387.2584298387

	Generating empirical Hessian (Schlegel '84) for each fragment.
	Taking RFO optimization step.
	Going to follow RFO solution 1.
	Using RFO vector 1.
	Norm of target step-size    0.25969
	Projected energy change by RFO approximation:        -0.0011495300

	Back-transformation to cartesian coordinates...
	Could not converge backtransformation.
	Using first guess instead.

	Back-transformation to cartesian coordinates to adjust frozen coordinates...
	Successfully converged to displaced geometry.

	--- Internal Coordinate Step in ANG or DEG, aJ/ANG or AJ/DEG ---
	 ---------------------------------------------------------------------------
	   Coordinate                Previous        Force       Change         New 
	   ----------                --------       ------       ------       ------
	    1 R(1,2)          =      1.098584    -0.002062     0.001606     1.100189
	    2 R(2,3)          =      1.504623    -0.001724     0.000623     1.505246
	    3 R(2,4)          =      1.182078    -0.004660     0.002825     1.184902
	    4 R(3,5)          =      1.531560     0.031203     0.008932     1.540491
	    5 R(3,6)          =      1.082283    -0.004882     0.000646     1.082929
	    6 R(3,7)          =      1.087797     0.001221     0.001236     1.089034
	    7 R(5,8)          =      1.527149    -0.008528    -0.001822     1.525327
	    8 R(5,9)          =      1.084592     0.015538     0.004508     1.089100
	    9 R(5,10)         =      1.087287    -0.014572    -0.000676     1.086611
	   10 R(8,11)         =      1.526362    -0.000325     0.000200     1.526562
	   11 R(8,12)         =      1.086787     0.001900     0.000464     1.087252
	   12 R(8,13)         =      1.086935     0.001298     0.000443     1.087378
	   13 R(11,14)        =      1.527497     0.000478     0.000197     1.527694
	   14 R(11,15)        =      1.085516    -0.000280     0.000103     1.085619
	   15 R(11,16)        =      1.087795    -0.001376    -0.000116     1.087679
	   16 R(14,17)        =      1.529673    -0.000283     0.000255     1.529929
	   17 R(14,18)        =      1.087559     0.000861     0.000316     1.087874
	   18 R(14,19)        =      1.086418     0.000803     0.000310     1.086728
	   19 R(17,20)        =      1.526789    -0.000161     0.000235     1.527024
	   20 R(17,21)        =      1.085538     0.000201     0.000085     1.085623
	   21 R(17,22)        =      1.086879    -0.000453     0.000074     1.086953
	   22 R(20,23)        =      1.085355     0.000155     0.000176     1.085531
	   23 R(20,24)        =      1.083367    -0.000220    -0.000009     1.083358
	   24 R(20,25)        =      1.083958    -0.000303     0.000168     1.084126
	   25 B(1,2,3)        =    114.904860    -0.000011    -0.070436   114.834424
	   26 B(1,2,4)        =    120.021459     0.000012     0.158261   120.179720
	   27 B(2,3,5)        =    112.770544    -0.000039    -0.397479   112.373064
	   28 B(2,3,6)        =    108.556934    -0.000073    -1.641967   106.914967
	   29 B(2,3,7)        =    106.569943    -0.000007    -0.092346   106.477597
	   30 B(3,2,4)        =    125.071003    -0.000001    -0.090532   124.980471
	   31 B(3,5,8)        =    113.656345    -0.000056    -0.216009   113.440336
	   32 B(3,5,9)        =    108.427100     0.000206     1.336520   109.763620
	   33 B(3,5,10)       =    109.326725    -0.000042     0.031801   109.358525
	   34 B(5,3,6)        =    111.637166     0.000076     0.268379   111.905546
	   35 B(5,3,7)        =    109.174996     0.000068     1.136412   110.311408
	   36 B(5,8,11)       =    113.050431     0.000071     0.197863   113.248294
	   37 B(5,8,12)       =    109.048898    -0.000007     0.049402   109.098299
	   38 B(5,8,13)       =    109.794953    -0.000087    -0.662125   109.132828
	   39 B(6,3,7)        =    107.897628    -0.000030     0.718232   108.615860
	   40 B(8,5,9)        =    109.407389    -0.000125    -1.433604   107.973785
	   41 B(8,5,10)       =    109.635049     0.000039     0.424828   110.059878
	   42 B(8,11,14)      =    112.931703     0.000004     0.019373   112.951076
	   43 B(8,11,15)      =    108.899117    -0.000000     0.006523   108.905640
	   44 B(8,11,16)      =    109.253797    -0.000005    -0.043489   109.210308
	   45 B(9,5,10)       =    106.106588    -0.000018    -0.138365   105.968223
	   46 B(11,8,12)      =    109.438355    -0.000031     0.028075   109.466430
	   47 B(11,8,13)      =    109.247208     0.000021     0.120251   109.367460
	   48 B(11,14,17)     =    114.822470     0.000003     0.011956   114.834425
	   49 B(11,14,18)     =    109.256746     0.000003     0.018424   109.275170
	   50 B(11,14,19)     =    108.619471    -0.000000    -0.007261   108.612210
	   51 B(12,8,13)      =    106.018613     0.000032     0.271778   106.290391
	   52 B(14,11,15)     =    110.040048    -0.000001     0.003939   110.043986
	   53 B(14,11,16)     =    109.170388     0.000002    -0.000658   109.169730
	   54 B(14,17,20)     =    114.727695    -0.000003    -0.012245   114.715450
	   55 B(14,17,21)     =    108.355155     0.000002     0.018658   108.373814
	   56 B(14,17,22)     =    109.257145    -0.000002    -0.022142   109.235003
	   57 B(15,11,16)     =    106.329170     0.000001     0.013607   106.342777
	   58 B(17,14,18)     =    109.183880    -0.000004    -0.027992   109.155888
	   59 B(17,14,19)     =    108.467179    -0.000002    -0.024129   108.443050
	   60 B(17,20,23)     =    111.018922     0.000001     0.012446   111.031368
	   61 B(17,20,24)     =    112.031206     0.000001     0.001614   112.032821
	   62 B(17,20,25)     =    110.745407    -0.000002    -0.014022   110.731385
	   63 B(18,14,19)     =    106.133603     0.000002     0.030697   106.164300
	   64 B(20,17,21)     =    108.653922     0.000001     0.004114   108.658035
	   65 B(20,17,22)     =    109.368356     0.000002     0.013049   109.381406
	   66 B(21,17,22)     =    106.124486     0.000000    -0.000362   106.124124
	   67 B(23,20,24)     =    107.769838     0.000000     0.000873   107.770711
	   68 B(23,20,25)     =    107.668446     0.000000    -0.001207   107.667238
	   69 B(24,20,25)     =    107.415931     0.000000     0.000169   107.416100
	   70 D(1,2,3,5)      =     51.799954     0.000004     1.064626    52.864580
	   71 D(1,2,3,6)      =    176.045357     0.000008    -0.028392   176.016965
	   72 D(1,2,3,7)      =    -67.971804    -0.000010    -0.041385   -68.013189
	   73 D(2,3,5,8)      =   -147.464724    -0.000015    -2.227979  -149.692704
	   74 D(2,3,5,9)      =    -25.572326    -0.000026    -3.244789   -28.817115
	   75 D(2,3,5,10)     =     89.688150    -0.000011    -2.651240    87.036910
	   76 D(3,5,8,11)     =    179.548647     0.000017     4.420595   183.969241
	   77 D(3,5,8,12)     =     57.574100     0.000017     4.215248    61.789348
	   78 D(3,5,8,13)     =    -58.182216     0.000020     4.229419   -53.952797
	   79 D(4,2,3,5)      =   -128.798310     0.000006     2.509840  -126.288471
	   80 D(4,2,3,6)      =     -4.552907     0.000010     1.416822    -3.136085
	   81 D(4,2,3,7)      =    111.429932    -0.000007     1.403829   112.833761
	   82 D(5,8,11,14)    =   -179.504257    -0.000005    -0.395629  -179.899886
	   83 D(5,8,11,15)    =    -56.948104    -0.000005    -0.372778   -57.320882
	   84 D(5,8,11,16)    =     58.796813    -0.000005    -0.376794    58.420019
	   85 *D(6,3,5,8)     =     90.000009    -0.000000     0.000000    90.000009
	   86 D(6,3,5,9)      =   -148.107593    -0.000011    -1.016810  -149.124403
	   87 D(6,3,5,10)     =    -32.847117     0.000005    -0.423260   -33.270378
	   88 D(7,3,5,8)      =    -29.207690    -0.000012    -1.837311   -31.045001
	   89 D(7,3,5,9)      =     92.684708    -0.000023    -2.854120    89.830587
	   90 D(7,3,5,10)     =   -152.054816    -0.000008    -2.260571  -154.315387
	   91 D(8,11,14,17)   =   -176.596598     0.000000     0.091477  -176.505121
	   92 D(8,11,14,18)   =     60.372289     0.000001     0.105352    60.477640
	   93 D(8,11,14,19)   =    -54.987714     0.000000     0.062916   -54.924798
	   94 D(9,5,8,11)     =     58.201932    -0.000014     3.888631    62.090563
	   95 D(9,5,8,12)     =    -63.772615    -0.000015     3.683284   -60.089331
	   96 D(9,5,8,13)     =   -179.528931    -0.000011     3.697455  -175.831476
	   97 D(10,5,8,11)    =    -57.773712     0.000002     4.627593   -53.146119
	   98 D(10,5,8,12)    =   -179.748259     0.000002     4.422246  -175.326013
	   99 D(10,5,8,13)    =     64.495425     0.000005     4.436417    68.931842
	  100 D(11,14,17,20)  =    -66.224578    -0.000000     0.016548   -66.208030
	  101 D(11,14,17,21)  =    172.186872    -0.000000     0.005585   172.192458
	  102 D(11,14,17,22)  =     56.981338    -0.000000     0.007662    56.989000
	  103 D(12,8,11,14)   =    -57.748430    -0.000001    -0.177055   -57.925485
	  104 D(12,8,11,15)   =     64.807723    -0.000001    -0.154204    64.653520
	  105 D(12,8,11,16)   =   -179.447360    -0.000001    -0.158220  -179.605580
	  106 D(13,8,11,14)   =     57.920864     0.000006     0.232353    58.153217
	  107 D(13,8,11,15)   =   -179.522983     0.000006     0.255204  -179.267779
	  108 D(13,8,11,16)   =    -63.778066     0.000006     0.251188   -63.526878
	  109 D(14,17,20,23)  =    -56.476110    -0.000000     0.036605   -56.439505
	  110 D(14,17,20,24)  =     64.067281    -0.000000     0.047499    64.114780
	  111 D(14,17,20,25)  =   -176.029001    -0.000000     0.039196  -175.989805
	  112 D(15,11,14,17)  =     61.486861     0.000000     0.066776    61.553637
	  113 D(15,11,14,18)  =    -61.544252     0.000000     0.080650   -61.463602
	  114 D(15,11,14,19)  =   -176.904256    -0.000000     0.038215  -176.866040
	  115 D(16,11,14,17)  =    -54.850647    -0.000000     0.048496   -54.802151
	  116 D(16,11,14,18)  =   -177.881761     0.000000     0.062371  -177.819390
	  117 D(16,11,14,19)  =     66.758236    -0.000001     0.019935    66.778171
	  118 D(18,14,17,20)  =     56.845579     0.000000     0.027529    56.873108
	  119 D(18,14,17,21)  =    -64.742971     0.000000     0.016567   -64.726405
	  120 D(18,14,17,22)  =   -179.948506     0.000000     0.018644  -179.929862
	  121 D(19,14,17,20)  =    172.083666    -0.000000     0.035926   172.119592
	  122 D(19,14,17,21)  =     50.495116    -0.000000     0.024964    50.520080
	  123 D(19,14,17,22)  =    -64.710419    -0.000000     0.027041   -64.683378
	  124 D(21,17,20,23)  =     64.949311    -0.000000     0.055497    65.004809
	  125 D(21,17,20,24)  =   -174.507297     0.000000     0.066391  -174.440906
	  126 D(21,17,20,25)  =    -54.603579    -0.000000     0.058088   -54.545491
	  127 D(22,17,20,23)  =   -179.622414     0.000000     0.064389  -179.558025
	  128 D(22,17,20,24)  =    -59.079022     0.000000     0.075283   -59.003740
	  129 D(22,17,20,25)  =     60.824695     0.000000     0.066980    60.891675
	 ---------------------------------------------------------------------------
	Successfully symmetrized geometry.

  ==> Convergence Check <==

  Measures of convergence in internal coordinates in au.
  Criteria marked as inactive (o), active & met (*), and active & unmet ( ).
  --------------------------------------------------------------------------------------------- ~
   Step     Total Energy     Delta E     MAX Force     RMS Force      MAX Disp      RMS Disp    ~
  --------------------------------------------------------------------------------------------- ~
    Convergence Criteria    1.00e-06 *    3.00e-04 *             o    1.20e-03 *             o  ~
  --------------------------------------------------------------------------------------------- ~
      1    -387.25842984   -3.87e+02      3.79e-03      6.43e-04 o    8.08e-02      2.29e-02 o  ~
  ---------------------------------------------------------------------------------------------

	Writing optimization data to binary file.
	Structure for next step:
	Cartesian Geometry (in Angstrom)
	    H    -2.8756405043   2.1690187457  -1.1248196249
	    C    -3.3527842000   1.4715655094  -0.4203272711
	    C    -2.5844209753   0.2016676709  -0.1698429354
	    O    -4.3858903055   1.7518806226   0.0877166837
	    C    -1.1269637336   0.4712852403   0.2499641211
	    H    -3.1272106758  -0.3509515611   0.5869442775
	    H    -2.6114018595  -0.3642494298  -1.0998989165
	    C    -0.1586584151  -0.6258156929  -0.1805881940
	    H    -0.7861521021   1.4099268029  -0.1847064682
	    H    -1.0815918377   0.6067859955   1.3271382376
	    C     1.2661136231  -0.4024965761   0.3199572839
	    H    -0.1553053154  -0.6915425591  -1.2658464073
	    H    -0.5221306999  -1.5843915947   0.1819195597
	    C     2.2305401669  -1.5037328446  -0.1170900786
	    H     1.6166554631   0.5616316617  -0.0352132895
	    H     1.2588954070  -0.3443892502   1.4060592777
	    C     3.6524758005  -1.3672840832   0.4307807312
	    H     2.2683947105  -1.5374872832  -1.2037816194
	    H     1.8298257192  -2.4622980353   0.2015922649
	    C     4.4226487175  -0.1547086761  -0.0871916100
	    H     4.2056492658  -2.2655293652   0.1743999930
	    H     3.6162521745  -1.3346840265   1.5166408355
	    H     4.4685023049  -0.1565217497  -1.1717521374
	    H     3.9679261727   0.7784005011   0.2229695736
	    H     5.4408101539  -0.1590494283   0.2851758922
			--------------------------
			 OPTKING Finished Execution 
			--------------------------

    Structure for next step:
    Molecular point group: c1
    Full point group: C1

    Geometry (in Angstrom), charge = 0, multiplicity = 1:

    H           -2.873189622560     2.174195012645    -1.136733082029
    C           -3.350333318281     1.476741776354    -0.432240728288
    C           -2.581970093516     0.206843937808    -0.181756392508
    O           -4.383439423756     1.757056889515     0.075803226547
    C           -1.124512851875     0.476461507247     0.238050663929
    H           -3.124759794062    -0.345775294133     0.575030820390
    H           -2.608950977747    -0.359073162832    -1.111812373612
    C           -0.156207533362    -0.620639425948    -0.192501651109
    H           -0.783701220319     1.415103069898    -0.196619925384
    H           -1.079140955985     0.611962262451     1.315224780421
    C            1.268564504880    -0.397320309106     0.308043826740
    H           -0.152854433634    -0.686366292108    -1.277759864414
    H           -0.519679818134    -1.579215327744     0.170006102531
    C            2.232991048662    -1.498556577633    -0.129003535750
    H            1.619106344877     0.566807928604    -0.047126746607
    H            1.261346288749    -0.339212983272     1.394145820521
    C            3.654926682273    -1.362107816229     0.418867274054
    H            2.270845592245    -1.532311016214    -1.215695076513
    H            1.832276600962    -2.457121768339     0.189678807713
    C            4.425099599267    -0.149532409195    -0.099105067196
    H            4.208100147515    -2.260353098259     0.162486535799
    H            3.618703056200    -1.329507759579     1.504727378363
    H            4.470953186628    -0.151345482758    -1.183665594591
    H            3.970377054408     0.783576768049     0.211056116409
    H            5.443261035661    -0.153873161394     0.273262435034

gradient() will perform analytic gradient computation.

*** tstart() called on cx1-27-2-1
*** at Sat Sep 10 18:31:38 2016


         ---------------------------------------------------------
                                   SCF
            by Justin Turney, Rob Parrish, and Andy Simmonett
                              RHF Reference
                        4 Threads,   2000 MiB Core
         ---------------------------------------------------------

  ==> Geometry <==

    Molecular point group: c1
    Full point group: C1

    Geometry (in Angstrom), charge = 0, multiplicity = 1:

       Center              X                  Y                   Z               Mass       
    ------------   -----------------  -----------------  -----------------  -----------------
           H         -2.873189622560     2.174195012645    -1.136733082029     1.007825032070
           C         -3.350333318281     1.476741776354    -0.432240728288    12.000000000000
           C         -2.581970093516     0.206843937808    -0.181756392508    12.000000000000
           O         -4.383439423756     1.757056889515     0.075803226547    15.994914619560
           C         -1.124512851875     0.476461507247     0.238050663929    12.000000000000
           H         -3.124759794062    -0.345775294133     0.575030820390     1.007825032070
           H         -2.608950977747    -0.359073162832    -1.111812373612     1.007825032070
           C         -0.156207533362    -0.620639425948    -0.192501651109    12.000000000000
           H         -0.783701220319     1.415103069898    -0.196619925384     1.007825032070
           H         -1.079140955985     0.611962262451     1.315224780421     1.007825032070
           C          1.268564504880    -0.397320309106     0.308043826740    12.000000000000
           H         -0.152854433634    -0.686366292108    -1.277759864414     1.007825032070
           H         -0.519679818134    -1.579215327744     0.170006102531     1.007825032070
           C          2.232991048662    -1.498556577633    -0.129003535750    12.000000000000
           H          1.619106344877     0.566807928604    -0.047126746607     1.007825032070
           H          1.261346288749    -0.339212983272     1.394145820521     1.007825032070
           C          3.654926682273    -1.362107816229     0.418867274054    12.000000000000
           H          2.270845592245    -1.532311016214    -1.215695076513     1.007825032070
           H          1.832276600962    -2.457121768339     0.189678807713     1.007825032070
           C          4.425099599267    -0.149532409195    -0.099105067196    12.000000000000
           H          4.208100147515    -2.260353098259     0.162486535799     1.007825032070
           H          3.618703056200    -1.329507759579     1.504727378363     1.007825032070
           H          4.470953186628    -0.151345482758    -1.183665594591     1.007825032070
           H          3.970377054408     0.783576768049     0.211056116409     1.007825032070
           H          5.443261035661    -0.153873161394     0.273262435034     1.007825032070

  Running in c1 symmetry.

  Rotational constants: A =      0.21208  B =      0.01325  C =      0.01285 [cm^-1]
  Rotational constants: A =   6357.96048  B =    397.29736  C =    385.32438 [MHz]
  Nuclear repulsion =  432.002955697394952

  Charge       = 0
  Multiplicity = 1
  Electrons    = 72
  Nalpha       = 36
  Nbeta        = 36

  ==> Algorithm <==

  SCF Algorithm Type is DF.
  DIIS enabled.
  MOM disabled.
  Fractional occupation disabled.
  Guess Type is READ.
  Energy threshold   = 1.00e-08
  Density threshold  = 1.00e-08
  Integral threshold = 0.00e+00

  ==> Primary Basis <==

  Basis Set: CC-PVTZ
    Number of shells: 186
    Number of basis function: 494
    Number of Cartesian functions: 555
    Spherical Harmonics?: true
    Max angular momentum: 3

  ==> Pre-Iterations <==

   -------------------------------------------------------
    Irrep   Nso     Nmo     Nalpha   Nbeta   Ndocc  Nsocc
   -------------------------------------------------------
     A        494     494       0       0       0       0
   -------------------------------------------------------
    Total     494     494      36      36      36       0
   -------------------------------------------------------

  ==> Integral Setup <==

  ==> DFJK: Density-Fitted J/K Matrices <==

    J tasked:                  Yes
    K tasked:                  Yes
    wK tasked:                  No
    OpenMP threads:              4
    Integrals threads:           4
    Memory (MB):              1430
    Algorithm:                Core
    Integral Cache:           NONE
    Schwarz Cutoff:          1E-12
    Fitting Condition:       1E-12

   => Auxiliary Basis Set <=

  Basis Set: 
    Number of shells: 385
    Number of basis function: 1191
    Number of Cartesian functions: 1424
    Spherical Harmonics?: true
    Max angular momentum: 4

  Minimum eigenvalue in the overlap matrix is 2.4481652352E-04.
  Using Symmetric Orthogonalization.
  SCF Guess: Reading in previously saved MOs, projecting if necessary.

  Using orbitals from previous SCF, no projection.
  Recomputing DOCC and SOCC from number of alpha and beta electrons from previous calculation.
              A 
    DOCC [    36 ]

  ==> Iterations <==

                           Total Energy        Delta E     RMS |[F,P]|

   @DF-RHF iter   0:  -387.23328767027812   -3.87233e+02   3.49232e-04 
   @DF-RHF iter   1:  -387.25787531541715   -2.45876e-02   5.25797e-05 
   @DF-RHF iter   2:  -387.25847668913849   -6.01374e-04   1.93506e-05 DIIS
   @DF-RHF iter   3:  -387.25858113370344   -1.04445e-04   7.90778e-06 DIIS
   @DF-RHF iter   4:  -387.25860192432600   -2.07906e-05   3.15085e-06 DIIS
   @DF-RHF iter   5:  -387.25860732212305   -5.39780e-06   1.53783e-06 DIIS
   @DF-RHF iter   6:  -387.25860833823555   -1.01611e-06   6.59409e-07 DIIS
   @DF-RHF iter   7:  -387.25860855241120   -2.14176e-07   3.03916e-07 DIIS
   @DF-RHF iter   8:  -387.25860861124346   -5.88323e-08   1.45197e-07 DIIS
   @DF-RHF iter   9:  -387.25860862580765   -1.45642e-08   4.49076e-08 DIIS
   @DF-RHF iter  10:  -387.25860862701296   -1.20531e-09   9.38241e-09 DIIS

  ==> Post-Iterations <==

    Orbital Energies (a.u.)
    -----------------------

    Doubly Occupied:                                                      

       1A    -20.551763     2A    -11.321693     3A    -11.234945  
       4A    -11.234303     5A    -11.224690     6A    -11.219361  
       7A    -11.218090     8A    -11.217351     9A    -11.210282  
      10A     -1.404581    11A     -1.105671    12A     -1.071282  
      13A     -1.016387    14A     -0.946502    15A     -0.876449  
      16A     -0.814658    17A     -0.794776    18A     -0.782780  
      19A     -0.676319    20A     -0.660544    21A     -0.635411  
      22A     -0.623002    23A     -0.608705    24A     -0.595042  
      25A     -0.573245    26A     -0.555018    27A     -0.538532  
      28A     -0.523293    29A     -0.513211    30A     -0.498791  
      31A     -0.486337    32A     -0.479316    33A     -0.467303  
      34A     -0.460957    35A     -0.452944    36A     -0.410047  

    Virtual:                                                              

      37A      0.134526    38A      0.143815    39A      0.149076  
      40A      0.153871    41A      0.156024    42A      0.173478  
      43A      0.174500    44A      0.189999    45A      0.205945  
      46A      0.211585    47A      0.219514    48A      0.228475  
      49A      0.237318    50A      0.245307    51A      0.260541  
      52A      0.267673    53A      0.274409    54A      0.301926  
      55A      0.308437    56A      0.330464    57A      0.344150  
      58A      0.356034    59A      0.361371    60A      0.382267  
      61A      0.383420    62A      0.399708    63A      0.413150  
      64A      0.434797    65A      0.437388    66A      0.445106  
      67A      0.458954    68A      0.470592    69A      0.471770  
      70A      0.500114    71A      0.502848    72A      0.516353  
      73A      0.531882    74A      0.545176    75A      0.552133  
      76A      0.554086    77A      0.583904    78A      0.587347  
      79A      0.593706    80A      0.605670    81A      0.612527  
      82A      0.619896    83A      0.630258    84A      0.633579  
      85A      0.637557    86A      0.641041    87A      0.649622  
      88A      0.655934    89A      0.658868    90A      0.665490  
      91A      0.671918    92A      0.676265    93A      0.682898  
      94A      0.690867    95A      0.698577    96A      0.706890  
      97A      0.719880    98A      0.726426    99A      0.729777  
     100A      0.742478   101A      0.775430   102A      0.789611  
     103A      0.804522   104A      0.806996   105A      0.840034  
     106A      0.857206   107A      0.867695   108A      0.879440  
     109A      0.882704   110A      0.908365   111A      0.919186  
     112A      0.932070   113A      0.939696   114A      0.944399  
     115A      0.976499   116A      0.982430   117A      0.983988  
     118A      1.005115   119A      1.014948   120A      1.034660  
     121A      1.042092   122A      1.050463   123A      1.054842  
     124A      1.095805   125A      1.107786   126A      1.131149  
     127A      1.140385   128A      1.152123   129A      1.162433  
     130A      1.172921   131A      1.196529   132A      1.213619  
     133A      1.228071   134A      1.237431   135A      1.247033  
     136A      1.251818   137A      1.261658   138A      1.268174  
     139A      1.275880   140A      1.289900   141A      1.301567  
     142A      1.312847   143A      1.318626   144A      1.328077  
     145A      1.334849   146A      1.343527   147A      1.359737  
     148A      1.363109   149A      1.382085   150A      1.388129  
     151A      1.390507   152A      1.401298   153A      1.402743  
     154A      1.417227   155A      1.420635   156A      1.429969  
     157A      1.434975   158A      1.445127   159A      1.460748  
     160A      1.473402   161A      1.486573   162A      1.489599  
     163A      1.494311   164A      1.502625   165A      1.527409  
     166A      1.531839   167A      1.533355   168A      1.548810  
     169A      1.551831   170A      1.562082   171A      1.571879  
     172A      1.591136   173A      1.601050   174A      1.608589  
     175A      1.616455   176A      1.628804   177A      1.654812  
     178A      1.667412   179A      1.678026   180A      1.692805  
     181A      1.695462   182A      1.712420   183A      1.721279  
     184A      1.741461   185A      1.745653   186A      1.766189  
     187A      1.778998   188A      1.796109   189A      1.818837  
     190A      1.824157   191A      1.836292   192A      1.841491  
     193A      1.849075   194A      1.859250   195A      1.890140  
     196A      1.930720   197A      1.972322   198A      1.977057  
     199A      1.990786   200A      2.016317   201A      2.044225  
     202A      2.074709   203A      2.198280   204A      2.307478  
     205A      2.374867   206A      2.442463   207A      2.450485  
     208A      2.518969   209A      2.552627   210A      2.567200  
     211A      2.601397   212A      2.634706   213A      2.643487  
     214A      2.653645   215A      2.668399   216A      2.694617  
     217A      2.702542   218A      2.712394   219A      2.729916  
     220A      2.753551   221A      2.762608   222A      2.771731  
     223A      2.795882   224A      2.798987   225A      2.809793  
     226A      2.815032   227A      2.829323   228A      2.845369  
     229A      2.859350   230A      2.866577   231A      2.885895  
     232A      2.904042   233A      2.917578   234A      2.925701  
     235A      2.929655   236A      2.945294   237A      2.967891  
     238A      2.975575   239A      2.986141   240A      2.997323  
     241A      3.013354   242A      3.020556   243A      3.031426  
     244A      3.035280   245A      3.062577   246A      3.069272  
     247A      3.089630   248A      3.093855   249A      3.112488  
     250A      3.139116   251A      3.147568   252A      3.149377  
     253A      3.160229   254A      3.186037   255A      3.204019  
     256A      3.224499   257A      3.233996   258A      3.250177  
     259A      3.255677   260A      3.273262   261A      3.278241  
     262A      3.289101   263A      3.306165   264A      3.315988  
     265A      3.326902   266A      3.334541   267A      3.340993  
     268A      3.352223   269A      3.354484   270A      3.370889  
     271A      3.387502   272A      3.392249   273A      3.402743  
     274A      3.411627   275A      3.415007   276A      3.423150  
     277A      3.427268   278A      3.433006   279A      3.440103  
     280A      3.445265   281A      3.459025   282A      3.474652  
     283A      3.479517   284A      3.486214   285A      3.497708  
     286A      3.510570   287A      3.516239   288A      3.527883  
     289A      3.531491   290A      3.549877   291A      3.562233  
     292A      3.567806   293A      3.571679   294A      3.580096  
     295A      3.590523   296A      3.609245   297A      3.628321  
     298A      3.641290   299A      3.645031   300A      3.655472  
     301A      3.671673   302A      3.690020   303A      3.713634  
     304A      3.729311   305A      3.737462   306A      3.753146  
     307A      3.767521   308A      3.775554   309A      3.795190  
     310A      3.805055   311A      3.832844   312A      3.838058  
     313A      3.851333   314A      3.857578   315A      3.873010  
     316A      3.880334   317A      3.893684   318A      3.904405  
     319A      3.921106   320A      3.925344   321A      3.939008  
     322A      3.945348   323A      3.953381   324A      3.962916  
     325A      3.991112   326A      4.012305   327A      4.031409  
     328A      4.036533   329A      4.050353   330A      4.053143  
     331A      4.069591   332A      4.104335   333A      4.108272  
     334A      4.114293   335A      4.124496   336A      4.133170  
     337A      4.135482   338A      4.144003   339A      4.152348  
     340A      4.156094   341A      4.164818   342A      4.175866  
     343A      4.187269   344A      4.194721   345A      4.201117  
     346A      4.207991   347A      4.239985   348A      4.247950  
     349A      4.258615   350A      4.274372   351A      4.278735  
     352A      4.298330   353A      4.299758   354A      4.313515  
     355A      4.321876   356A      4.334824   357A      4.342802  
     358A      4.349129   359A      4.371775   360A      4.377719  
     361A      4.385507   362A      4.397932   363A      4.400518  
     364A      4.414154   365A      4.421891   366A      4.438978  
     367A      4.447147   368A      4.465284   369A      4.486886  
     370A      4.493432   371A      4.509953   372A      4.511964  
     373A      4.527411   374A      4.546248   375A      4.549191  
     376A      4.559782   377A      4.571966   378A      4.583454  
     379A      4.599365   380A      4.610797   381A      4.616441  
     382A      4.633229   383A      4.646208   384A      4.655161  
     385A      4.664958   386A      4.671702   387A      4.676358  
     388A      4.696827   389A      4.701506   390A      4.716387  
     391A      4.744263   392A      4.754568   393A      4.768835  
     394A      4.786917   395A      4.798460   396A      4.816657  
     397A      4.834824   398A      4.871359   399A      4.888158  
     400A      4.919225   401A      4.942765   402A      4.954945  
     403A      4.991265   404A      5.003208   405A      5.022851  
     406A      5.031957   407A      5.043353   408A      5.053087  
     409A      5.074187   410A      5.086905   411A      5.126700  
     412A      5.144218   413A      5.150080   414A      5.177605  
     415A      5.190577   416A      5.196941   417A      5.209408  
     418A      5.229816   419A      5.250000   420A      5.261617  
     421A      5.265228   422A      5.283117   423A      5.293456  
     424A      5.313567   425A      5.341871   426A      5.362646  
     427A      5.369032   428A      5.378663   429A      5.395157  
     430A      5.404281   431A      5.430188   432A      5.447428  
     433A      5.458260   434A      5.493286   435A      5.507816  
     436A      5.545167   437A      5.558175   438A      5.571775  
     439A      5.588565   440A      5.613799   441A      5.629798  
     442A      5.637552   443A      5.677932   444A      5.716919  
     445A      5.737282   446A      5.745878   447A      5.754669  
     448A      5.777719   449A      5.778366   450A      5.797979  
     451A      5.807465   452A      5.826459   453A      5.844748  
     454A      5.851181   455A      5.876806   456A      5.889035  
     457A      5.914531   458A      5.930692   459A      5.941160  
     460A      5.946201   461A      5.964779   462A      5.990504  
     463A      6.000165   464A      6.032006   465A      6.061580  
     466A      6.095822   467A      6.123350   468A      6.163071  
     469A      6.278657   470A      6.318667   471A      6.336268  
     472A      6.342628   473A      6.361901   474A      6.414506  
     475A      6.427678   476A      6.466138   477A      6.530636  
     478A      6.776011   479A      6.782099   480A      6.913222  
     481A      6.972703   482A      7.361726   483A      7.376716  
     484A      7.540070   485A      7.586389   486A     10.850931  
     487A     12.994163   488A     13.313815   489A     13.472411  
     490A     13.490526   491A     13.777727   492A     14.025216  
     493A     14.240315   494A     14.261215  

    Final Occupation by Irrep:
              A 
    DOCC [    36 ]

  Energy converged.

  @DF-RHF Final Energy:  -387.25860862701296

   => Energetics <=

    Nuclear Repulsion Energy =            432.0029556973949525
    One-Electron Energy =               -1380.5159601702305281
    Two-Electron Energy =                 561.2543958458221596
    DFT Exchange-Correlation Energy =       0.0000000000000000
    Empirical Dispersion Energy =           0.0000000000000000
    PCM Polarization Energy =               0.0000000000000000
    EFP Energy =                            0.0000000000000000
    Total Energy =                       -387.2586086270133592


  Saving occupied orbitals to File 180.

*** tstop() called on cx1-27-2-1 at Sat Sep 10 18:31:56 2016
Module time:
	user time   =      66.24 seconds =       1.10 minutes
	system time =       1.10 seconds =       0.02 minutes
	total time  =         18 seconds =       0.30 minutes
Total time:
	user time   =     226.93 seconds =       3.78 minutes
	system time =       3.98 seconds =       0.07 minutes
	total time  =         63 seconds =       1.05 minutes


Properties will be evaluated at   0.000000,   0.000000,   0.000000 Bohr

Properties computed using the SCF density matrix

  Nuclear Dipole Moment: (a.u.)
     X:    16.4341      Y:    -5.2812      Z:    -0.3501

  Electronic Dipole Moment: (a.u.)
     X:   -15.2482      Y:     4.7776      Z:    -0.0078

  Dipole Moment: (a.u.)
     X:     1.1859      Y:    -0.5036      Z:    -0.3578     Total:     1.3372

  Dipole Moment: (Debye)
     X:     3.0142      Y:    -1.2801      Z:    -0.9095     Total:     3.3988


*** tstart() called on cx1-27-2-1
*** at Sat Sep 10 18:31:56 2016


         ------------------------------------------------------------
                                   SCF GRAD                          
                          Rob Parrish, Justin Turney,                
                       Andy Simmonett, and Alex Sokolov              
         ------------------------------------------------------------

  ==> Geometry <==

    Molecular point group: c1
    Full point group: C1

    Geometry (in Angstrom), charge = 0, multiplicity = 1:

       Center              X                  Y                   Z               Mass       
    ------------   -----------------  -----------------  -----------------  -----------------
           H         -2.873189622560     2.174195012645    -1.136733082029     1.007825032070
           C         -3.350333318281     1.476741776354    -0.432240728288    12.000000000000
           C         -2.581970093516     0.206843937808    -0.181756392508    12.000000000000
           O         -4.383439423756     1.757056889515     0.075803226547    15.994914619560
           C         -1.124512851875     0.476461507247     0.238050663929    12.000000000000
           H         -3.124759794062    -0.345775294133     0.575030820390     1.007825032070
           H         -2.608950977747    -0.359073162832    -1.111812373612     1.007825032070
           C         -0.156207533362    -0.620639425948    -0.192501651109    12.000000000000
           H         -0.783701220319     1.415103069898    -0.196619925384     1.007825032070
           H         -1.079140955985     0.611962262451     1.315224780421     1.007825032070
           C          1.268564504880    -0.397320309106     0.308043826740    12.000000000000
           H         -0.152854433634    -0.686366292108    -1.277759864414     1.007825032070
           H         -0.519679818134    -1.579215327744     0.170006102531     1.007825032070
           C          2.232991048662    -1.498556577633    -0.129003535750    12.000000000000
           H          1.619106344877     0.566807928604    -0.047126746607     1.007825032070
           H          1.261346288749    -0.339212983272     1.394145820521     1.007825032070
           C          3.654926682273    -1.362107816229     0.418867274054    12.000000000000
           H          2.270845592245    -1.532311016214    -1.215695076513     1.007825032070
           H          1.832276600962    -2.457121768339     0.189678807713     1.007825032070
           C          4.425099599267    -0.149532409195    -0.099105067196    12.000000000000
           H          4.208100147515    -2.260353098259     0.162486535799     1.007825032070
           H          3.618703056200    -1.329507759579     1.504727378363     1.007825032070
           H          4.470953186628    -0.151345482758    -1.183665594591     1.007825032070
           H          3.970377054408     0.783576768049     0.211056116409     1.007825032070
           H          5.443261035661    -0.153873161394     0.273262435034     1.007825032070

  Nuclear repulsion =  432.002955697394952

  ==> Basis Set <==

  Basis Set: CC-PVTZ
    Number of shells: 186
    Number of basis function: 494
    Number of Cartesian functions: 555
    Spherical Harmonics?: true
    Max angular momentum: 3

  ==> DFJKGrad: Density-Fitted SCF Gradients <==

    Gradient:                    1
    J tasked:                  Yes
    K tasked:                  Yes
    wK tasked:                  No
    OpenMP threads:              4
    Integrals threads:           4
    Memory (MB):              1430
    Schwarz Cutoff:          0E+00
    Fitting Condition:       1E-12

   => Auxiliary Basis Set <=

  Basis Set: 
    Number of shells: 385
    Number of basis function: 1191
    Number of Cartesian functions: 1424
    Spherical Harmonics?: true
    Max angular momentum: 4


  -Total Gradient:
     Atom            X                  Y                   Z
    ------   -----------------  -----------------  -----------------
       1        0.001695677967     0.000941508505    -0.000115687203
       2        0.001998922025    -0.003900158686    -0.003685129530
       3        0.001437331799    -0.002365309245    -0.002351555779
       4       -0.004954555972     0.001762809275     0.003250566382
       5        0.000095817072    -0.002616955501     0.003159729068
       6       -0.002098577989     0.002880028946     0.002016152140
       7       -0.001010740133    -0.000268446727    -0.001102089265
       8        0.000530510800     0.002681734365    -0.002597298813
       9        0.001379700335     0.000534009788    -0.000319469307
      10        0.000837755730     0.000306626499     0.001501503489
      11        0.000187965382    -0.000025249098     0.000121947193
      12        0.000212387512    -0.000088500348    -0.000251742294
      13       -0.000457974270     0.000265362483     0.000152176370
      14       -0.000017993268     0.000053479913     0.000143575596
      15       -0.000036398677    -0.000027868448    -0.000047756815
      16        0.000048020423     0.000027441624     0.000150348282
      17        0.000049783595    -0.000117208519    -0.000000913898
      18       -0.000004845239     0.000031986526    -0.000117292892
      19       -0.000025798477    -0.000138497457     0.000055336362
      20       -0.000048521505     0.000072437613    -0.000024090437
      21        0.000059894606    -0.000031727216     0.000015245567
      22       -0.000011108090    -0.000025232574     0.000106547904
      23        0.000005278601     0.000028924062    -0.000107327665
      24       -0.000011614863     0.000024146284    -0.000006809499
      25        0.000139082626    -0.000005342057     0.000054035046


*** tstop() called on cx1-27-2-1 at Sat Sep 10 18:32:17 2016
Module time:
	user time   =      78.17 seconds =       1.30 minutes
[...]
	 D(18,14,17,21)   =        -1.137949	     -65.199680
	 D(18,14,17,22)   =         3.134591	     179.598819
	 D(19,14,17,20)   =         2.995325	     171.619454
	 D(19,14,17,21)   =         0.873299	      50.036353
	 D(19,14,17,22)   =        -1.137346	     -65.165149
	 D(21,17,20,23)   =         1.137360	      65.165929
	 D(21,17,20,24)   =        -3.041567	    -174.268944
	 D(21,17,20,25)   =        -0.949064	     -54.377369
	 D(22,17,20,23)   =        -3.131004	    -179.393298
	 D(22,17,20,24)   =        -1.026745	     -58.828170
	 D(22,17,20,25)   =         1.065757	      61.063404

	Current energy   :      -387.2587447904

	Energy change for the previous step:
		Projected    :         0.0000028136
		Actual       :        -0.0000007584

	Performing BFGS update.
	Previous computed or guess Hessian on step 1.
	Steps to be used in Hessian update: 6 5
	Taking RFO optimization step.
	Going to follow RFO solution 1.
	Using RFO vector 1.
	Norm of target step-size    0.04082
	Projected energy change by RFO approximation:        -0.0000049422

	Back-transformation to cartesian coordinates...
	Could not converge backtransformation.
	Using first guess instead.

	Back-transformation to cartesian coordinates to adjust frozen coordinates...
	Successfully converged to displaced geometry.

	--- Internal Coordinate Step in ANG or DEG, aJ/ANG or AJ/DEG ---
	 ---------------------------------------------------------------------------
	   Coordinate                Previous        Force       Change         New 
	   ----------                --------       ------       ------       ------
	    1 R(1,2)          =      1.098142     0.000663     0.000300     1.098442
	    2 R(2,3)          =      1.505947    -0.001595    -0.000301     1.505646
	    3 R(2,4)          =      1.181831     0.001812     0.000209     1.182040
	    4 R(3,5)          =      1.536997    -0.000238     0.000029     1.537026
	    5 R(3,6)          =      1.081495    -0.000199     0.000015     1.081510
	    6 R(3,7)          =      1.086756    -0.000094     0.000085     1.086841
	    7 R(5,8)          =      1.526633    -0.000252    -0.000053     1.526580
	    8 R(5,9)          =      1.087664    -0.000225     0.000060     1.087724
	    9 R(5,10)         =      1.084324    -0.000381    -0.000024     1.084300
	   10 R(8,11)         =      1.525894     0.000393     0.000017     1.525911
	   11 R(8,12)         =      1.086930     0.000087     0.000017     1.086947
	   12 R(8,13)         =      1.087305    -0.000021     0.000053     1.087358
	   13 R(11,14)        =      1.527572    -0.000147    -0.000016     1.527556
	   14 R(11,15)        =      1.085573     0.000460     0.000046     1.085619
	   15 R(11,16)        =      1.087519    -0.000185    -0.000022     1.087497
	   16 R(14,17)        =      1.529677    -0.000394    -0.000029     1.529648
	   17 R(14,18)        =      1.087720    -0.000191     0.000003     1.087723
	   18 R(14,19)        =      1.086537     0.000086     0.000023     1.086560
	   19 R(17,20)        =      1.526774    -0.000173     0.000020     1.526794
	   20 R(17,21)        =      1.085565     0.000019     0.000026     1.085592
	   21 R(17,22)        =      1.086802    -0.000118     0.000018     1.086820
	   22 R(20,23)        =      1.085395    -0.000155     0.000003     1.085398
	   23 R(20,24)        =      1.083299     0.000492     0.000054     1.083353
	   24 R(20,25)        =      1.083915     0.000013     0.000014     1.083929
	   25 B(1,2,3)        =    114.977522     0.000006     0.033051   115.010573
	   26 B(1,2,4)        =    120.090131    -0.000009    -0.067844   120.022287
	   27 B(2,3,5)        =    111.610517    -0.000004    -0.039732   111.570785
	   28 B(2,3,6)        =    107.106745     0.000004     0.033204   107.139949
	   29 B(2,3,7)        =    107.223719     0.000000     0.007359   107.231078
	   30 B(3,2,4)        =    124.931897     0.000003     0.034621   124.966518
	   31 B(3,5,8)        =    113.327357     0.000001    -0.007450   113.319907
	   32 B(3,5,9)        =    109.436800    -0.000001    -0.000175   109.436625
	   33 B(3,5,10)       =    109.158897    -0.000003    -0.030673   109.128225
	   34 B(5,3,6)        =    111.646335    -0.000002    -0.014817   111.631518
	   35 B(5,3,7)        =    110.074295     0.000002     0.001569   110.075864
	   36 B(5,8,11)       =    113.260117    -0.000001    -0.018200   113.241917
	   37 B(5,8,12)       =    108.864891     0.000001     0.028081   108.892972
	   38 B(5,8,13)       =    109.403916     0.000001     0.003688   109.407604
	   39 B(6,3,7)        =    109.019858     0.000000     0.014908   109.034765
	   40 B(8,5,9)        =    108.211834     0.000001     0.023885   108.235718
	   41 B(8,5,10)       =    110.330217     0.000002     0.018771   110.348989
	   42 B(8,11,14)      =    112.920254     0.000003     0.001448   112.921702
	   43 B(8,11,15)      =    108.933765    -0.000001     0.005019   108.938785
	   44 B(8,11,16)      =    109.206792     0.000001    -0.005151   109.201641
	   45 B(9,5,10)       =    106.117565     0.000000    -0.003680   106.113885
	   46 B(11,8,12)      =    109.429905     0.000001    -0.015812   109.414093
	   47 B(11,8,13)      =    109.376555    -0.000001     0.004020   109.380575
	   48 B(11,14,17)     =    114.835761    -0.000013    -0.020062   114.815699
	   49 B(11,14,18)     =    109.288581     0.000002    -0.006217   109.282364
	   50 B(11,14,19)     =    108.598905     0.000005     0.013961   108.612866
	   51 B(12,8,13)      =    106.265686    -0.000000    -0.000638   106.265048
	   52 B(14,11,15)     =    110.034924    -0.000001     0.000783   110.035707
	   53 B(14,11,16)     =    109.195991    -0.000002    -0.004139   109.191853
	   54 B(14,17,20)     =    114.732124    -0.000014    -0.017936   114.714188
	   55 B(14,17,21)     =    108.346017     0.000006     0.015883   108.361901
	   56 B(14,17,22)     =    109.245814     0.000003    -0.007113   109.238701
	   57 B(15,11,16)     =    106.332920     0.000000     0.002039   106.334958
	   58 B(17,14,18)     =    109.169434     0.000003    -0.008253   109.161181
	   59 B(17,14,19)     =    108.439874     0.000006     0.017266   108.457141
	   60 B(17,20,23)     =    111.026594    -0.000001    -0.004646   111.021948
	   61 B(17,20,24)     =    112.035867    -0.000002    -0.001869   112.033998
	   62 B(17,20,25)     =    110.733456     0.000001     0.002598   110.736054
	   63 B(18,14,19)     =    106.150844    -0.000002     0.005578   106.156422
	   64 B(20,17,21)     =    108.652663     0.000005     0.015521   108.668184
	   65 B(20,17,22)     =    109.379860     0.000003    -0.008545   109.371315
	   66 B(21,17,22)     =    106.130341    -0.000002     0.004254   106.134595
	   67 B(23,20,24)     =    107.780164     0.000001    -0.000124   107.780039
	   68 B(23,20,25)     =    107.663060     0.000000     0.001295   107.664355
	   69 B(24,20,25)     =    107.410354     0.000001     0.003035   107.413389
	   70 D(1,2,3,5)      =     58.421084    -0.000000     0.026830    58.447915
	   71 D(1,2,3,6)      =   -179.095786    -0.000000     0.006028  -179.089758
	   72 D(1,2,3,7)      =    -62.197991     0.000000     0.043785   -62.154206
	   73 D(2,3,5,8)      =   -150.157885     0.000000     0.005001  -150.152884
	   74 D(2,3,5,9)      =    -29.287707     0.000000     0.030419   -29.257288
	   75 D(2,3,5,10)     =     86.449828     0.000000     0.008772    86.458601
	   76 D(3,5,8,11)     =   -177.957488     0.000001     0.341835  -177.615653
	   77 D(3,5,8,12)     =     60.070105     0.000000     0.354056    60.424162
	   78 D(3,5,8,13)     =    -55.662463     0.000000     0.337181   -55.325282
	   79 D(4,2,3,5)      =   -121.333780     0.000000     0.070164  -121.263616
	   80 D(4,2,3,6)      =      1.149349    -0.000000     0.049362     1.198712
	   81 D(4,2,3,7)      =    118.047144     0.000000     0.087119   118.134264
	   82 D(5,8,11,14)    =   -178.972827    -0.000000    -0.188932  -179.161759
	   83 D(5,8,11,15)    =    -56.406006    -0.000000    -0.183331   -56.589337
	   84 D(5,8,11,16)    =     59.336736    -0.000000    -0.180955    59.155781
	   85 *D(6,3,5,8)     =     90.000009     0.000000     0.000000    90.000009
	   86 D(6,3,5,9)      =   -149.129814     0.000000     0.025418  -149.104396
	   87 D(6,3,5,10)     =    -33.392278    -0.000000     0.003771   -33.388507
	   88 D(7,3,5,8)      =    -31.220327    -0.000000    -0.010057   -31.230384
	   89 D(7,3,5,9)      =     89.649851     0.000000     0.015361    89.665212
	   90 D(7,3,5,10)     =   -154.612613    -0.000000    -0.006286  -154.618899
	   91 D(8,11,14,17)   =   -176.277909    -0.000001    -0.142773  -176.420682
	   92 D(8,11,14,18)   =     60.675623     0.000000    -0.112666    60.562956
	   93 D(8,11,14,19)   =    -54.710769    -0.000000    -0.123585   -54.834354
	   94 D(9,5,8,11)     =     60.483190     0.000001     0.329992    60.813181
	   95 D(9,5,8,12)     =    -61.489217     0.000000     0.342213   -61.147004
	   96 D(9,5,8,13)     =   -177.221785     0.000000     0.325337  -176.896448
	   97 D(10,5,8,11)    =    -55.210894     0.000000     0.310576   -54.900318
	   98 D(10,5,8,12)    =   -177.183301    -0.000000     0.322798  -176.860504
	   99 D(10,5,8,13)    =     67.084131    -0.000000     0.305922    67.390052
	  100 D(11,14,17,20)  =    -66.726851     0.000002     0.652655   -66.074196
	  101 D(11,14,17,21)  =    171.690047     0.000001     0.632869   172.322916
	  102 D(11,14,17,22)  =     56.488546     0.000001     0.622997    57.111543
	  103 D(12,8,11,14)   =    -57.316647    -0.000000    -0.176688   -57.493335
	  104 D(12,8,11,15)   =     65.250173    -0.000000    -0.171087    65.079086
	  105 D(12,8,11,16)   =   -179.007084     0.000000    -0.168711  -179.175795
	  106 D(13,8,11,14)   =     58.716917    -0.000000    -0.184099    58.532818
	  107 D(13,8,11,15)   =   -178.716263    -0.000000    -0.178498  -178.894761
	  108 D(13,8,11,16)   =    -62.973520    -0.000000    -0.176122   -63.149642
	  109 D(14,17,20,23)  =    -56.249743    -0.000001    -0.257844   -56.507587
	  110 D(14,17,20,24)  =     64.315384    -0.000001    -0.262522    64.052862
	  111 D(14,17,20,25)  =   -175.793041    -0.000001    -0.258141  -176.051182
	  112 D(15,11,14,17)  =     61.772571    -0.000001    -0.150812    61.621759
	  113 D(15,11,14,18)  =    -61.273898     0.000000    -0.120705   -61.394603
	  114 D(15,11,14,19)  =   -176.660290    -0.000000    -0.131624  -176.791913
	  115 D(16,11,14,17)  =    -54.581380    -0.000001    -0.151321   -54.732700
	  116 D(16,11,14,18)  =   -177.627849     0.000000    -0.121214  -177.749062
	  117 D(16,11,14,19)  =     66.985760     0.000000    -0.132132    66.853628
	  118 D(18,14,17,20)  =     56.383421     0.000001     0.623685    57.007107
	  119 D(18,14,17,21)  =    -65.199680     0.000000     0.603899   -64.595780
	  120 D(18,14,17,22)  =    179.598819    -0.000000     0.594027   180.192846
	  121 D(19,14,17,20)  =    171.619454     0.000001     0.635250   172.254703
	  122 D(19,14,17,21)  =     50.036353     0.000001     0.615464    50.651816
	  123 D(19,14,17,22)  =    -65.165149     0.000000     0.605591   -64.559557
	  124 D(21,17,20,23)  =     65.165929    -0.000000    -0.237882    64.928046
	  125 D(21,17,20,24)  =   -174.268944    -0.000000    -0.242560  -174.511504
	  126 D(21,17,20,25)  =    -54.377369    -0.000000    -0.238179   -54.615549
	  127 D(22,17,20,23)  =   -179.393298     0.000000    -0.228905  -179.622203
	  128 D(22,17,20,24)  =    -58.828170    -0.000000    -0.233583   -59.061754
	  129 D(22,17,20,25)  =     61.063404     0.000000    -0.229202    60.834202
	 ---------------------------------------------------------------------------
	Successfully symmetrized geometry.

  ==> Convergence Check <==

  Measures of convergence in internal coordinates in au.
  Criteria marked as inactive (o), active & met (*), and active & unmet ( ).
  ---------------------------------------------------------------------------------------------
   Step     Total Energy     Delta E     MAX Force     RMS Force      MAX Disp      RMS Disp   
  ---------------------------------------------------------------------------------------------
    Convergence Criteria    1.00e-06 *    3.00e-04 *             o    1.20e-03 *             o
  ---------------------------------------------------------------------------------------------
      7    -387.25874479   -7.58e-07 *    2.20e-04 *    4.63e-05 o    1.14e-02      3.59e-03 o  ~
  ---------------------------------------------------------------------------------------------


  **** Optimization is complete! (in 7 steps) ****

  ==> Optimization Summary <==

  Measures of convergence in internal coordinates in au.
  --------------------------------------------------------------------------------------------------------------- ~
   Step         Total Energy             Delta E       MAX Force       RMS Force        MAX Disp        RMS Disp  ~
  --------------------------------------------------------------------------------------------------------------- ~
      1    -387.258429838677   -387.258429838677      0.00378734      0.00064269      0.08076673      0.02287487  ~
      2    -387.258608627013     -0.000178788336      0.00613060      0.00074000      0.06198487      0.01100970  ~
      3    -387.258431999139      0.000176627874      0.00243405      0.00055580      0.04799282      0.01074807  ~
      4    -387.258723860983     -0.000291861843      0.00111523      0.00013294      0.02713959      0.00637421  ~
      5    -387.258736030799     -0.000012169816      0.00067795      0.00009831      0.03311135      0.00761522  ~
      6    -387.258744031995     -0.000008001196      0.00087132      0.00010220      0.01673712      0.00522076  ~
      7    -387.258744790393     -0.000000758399      0.00022000      0.00004632      0.01139098      0.00359394  ~
  --------------------------------------------------------------------------------------------------------------- ~

	Writing optimization data to binary file.
	Final energy is   -387.2587447903932
	Final (previous) structure:
	Cartesian Geometry (in Angstrom)
	    H    -2.8924766800   2.1409105550  -1.1867369307
	    C    -3.3366208821   1.4802871203  -0.4302786776
	    C    -2.5891713507   0.1950673115  -0.1906838941
	    O    -4.3265642162   1.8018555349   0.1294807103
	    C    -1.1403472640   0.4566652575   0.2507164663
	    H    -3.1402245098  -0.3587581780   0.5571459120
	    H    -2.6000392715  -0.3622288436  -1.1236044897
	    C    -0.1712009883  -0.6441988313  -0.1729127193
	    H    -0.7958107502   1.3957435895  -0.1764134103
	    H    -1.1143503849   0.5879050965   1.3267550275
	    C     1.2572771484  -0.4075478088   0.3085414340
	    H    -0.1792306211  -0.7214394154  -1.2570650580
	    H    -0.5247766825  -1.6011466643   0.2032094874
	    C     2.2252416291  -1.5005845962  -0.1406705978
	    H     1.5948288345   0.5592369332  -0.0518113471
	    H     1.2636640193  -0.3484366667   1.3944338376
	    C     3.6515793421  -1.3544314068   0.3923505529
	    H     2.2516647144  -1.5326267275  -1.2275973880
	    H     1.8351355833  -2.4624200127   0.1806599967
	    C     4.4116238621  -0.1423152491  -0.1407029761
	    H     4.2057809219  -2.2519890333   0.1360248693
	    H     3.6259817010  -1.3151330769   1.4781405279
	    H     4.4442242059  -0.1493193012  -1.2255854001
	    H     3.9580876058   0.7909216585   0.1706019502
	    H     5.4340947527  -0.1418912274   0.2190547808
	Saving final (previous) structure.
			--------------------------
			 OPTKING Finished Execution 
			--------------------------

    Final optimized geometry and variables:
    Molecular point group: c1
    Full point group: C1

    Geometry (in Angstrom), charge = 0, multiplicity = 1:

    H           -2.892476679988     2.140910555050    -1.186736930703
    C           -3.336620882099     1.480287120340    -0.430278677614
    C           -2.589171350711     0.195067311514    -0.190683894140
    O           -4.326564216161     1.801855534915     0.129480710335
    C           -1.140347264031     0.456665257460     0.250716466268
    H           -3.140224509797    -0.358758178021     0.557145911958
    H           -2.600039271476    -0.362228843582    -1.123604489690
    C           -0.171200988337    -0.644198831292    -0.172912719295
    H           -0.795810750195     1.395743589480    -0.176413410311
    H           -1.114350384912     0.587905096519     1.326755027496
    C            1.257277148380    -0.407547808850     0.308541434040
    H           -0.179230621114    -0.721439415400    -1.257065057972
    H           -0.524776682476    -1.601146664255     0.203209487381
    C            2.225241629052    -1.500584596196    -0.140670597834
    H            1.594828834537     0.559236933207    -0.051811347104
    H            1.263664019317    -0.348436666697     1.394433837614
    C            3.651579342094    -1.354431406839     0.392350552941
    H            2.251664714351    -1.532626727523    -1.227597387974
    H            1.835135583287    -2.462420012696     0.180659996718
    C            4.411623862090    -0.142315249084    -0.140702976059
    H            4.205780921865    -2.251989033327     0.136024869344
    H            3.625981700958    -1.315133076881     1.478140527919
    H            4.444224205872    -0.149319301230    -1.225585400088
    H            3.958087605780     0.790921658518     0.170601950162
    H            5.434094752667    -0.141891227444     0.219054780811

	Cleaning optimization helper files.


Properties will be evaluated at   0.000000,   0.000000,   0.000000 Bohr

Properties computed using the  density matrix

  Nuclear Dipole Moment: (a.u.)
     X:    16.2598      Y:    -5.4012      Z:    -0.5457

  Electronic Dipole Moment: (a.u.)
     X:   -15.1185      Y:     4.8642      Z:     0.1465

  Dipole Moment: (a.u.)
     X:     1.1413      Y:    -0.5370      Z:    -0.3992     Total:     1.3230

  Dipole Moment: (Debye)
     X:     2.9010      Y:    -1.3649      Z:    -1.0147     Total:     3.3628

  Quadrupole Moment: (Debye Ang)
    XX:   -78.2710     YY:   -61.7278     ZZ:   -57.2161
    XY:     8.0086     XZ:     4.0504     YZ:    -2.0361

  Traceless Quadrupole Moment: (Debye Ang)
    XX:   -12.5327     YY:     4.0105     ZZ:     8.5222
    XY:     8.0086     XZ:     4.0504     YZ:    -2.0361

  Mulliken Charges: (a.u.)
   Center  Symbol    Alpha    Beta     Spin     Total
       1     H     0.46691  0.46691  0.00000  0.06617
       2     C     2.90518  2.90518  0.00000  0.18965
       3     C     3.08007  3.08007  0.00000 -0.16013
       4     O     4.16445  4.16445  0.00000 -0.32891
       5     C     3.10567  3.10567  0.00000 -0.21133
       6     H     0.44156  0.44156  0.00000  0.11689
       7     H     0.44933  0.44933  0.00000  0.10134
       8     C     3.09078  3.09078  0.00000 -0.18155
       9     H     0.45303  0.45303  0.00000  0.09395
      10     H     0.44337  0.44337  0.00000  0.11327
      11     C     3.09344  3.09344  0.00000 -0.18688
      12     H     0.45357  0.45357  0.00000  0.09286
      13     H     0.45025  0.45025  0.00000  0.09950
      14     C     3.09553  3.09553  0.00000 -0.19106
      15     H     0.45170  0.45170  0.00000  0.09659
      16     H     0.45276  0.45276  0.00000  0.09449
      17     C     3.09068  3.09068  0.00000 -0.18136
      18     H     0.45378  0.45378  0.00000  0.09244
      19     H     0.44897  0.44897  0.00000  0.10206
      20     C     3.15256  3.15256  0.00000 -0.30512
      21     H     0.44784  0.44784  0.00000  0.10433
      22     H     0.45420  0.45420  0.00000  0.09159
      23     H     0.45486  0.45486  0.00000  0.09028
      24     H     0.45387  0.45387  0.00000  0.09226
      25     H     0.44565  0.44565  0.00000  0.10869

   Total alpha = 36.00000, Total beta = 36.00000, Total charge = -0.00000


*** Psi4 exiting successfully. Buy a developer a beer!
