    -----------------------------------------------------------------------
          Psi4: An Open-Source Ab Initio Electronic Structure Package
                              Psi4 (no tag) Driver

                          Git: Rev {detached?}  

    J. M. Turney, A. C. Simmonett, R. M. Parrish, E. G. Hohenstein,
    F. A. Evangelista, J. T. Fermann, B. J. Mintz, L. A. Burns, J. J. Wilke,
    M. L. Abrams, N. J. Russ, M. L. Leininger, C. L. Janssen, E. T. Seidl,
    W. D. Allen, H. F. Schaefer, R. A. King, E. F. Valeev, C. D. Sherrill,
    and T. D. Crawford, WIREs Comput. Mol. Sci. 2, 556-565 (2012)
    (doi: 10.1002/wcms.93)

                         Additional Contributions by
    A. E. DePrince, M. Saitow, U. Bozkaya, A. Yu. Sokolov
    -----------------------------------------------------------------------


    Psi4 started on: Fri Sep  2 17:27:31 2016

    Process ID:  10502
    PSI4DATADIR: /export131/home/mjharvey/miniconda3/share
    Memory level set to 256.000 MB

  ==> Input File <==

--------------------------------------------------------------------------
set {
	reference rhf
	basis 6-31G*
}


set_num_threads( 4 )
memory 2 gb

molecule MOL {
0 1

O	 0.577080	 -0.216176	 0.176149
C	 1.705091	 0.115954	 0.001797
C	 2.177609	 1.529165	 -0.237847
O	 2.721346	 -0.737485	 -0.000216
C	 1.047121	 2.553671	 -0.243352
H	 2.913964	 1.759433	 0.527314
H	 2.718980	 1.535113	 -1.179972
C	 1.553925	 3.975912	 -0.487158
H	 0.518250	 2.507652	 0.703414
H	 0.323651	 2.283827	 -1.006296
C	 0.433029	 5.016772	 -0.494993
H	 2.281649	 4.239232	 0.279051
H	 2.085369	 4.014972	 -1.436854
C	 0.939884	 6.437473	 -0.739854
H	 -0.097230	 4.980799	 0.454044
H	 -0.294276	 4.755592	 -1.260467
H	 1.643990	 6.740983	 0.029776
H	 0.122425	 7.151765	 -0.739956
H	 1.445820	 6.513866	 -1.698240
C	 4.024888	 -0.184556	 -0.001949
H	 4.179030	 0.422472	 -0.882452
H	 4.701782	 -1.024608	 -0.003642
H	 4.181981	 0.421185	 0.878906

	symmetry c1
}
set optking {
	frozen_dihedral = ("
		1 2 4 20
	")
}

ee = optimize('scf')
oeprop('DIPOLE', 'QUADRUPOLE', 'MULLIKEN_CHARGES')
f=open( 'psi4out.xyz', 'w' )
f.write( "23  " )
f.write( str(ee) + "\n" )
f.write( MOL.save_string_xyz() )
f.close()
--------------------------------------------------------------------------

  Memory set to   2.000 GiB by Python script.
gradient() will perform analytic gradient computation.

*** tstart() called on cx1-1-1-1.cx1.hpc.ic.ac.uk
*** at Fri Sep  2 17:27:32 2016


         ---------------------------------------------------------
                                   SCF
            by Justin Turney, Rob Parrish, and Andy Simmonett
                              RHF Reference
                        4 Threads,   2000 MiB Core
         ---------------------------------------------------------

  ==> Geometry <==

    Molecular point group: c1
    Full point group: C1

    Geometry (in Angstrom), charge = 0, multiplicity = 1:

       Center              X                  Y                   Z               Mass       
    ------------   -----------------  -----------------  -----------------  -----------------
           O         -1.131391775780    -2.251109342596     0.399081363155    15.994914619560
           C         -0.003380775780    -1.918979342596     0.224729363155    12.000000000000
           C          0.469137224220    -0.505768342596    -0.014914636845    12.000000000000
           O          1.012874224220    -2.772418342596     0.222716363155    15.994914619560
           C         -0.661350775780     0.518737657404    -0.020419636845    12.000000000000
           H          1.205492224220    -0.275500342596     0.750246363155     1.007825032070
           H          1.010508224220    -0.499820342596    -0.957039636845     1.007825032070
           C         -0.154546775780     1.940978657404    -0.264225636845    12.000000000000
           H         -1.190221775780     0.472718657404     0.926346363155     1.007825032070
           H         -1.384820775780     0.248893657404    -0.783363636845     1.007825032070
           C         -1.275442775780     2.981838657404    -0.272060636845    12.000000000000
           H          0.573177224220     2.204298657404     0.501983363155     1.007825032070
           H          0.376897224220     1.980038657404    -1.213921636845     1.007825032070
           C         -0.768587775780     4.402539657404    -0.516921636845    12.000000000000
           H         -1.805701775780     2.945865657404     0.676976363155     1.007825032070
           H         -2.002747775780     2.720658657404    -1.037534636845     1.007825032070
           H         -0.064481775780     4.706049657404     0.252708363155     1.007825032070
           H         -1.586046775780     5.116831657404    -0.517023636845     1.007825032070
           H         -0.262651775780     4.478932657404    -1.475307636845     1.007825032070
           C          2.316416224220    -2.219489342596     0.220983363155    12.000000000000
           H          2.470558224220    -1.612461342596    -0.659519636845     1.007825032070
           H          2.993310224220    -3.059541342596     0.219290363155     1.007825032070
           H          2.473509224220    -1.613748342596     1.101838363155     1.007825032070

  Running in c1 symmetry.

  Rotational constants: A =      0.13363  B =      0.01906  C =      0.01700 [cm^-1]
  Rotational constants: A =   4006.04783  B =    571.48538  C =    509.69255 [MHz]
  Nuclear repulsion =  458.986409798037414

  Charge       = 0
  Multiplicity = 1
  Electrons    = 72
  Nalpha       = 36
  Nbeta        = 36

  ==> Algorithm <==

  SCF Algorithm Type is DF.
  DIIS enabled.
  MOM disabled.
  Fractional occupation disabled.
  Guess Type is CORE.
  Energy threshold   = 1.00e-08
  Density threshold  = 1.00e-08
  Integral threshold = 0.00e+00

  ==> Primary Basis <==

  Basis Set: 6-31G*
    Number of shells: 82
    Number of basis function: 163
    Number of Cartesian functions: 163
    Spherical Harmonics?: false
    Max angular momentum: 2

  ==> Pre-Iterations <==

   -------------------------------------------------------
    Irrep   Nso     Nmo     Nalpha   Nbeta   Ndocc  Nsocc
   -------------------------------------------------------
     A        163     163       0       0       0       0
   -------------------------------------------------------
    Total     163     163      36      36      36       0
   -------------------------------------------------------

 OEINTS: Overlap, kinetic, potential, dipole, and quadrupole integrals
         stored in file 35.

  ==> Integral Setup <==

  ==> DFJK: Density-Fitted J/K Matrices <==

    J tasked:                  Yes
    K tasked:                  Yes
    wK tasked:                  No
    OpenMP threads:              4
    Integrals threads:           4
    Memory (MB):              1430
    Algorithm:                Core
    Integral Cache:           NONE
    Schwarz Cutoff:          1E-12
    Fitting Condition:       1E-12

   => Auxiliary Basis Set <=

  Basis Set: 
    Number of shells: 342
    Number of basis function: 1079
    Number of Cartesian functions: 1079
    Spherical Harmonics?: false
    Max angular momentum: 3

  Minimum eigenvalue in the overlap matrix is 2.4494535329E-03.
  Using Symmetric Orthogonalization.
  SCF Guess: Core (One-Electron) Hamiltonian.

  ==> Iterations <==

                           Total Energy        Delta E     RMS |[F,P]|

   @DF-RHF iter   1:  -290.12716175891393   -2.90127e+02   6.58515e-02 
   @DF-RHF iter   2:    39.64809666169793    3.29775e+02   7.45382e-02 DIIS
   @DF-RHF iter   3:  -235.73913192962851   -2.75387e+02   7.15194e-02 DIIS
   @DF-RHF iter   4:  -342.43889980786042   -1.06700e+02   5.25718e-02 DIIS
   @DF-RHF iter   5:  -359.40595092212919   -1.69671e+01   4.45777e-02 DIIS
   @DF-RHF iter   6:  -414.68343412268024   -5.52775e+01   1.46263e-02 DIIS
   @DF-RHF iter   7:  -403.98344471769104    1.07000e+01   2.62202e-02 DIIS
   @DF-RHF iter   8:  -422.86821154901821   -1.88848e+01   2.32732e-03 DIIS
   @DF-RHF iter   9:  -422.93701234302551   -6.88008e-02   7.94997e-04 DIIS
   @DF-RHF iter  10:  -422.94657994277344   -9.56760e-03   3.71944e-04 DIIS
   @DF-RHF iter  11:  -422.94827375952303   -1.69382e-03   1.57221e-04 DIIS
   @DF-RHF iter  12:  -422.94868298790317   -4.09228e-04   6.85154e-05 DIIS
   @DF-RHF iter  13:  -422.94876463875590   -8.16509e-05   2.47998e-05 DIIS
   @DF-RHF iter  14:  -422.94877860460764   -1.39659e-05   5.14292e-06 DIIS
   @DF-RHF iter  15:  -422.94877922215670   -6.17549e-07   1.49359e-06 DIIS
   @DF-RHF iter  16:  -422.94877927088163   -4.87249e-08   5.37070e-07 DIIS
   @DF-RHF iter  17:  -422.94877927722854   -6.34691e-09   1.66675e-07 DIIS
   @DF-RHF iter  18:  -422.94877927830379   -1.07525e-09   5.84880e-08 DIIS
   @DF-RHF iter  19:  -422.94877927843692   -1.33127e-10   2.55215e-08 DIIS
   @DF-RHF iter  20:  -422.94877927846181   -2.48974e-11   7.06118e-09 DIIS

  ==> Post-Iterations <==

    Orbital Energies (a.u.)
    -----------------------

    Doubly Occupied:                                                      

       1A    -20.608200     2A    -20.543027     3A    -11.374710  
       4A    -11.297510     5A    -11.242459     6A    -11.223190  
       7A    -11.222176     8A    -11.219664     9A    -11.212580  
      10A     -1.468699    11A     -1.368859    12A     -1.097478  
      13A     -1.043949    14A     -0.989316    15A     -0.958412  
      16A     -0.859301    17A     -0.800476    18A     -0.762425  
      19A     -0.704421    20A     -0.702044    21A     -0.676421  
      22A     -0.654247    23A     -0.609437    24A     -0.604617  
      25A     -0.583416    26A     -0.564372    27A     -0.561773  
      28A     -0.543460    29A     -0.532350    30A     -0.509230  
      31A     -0.491194    32A     -0.473068    33A     -0.469450  
      34A     -0.465074    35A     -0.449333    36A     -0.427458  

    Virtual:                                                              

      37A      0.197307    38A      0.206530    39A      0.231048  
      40A      0.254454    41A      0.260274    42A      0.281496  
      43A      0.286216    44A      0.296954    45A      0.299553  
      46A      0.324700    47A      0.329528    48A      0.338303  
      49A      0.346228    50A      0.356472    51A      0.361262  
      52A      0.387654    53A      0.396053    54A      0.425083  
      55A      0.434249    56A      0.470007    57A      0.480840  
      58A      0.544713    59A      0.582575    60A      0.694438  
      61A      0.717905    62A      0.726213    63A      0.736289  
      64A      0.744193    65A      0.750600    66A      0.767072  
      67A      0.787235    68A      0.807214    69A      0.842316  
      70A      0.864873    71A      0.894003    72A      0.928927  
      73A      0.955312    74A      0.973121    75A      1.002111  
      76A      1.007666    77A      1.014235    78A      1.075173  
      79A      1.104448    80A      1.110166    81A      1.116299  
      82A      1.118764    83A      1.131898    84A      1.132374  
      85A      1.171777    86A      1.176881    87A      1.189953  
      88A      1.195306    89A      1.202254    90A      1.211689  
      91A      1.218915    92A      1.225781    93A      1.232527  
      94A      1.257297    95A      1.272085    96A      1.288585  
      97A      1.303911    98A      1.322850    99A      1.344987  
     100A      1.420351   101A      1.439482   102A      1.550372  
     103A      1.574963   104A      1.617795   105A      1.659747  
     106A      1.684727   107A      1.722787   108A      1.744675  
     109A      1.771071   110A      1.801262   111A      1.847976  
     112A      1.920628   113A      1.973641   114A      2.004232  
     115A      2.034737   116A      2.067190   117A      2.094560  
     118A      2.121303   119A      2.141970   120A      2.165337  
     121A      2.204971   122A      2.245423   123A      2.252596  
     124A      2.254948   125A      2.298792   126A      2.321636  
     127A      2.325724   128A      2.346704   129A      2.387055  
     130A      2.398640   131A      2.419763   132A      2.463055  
     133A      2.476569   134A      2.540469   135A      2.577342  
     136A      2.587081   137A      2.629425   138A      2.645116  
     139A      2.667899   140A      2.745757   141A      2.757221  
     142A      2.770191   143A      2.815332   144A      2.874339  
     145A      2.930198   146A      2.983314   147A      3.041092  
     148A      3.051837   149A      3.109040   150A      3.132714  
     151A      3.180680   152A      3.308838   153A      3.451333  
     154A      3.587206   155A      4.388098   156A      4.561088  
     157A      4.639431   158A      4.692109   159A      4.728719  
     160A      4.779192   161A      4.839136   162A      4.908791  
     163A      5.026248  

    Final Occupation by Irrep:
              A 
    DOCC [    36 ]

  Energy converged.

  @DF-RHF Final Energy:  -422.94877927846181

   => Energetics <=

    Nuclear Repulsion Energy =            458.9864097980374140
    One-Electron Energy =               -1485.2427856021431580
    Two-Electron Energy =                 603.3075965256437030
    DFT Exchange-Correlation Energy =       0.0000000000000000
    Empirical Dispersion Energy =           0.0000000000000000
    PCM Polarization Energy =               0.0000000000000000
    EFP Energy =                            0.0000000000000000
    Total Energy =                       -422.9487792784620979

    Alert: EFP and PCM quantities not currently incorporated into SCF psivars.

Properties will be evaluated at   0.000000,   0.000000,   0.000000 Bohr
  ==> Properties <==


Properties computed using the SCF density matrix

  Nuclear Dipole Moment: (a.u.)
     X:     2.6307      Y:    16.6752      Z:    -2.0729

  Electronic Dipole Moment: (a.u.)
     X:    -1.1033      Y:   -15.6467      Z:     1.8746

  Dipole Moment: (a.u.)
     X:     1.5274      Y:     1.0285      Z:    -0.1982     Total:     1.8521

  Dipole Moment: (Debye)
     X:     3.8823      Y:     2.6142      Z:    -0.5038     Total:     4.7074


  Saving occupied orbitals to File 180.

*** tstop() called on cx1-1-1-1.cx1.hpc.ic.ac.uk at Fri Sep  2 17:27:41 2016
Module time:
	user time   =      29.18 seconds =       0.49 minutes
	system time =       0.42 seconds =       0.01 minutes
	total time  =          9 seconds =       0.15 minutes
Total time:
	user time   =      29.18 seconds =       0.49 minutes
	system time =       0.42 seconds =       0.01 minutes
	total time  =          9 seconds =       0.15 minutes

*** tstart() called on cx1-1-1-1.cx1.hpc.ic.ac.uk
*** at Fri Sep  2 17:27:41 2016


         ------------------------------------------------------------
                                   SCF GRAD                          
                          Rob Parrish, Justin Turney,                
                       Andy Simmonett, and Alex Sokolov              
         ------------------------------------------------------------

  ==> Geometry <==

    Molecular point group: c1
    Full point group: C1

    Geometry (in Angstrom), charge = 0, multiplicity = 1:

       Center              X                  Y                   Z               Mass       
    ------------   -----------------  -----------------  -----------------  -----------------
           O         -1.131391775780    -2.251109342596     0.399081363155    15.994914619560
           C         -0.003380775780    -1.918979342596     0.224729363155    12.000000000000
           C          0.469137224220    -0.505768342596    -0.014914636845    12.000000000000
           O          1.012874224220    -2.772418342596     0.222716363155    15.994914619560
           C         -0.661350775780     0.518737657404    -0.020419636845    12.000000000000
           H          1.205492224220    -0.275500342596     0.750246363155     1.007825032070
           H          1.010508224220    -0.499820342596    -0.957039636845     1.007825032070
           C         -0.154546775780     1.940978657404    -0.264225636845    12.000000000000
           H         -1.190221775780     0.472718657404     0.926346363155     1.007825032070
           H         -1.384820775780     0.248893657404    -0.783363636845     1.007825032070
           C         -1.275442775780     2.981838657404    -0.272060636845    12.000000000000
           H          0.573177224220     2.204298657404     0.501983363155     1.007825032070
           H          0.376897224220     1.980038657404    -1.213921636845     1.007825032070
           C         -0.768587775780     4.402539657404    -0.516921636845    12.000000000000
           H         -1.805701775780     2.945865657404     0.676976363155     1.007825032070
           H         -2.002747775780     2.720658657404    -1.037534636845     1.007825032070
           H         -0.064481775780     4.706049657404     0.252708363155     1.007825032070
           H         -1.586046775780     5.116831657404    -0.517023636845     1.007825032070
           H         -0.262651775780     4.478932657404    -1.475307636845     1.007825032070
           C          2.316416224220    -2.219489342596     0.220983363155    12.000000000000
           H          2.470558224220    -1.612461342596    -0.659519636845     1.007825032070
           H          2.993310224220    -3.059541342596     0.219290363155     1.007825032070
           H          2.473509224220    -1.613748342596     1.101838363155     1.007825032070

  Nuclear repulsion =  458.986409798037414

  ==> Basis Set <==

  Basis Set: 6-31G*
    Number of shells: 82
    Number of basis function: 163
    Number of Cartesian functions: 163
    Spherical Harmonics?: false
    Max angular momentum: 2

  ==> DFJKGrad: Density-Fitted SCF Gradients <==

    Gradient:                    1
    J tasked:                  Yes
    K tasked:                  Yes
    wK tasked:                  No
    OpenMP threads:              4
    Integrals threads:           4
    Memory (MB):              1430
    Schwarz Cutoff:          0E+00
    Fitting Condition:       1E-12

   => Auxiliary Basis Set <=

  Basis Set: 
    Number of shells: 342
    Number of basis function: 1079
    Number of Cartesian functions: 1079
    Spherical Harmonics?: false
    Max angular momentum: 3


  -Total Gradient:
     Atom            X                  Y                   Z
    ------   -----------------  -----------------  -----------------
       1       -0.014624947609     0.002127089633     0.003328522538
       2        0.004375379955    -0.010319478740    -0.000890622466
       3        0.018596891652    -0.013961862743    -0.000259703050
       4       -0.002308843352     0.007515145070    -0.003732410698
       5       -0.000537259321    -0.000603026999     0.000377380065
       6        0.007413729996    -0.007228465385     0.002664487041
       7        0.005745862971    -0.005359993983    -0.000171664317
       8        0.000414294460     0.000064829432    -0.000052602993
       9       -0.000132055751     0.000318884921     0.000062209423
      10       -0.000158336772     0.000222669463    -0.000194189107
      11        0.000000068515    -0.000156052754     0.000034752222
      12       -0.000079548120    -0.000155530063    -0.000150529865
      13       -0.000039518366    -0.000097711998     0.000193465247
      14        0.000050482987    -0.000014147210     0.000018979568
      15       -0.000055415666     0.000045783981     0.000062185900
      16       -0.000084246739     0.000025451831    -0.000061610759
      17       -0.000016768996    -0.000040421945    -0.000041916367
      18       -0.000070907569     0.000057694578     0.000001418559
      19        0.000019025594    -0.000023491769     0.000019310574
      20       -0.005325626962     0.016258796300     0.001678857973
      21       -0.007406427432     0.006288086620    -0.002062656657
      22       -0.000201249923    -0.000301249284    -0.000264816735
      23       -0.005574583550     0.005337001047    -0.000558846095


*** tstop() called on cx1-1-1-1.cx1.hpc.ic.ac.uk at Fri Sep  2 17:27:51 2016
Module time:
	user time   =      33.61 seconds =       0.56 minutes
	system time =       0.29 seconds =       0.00 minutes
	total time  =         10 seconds =       0.17 minutes
Total time:
	user time   =      62.81 seconds =       1.05 minutes
	system time =       0.72 seconds =       0.01 minutes
	total time  =         19 seconds =       0.32 minutes
CURRENT ENERGY: -422.9487792785

			-----------------------------------------
			 OPTKING 2.0: for geometry optimizations 
			  - R.A. King,  Bethel University        
			-----------------------------------------

	Internal coordinates to be generated automatically.
	Detected frag with atoms:  1 2 3 4 5 6 7 8 9 10 11 12 13 14 15 16 17 18 19 20
	 21 22 23
	---Fragment 1 Bond Connectivity---
	 1 : 2
	 2 : 1 3 4
	 3 : 2 5 6 7
	 4 : 2 20
	 5 : 3 8 9 10
	 6 : 3
	 7 : 3
	 8 : 5 11 12 13
	 9 : 5
	 10 : 5
	 11 : 8 14 15 16
	 12 : 8
	 13 : 8
	 14 : 11 17 18 19
	 15 : 11
	 16 : 11
	 17 : 14
	 18 : 14
	 19 : 14
	 20 : 4 21 22 23
	 21 : 20
	 22 : 20
	 23 : 20

	Assuming in current code that numbering for constraints corresponds to unified fragment.
	Frozen dihedral atom list: 
	     1     2     4    20
	---Fragment 1 Geometry and Gradient---
	 O          -2.1380206052       -4.2539801527        0.7541544811
	 C          -0.0063887403       -3.6263454122        0.4246769504
	 C           0.8865408725       -0.9557636542       -0.0281845790
	 O           1.9140548908       -5.2391113933        0.4208729317
	 C          -1.2497718440        0.9802721073       -0.0385875214
	 H           2.2780501591       -0.5206201970        1.4177601586
	 H           1.9095837988       -0.9445235632       -1.8085428120
	 C          -0.2920510809        3.6679180923       -0.4993140909
	 H          -2.2491931936        0.8933088004        1.7505409306
	 H          -2.6169320094        0.4703408487       -1.4803427361
	 C          -2.4102375444        5.6348584349       -0.5141200952
	 H           1.0831479794        4.1655207776        0.9486110796
	 H           0.7122325340        3.7417307950       -2.2939794404
	 C          -1.4524204053        8.3195942417       -0.9768403258
	 H          -3.4122818339        5.5668793168        1.2792999248
	 H          -3.7846448095        5.1412997636       -1.9606563170
	 H          -0.1218528968        8.8931450203        0.4775495979
	 H          -2.9971940402        9.6694105006       -0.9770330779
	 H          -0.4963399245        8.4639560901       -2.7879273954
	 C           4.3773922735       -4.1942270124        0.4175980363
	 H           4.6686784391       -3.0471103374       -1.2463114929
	 H           5.6565365545       -5.7816952297        0.4143987299
	 H           4.6742550209       -3.0495424149        2.0821727491
	            -0.0146249476        0.0021270896        0.0033285225
	             0.0043753800       -0.0103194787       -0.0008906225
	             0.0185968917       -0.0139618627       -0.0002597030
	            -0.0023088434        0.0075151451       -0.0037324107
	            -0.0005372593       -0.0006030270        0.0003773801
	             0.0074137300       -0.0072284654        0.0026644870
	             0.0057458630       -0.0053599940       -0.0001716643
	             0.0004142945        0.0000648294       -0.0000526030
	            -0.0001320558        0.0003188849        0.0000622094
	            -0.0001583368        0.0002226695       -0.0001941891
	             0.0000000685       -0.0001560528        0.0000347522
	            -0.0000795481       -0.0001555301       -0.0001505299
	            -0.0000395184       -0.0000977120        0.0001934652
	             0.0000504830       -0.0000141472        0.0000189796
	            -0.0000554157        0.0000457840        0.0000621859
	            -0.0000842467        0.0000254518       -0.0000616108
	            -0.0000167690       -0.0000404219       -0.0000419164
	            -0.0000709076        0.0000576946        0.0000014186
	             0.0000190256       -0.0000234918        0.0000193106
	            -0.0053256270        0.0162587963        0.0016788580
	            -0.0074064274        0.0062880866       -0.0020626567
	            -0.0002012499       -0.0003012493       -0.0002648167
	            -0.0055745835        0.0053370010       -0.0005588461

	Previous optimization step data not found.  Starting new optimization.

	---Fragment 1 Intrafragment Coordinates---
	 - Coordinate -           - BOHR/RAD -       - ANG/DEG -
	 R(1,2)           =         2.246405	       1.188746
	 R(2,3)           =         2.852089	       1.509261
	 R(2,4)           =         2.507814	       1.327078
	 R(3,5)           =         2.883084	       1.525663
	 R(3,6)           =         2.053388	       1.086606
	 R(3,7)           =         2.053392	       1.086608
	 R(4,20)          =         2.675785	       1.415965
	 R(5,8)           =         2.890145	       1.529399
	 R(5,9)           =         2.051191	       1.085444
	 R(5,10)          =         2.051296	       1.085499
	 R(8,11)          =         2.890638	       1.529660
	 R(8,12)          =         2.057977	       1.089034
	 R(8,13)          =         2.057877	       1.088982
	 R(11,14)         =         2.887790	       1.528153
	 R(11,15)         =         2.055497	       1.087722
	 R(11,16)         =         2.055496	       1.087722
	 R(14,17)         =         2.052954	       1.086377
	 R(14,18)         =         2.051421	       1.085566
	 R(14,19)         =         2.053038	       1.086421
	 R(20,21)         =         2.041891	       1.080522
	 R(20,22)         =         2.038695	       1.078831
	 R(20,23)         =         2.041872	       1.080512
	 B(1,2,3)         =         2.191965	     125.590359
	 B(1,2,4)         =         2.149815	     123.175336
	 B(2,3,5)         =         1.979442	     113.413688
	 B(2,3,6)         =         1.874211	     107.384382
	 B(2,3,7)         =         1.874208	     107.384201
	 B(2,4,20)        =         2.041887	     116.991511
	 B(3,2,4)         =         1.941399	     111.233996
	 B(3,5,8)         =         1.960050	     112.302602
	 B(3,5,9)         =         1.906484	     109.233475
	 B(3,5,10)        =         1.906526	     109.235892
	 B(4,20,21)       =         1.930187	     110.591552
	 B(4,20,22)       =         1.847880	     105.875718
	 B(4,20,23)       =         1.930248	     110.595066
	 B(5,3,6)         =         1.941610	     111.246067
	 B(5,3,7)         =         1.941604	     111.245714
	 B(5,8,11)        =         1.972264	     113.002384
	 B(5,8,12)        =         1.911475	     109.519472
	 B(5,8,13)        =         1.911442	     109.517562
	 B(6,3,7)         =         1.846013	     105.768782
	 B(8,5,9)         =         1.917640	     109.872663
	 B(8,5,10)        =         1.917698	     109.875978
	 B(8,11,14)       =         1.971842	     112.978239
	 B(8,11,15)       =         1.907366	     109.284016
	 B(8,11,16)       =         1.907298	     109.280104
	 B(9,5,10)        =         1.852275	     106.127521
	 B(11,8,12)       =         1.905762	     109.192125
	 B(11,8,13)       =         1.905760	     109.191987
	 B(11,14,17)      =         1.940337	     111.173111
	 B(11,14,18)      =         1.941184	     111.221662
	 B(11,14,19)      =         1.940331	     111.172752
	 B(12,8,13)       =         1.853337	     106.188405
	 B(14,11,15)      =         1.909475	     109.404873
	 B(14,11,16)      =         1.909481	     109.405206
	 B(15,11,16)      =         1.854704	     106.266702
	 B(17,14,18)      =         1.879991	     107.715574
	 B(17,14,19)      =         1.879137	     107.666637
	 B(18,14,19)      =         1.880028	     107.717665
	 B(21,20,22)      =         1.924809	     110.283415
	 B(21,20,23)      =         1.905647	     109.185537
	 B(22,20,23)      =         1.924724	     110.278552
	 D(1,2,3,5)       =        -0.001928	      -0.110475
	 D(1,2,3,6)       =         2.150469	     123.212774
	 D(1,2,3,7)       =        -2.154315	    -123.433144
	*D(1,2,4,20)      =        -2.967060	    -169.999991
	 D(2,3,5,8)       =         3.140938	     179.962502
	 D(2,3,5,9)       =         1.008891	      57.805169
	 D(2,3,5,10)      =        -1.010096	     -57.874249
	 D(2,4,20,21)     =        -1.056367	     -60.525393
	 D(2,4,20,22)     =        -3.141388	    -179.988281
	 D(2,4,20,23)     =         1.056845	      60.552755
	 D(3,2,4,20)      =         0.171180	       9.807873
	 D(3,5,8,11)      =        -3.140962	    -179.963849
	 D(3,5,8,12)      =        -1.012268	     -57.998663
	 D(3,5,8,13)      =         1.013557	      58.072520
	 D(4,2,3,5)       =        -3.140069	    -179.912716
	 D(4,2,3,6)       =        -0.987673	     -56.589467
	 D(4,2,3,7)       =         0.990729	      56.764615
	 D(5,8,11,14)     =        -3.140717	    -179.949828
	 D(5,8,11,15)     =         1.012262	      57.998349
	 D(5,8,11,16)     =        -1.010552	     -57.900393
	 D(6,3,5,8)       =         1.025991	      58.784940
	 D(6,3,5,9)       =        -1.106057	     -63.372393
	 D(6,3,5,10)      =        -3.125044	    -179.051811
	 D(7,3,5,8)       =        -1.027308	     -58.860434
	 D(7,3,5,9)       =         3.123829	     178.982233
	 D(7,3,5,10)      =         1.104843	      63.302815
	 D(8,11,14,17)    =        -1.046925	     -59.984371
	 D(8,11,14,18)    =         3.141328	     179.984856
	 D(8,11,14,19)    =         1.046354	      59.951676
	 D(9,5,8,11)      =        -1.015261	     -58.170165
	 D(9,5,8,12)      =         1.113433	      63.795021
	 D(9,5,8,13)      =         3.139257	     179.866205
	 D(10,5,8,11)     =         1.016428	      58.237038
	 D(10,5,8,12)     =        -3.138063	    -179.797776
	 D(10,5,8,13)     =        -1.112239	     -63.726593
	 D(12,8,11,14)    =         1.010569	      57.901364
	 D(12,8,11,15)    =        -1.119637	     -64.150459
	 D(12,8,11,16)    =         3.140734	     179.950800
	 D(13,8,11,14)    =        -1.008863	     -57.803566
	 D(13,8,11,15)    =        -3.139069	    -179.855389
	 D(13,8,11,16)    =         1.121302	      64.245870
	 D(15,11,14,17)   =         1.082097	      61.999599
	 D(15,11,14,18)   =        -1.012835	     -58.031174
	 D(15,11,14,19)   =        -3.107809	    -178.064354
	 D(16,11,14,17)   =         3.107322	     178.036433
	 D(16,11,14,18)   =         1.012390	      58.005660
	 D(16,11,14,19)   =        -1.082584	     -62.027520

	Current energy   :      -422.9487792785

	Generating empirical Hessian (Schlegel '84) for each fragment.
	Taking RFO optimization step.
	Going to follow RFO solution 1.
	Using RFO vector 1.
	Norm of target step-size    0.49214
	Projected energy change by RFO approximation:        -0.0615257744

	Back-transformation to cartesian coordinates...
	Successfully converged to displaced geometry.

	Back-transformation to cartesian coordinates to adjust frozen coordinates...
	Successfully converged to displaced geometry.

	--- Internal Coordinate Step in ANG or DEG, aJ/ANG or AJ/DEG ---
	 ---------------------------------------------------------------------------
	   Coordinate                Previous        Force       Change         New 
	   ----------                --------       ------       ------       ------
	    1 R(1,2)          =      1.188746    -0.113461    -0.006157     1.182589
	    2 R(2,3)          =      1.509261     0.130701     0.021473     1.530734
	    3 R(2,4)          =      1.327078     0.317231     0.030021     1.357100
	    4 R(3,5)          =      1.525663    -0.002241    -0.000384     1.525279
	    5 R(3,6)          =      1.086606    -0.044229    -0.006625     1.079981
	    6 R(3,7)          =      1.086608    -0.024570    -0.003681     1.082928
	    7 R(4,20)         =      1.415965     0.051624     0.006534     1.422499
	    8 R(5,8)          =      1.529399     0.001905     0.000329     1.529728
	    9 R(5,9)          =      1.085444    -0.000866    -0.000129     1.085315
	   10 R(5,10)         =      1.085499    -0.001538    -0.000230     1.085269
	   11 R(8,11)         =      1.529660    -0.000361    -0.000063     1.529597
	   12 R(8,12)         =      1.089034     0.001620     0.000244     1.089279
	   13 R(8,13)         =      1.088982     0.001578     0.000238     1.089220
	   14 R(11,14)        =      1.528153     0.000203     0.000035     1.528188
	   15 R(11,15)        =      1.087722    -0.000657    -0.000099     1.087624
	   16 R(11,16)        =      1.087722    -0.000771    -0.000116     1.087606
	   17 R(14,17)        =      1.086377     0.000427     0.000064     1.086441
	   18 R(14,18)        =      1.085566    -0.000753    -0.000112     1.085453
	   19 R(14,19)        =      1.086421     0.000081     0.000012     1.086433
	   20 R(20,21)        =      1.080522    -0.034247    -0.005045     1.075477
	   21 R(20,22)        =      1.078831    -0.000896    -0.000131     1.078699
	   22 R(20,23)        =      1.080512    -0.014219    -0.002095     1.078417
	   23 B(1,2,3)        =    125.590359    -0.002851    -6.588197   119.002163
	   24 B(1,2,4)        =    123.175336    -0.003882    -8.962375   114.212961
	   25 B(2,3,5)        =    113.413688    -0.000451    -1.228848   112.184840
	   26 B(2,3,6)        =    107.384382     0.000595     2.282980   109.667363
	   27 B(2,3,7)        =    107.384201     0.000408     1.449543   108.833745
	   28 B(2,4,20)       =    116.991511     0.007979    18.390860   135.382371
	   29 B(3,2,4)        =    111.233996     0.006733    15.502271   126.736267
	   30 B(3,5,8)        =    112.302602     0.000048     0.128155   112.430757
	   31 B(3,5,9)        =    109.233475    -0.000031    -0.110003   109.123472
	   32 B(3,5,10)       =    109.235892    -0.000025    -0.086478   109.149413
	   33 B(4,20,21)      =    110.591552     0.000796     2.691227   113.282779
	   34 B(4,20,22)      =    105.875718    -0.000414    -1.670097   104.205621
	   35 B(4,20,23)      =    110.595066     0.000451     1.540019   112.135085
	   36 B(5,3,6)        =    111.246067    -0.000375    -1.736438   109.509630
	   37 B(5,3,7)        =    111.245714    -0.000259    -1.444893   109.800821
	   38 B(5,8,11)       =    113.002384     0.000013     0.033858   113.036242
	   39 B(5,8,12)       =    109.519472     0.000001     0.013226   109.532698
	   40 B(5,8,13)       =    109.517562     0.000000     0.011899   109.529461
	   41 B(6,3,7)        =    105.768782     0.000172     0.921324   106.690106
	   42 B(8,5,9)        =    109.872663     0.000001     0.035679   109.908342
	   43 B(8,5,10)       =    109.875978    -0.000002     0.028620   109.904599
	   44 B(8,11,14)      =    112.978239     0.000005     0.013814   112.992053
	   45 B(8,11,15)      =    109.284016    -0.000004    -0.015137   109.268879
	   46 B(8,11,16)      =    109.280104    -0.000004    -0.015327   109.264776
	   47 B(9,5,10)       =    106.127521     0.000006    -0.005353   106.122168
	   48 B(11,8,12)      =    109.192125    -0.000010    -0.035394   109.156730
	   49 B(11,8,13)      =    109.191987    -0.000009    -0.033823   109.158164
	   50 B(11,14,17)     =    111.173111     0.000002     0.007719   111.180830
	   51 B(11,14,18)     =    111.221662    -0.000001    -0.004705   111.216956
	   52 B(11,14,19)     =    111.172752     0.000002     0.005996   111.178748
	   53 B(12,8,13)      =    106.188405     0.000003     0.008439   106.196844
	   54 B(14,11,15)     =    109.404873     0.000001     0.006448   109.411321
	   55 B(14,11,16)     =    109.405206     0.000001     0.007155   109.412361
	   56 B(15,11,16)     =    106.266702     0.000001     0.002315   106.269017
	   57 B(17,14,18)     =    107.715574    -0.000001    -0.005721   107.709853
	   58 B(17,14,19)     =    107.666637    -0.000000     0.002504   107.669141
	   59 B(18,14,19)     =    107.717665    -0.000001    -0.006332   107.711334
	   60 B(21,20,22)     =    110.283415    -0.000488    -1.852860   108.430555
	   61 B(21,20,23)     =    109.185537     0.000095     0.866017   110.051553
	   62 B(22,20,23)     =    110.278552    -0.000456    -1.866202   108.412350
	   63 D(1,2,3,5)      =     -0.110475     0.000035     1.250167     1.139692
	   64 D(1,2,3,6)      =    123.212774    -0.000044    -0.151730   123.061045
	   65 D(1,2,3,7)      =   -123.433144     0.000111     2.862985  -120.570159
	   66 *D(1,2,4,20)    =   -169.999991     0.000000     0.000000  -169.999991
	   67 D(2,3,5,8)      =    179.962502     0.000012     0.283930   180.246432
	   68 D(2,3,5,9)      =     57.805169     0.000009     0.230252    58.035421
	   69 D(2,3,5,10)     =    -57.874249     0.000015     0.345258   -57.528991
	   70 D(2,4,20,21)    =    -60.525393    -0.000107    -2.178335   -62.703728
	   71 D(2,4,20,22)    =   -179.988281    -0.000015    -0.359077  -180.347358
	   72 D(2,4,20,23)    =     60.552755     0.000111     2.053481    62.606236
	   73 D(3,2,4,20)     =      9.807873     0.000072     2.773803    12.581677
	   74 D(3,5,8,11)     =   -179.963849     0.000000     0.007196  -179.956653
	   75 D(3,5,8,12)     =    -57.998663    -0.000000    -0.005552   -58.004215
	   76 D(3,5,8,13)     =     58.072520     0.000001     0.018887    58.091407
	   77 D(4,2,3,5)      =   -179.912716    -0.000039    -1.639814  -181.552530
	   78 D(4,2,3,6)      =    -56.589467    -0.000118    -3.041711   -59.631178
	   79 D(4,2,3,7)      =     56.764615     0.000037    -0.026996    56.737619
	   80 D(5,8,11,14)    =   -179.949828    -0.000000    -0.001898  -179.951727
	   81 D(5,8,11,15)    =     57.998349    -0.000000    -0.008635    57.989714
	   82 D(5,8,11,16)    =    -57.900393     0.000000     0.005605   -57.894787
	   83 D(6,3,5,8)      =     58.784940    -0.000028    -0.549806    58.235134
	   84 D(6,3,5,9)      =    -63.372393    -0.000031    -0.603484   -63.975877
	   85 D(6,3,5,10)     =   -179.051811    -0.000025    -0.488479  -179.540289
	   86 D(7,3,5,8)      =    -58.860434     0.000016     0.262056   -58.598378
	   87 D(7,3,5,9)      =    178.982233     0.000013     0.208378   179.190611
	   88 D(7,3,5,10)     =     63.302815     0.000019     0.323384    63.626199
	   89 D(8,11,14,17)   =    -59.984371    -0.000000    -0.005039   -59.989410
	   90 D(8,11,14,18)   =    179.984856    -0.000000     0.000174   179.985030
	   91 D(8,11,14,19)   =     59.951676     0.000000     0.007319    59.958995
	   92 D(9,5,8,11)     =    -58.170165    -0.000001    -0.020869   -58.191034
	   93 D(9,5,8,12)     =     63.795021    -0.000002    -0.033617    63.761404
	   94 D(9,5,8,13)     =    179.866205    -0.000000    -0.009178   179.857027
	   95 D(10,5,8,11)    =     58.237038     0.000001     0.010174    58.247213
	   96 D(10,5,8,12)    =   -179.797776     0.000000    -0.002574  -179.800349
	   97 D(10,5,8,13)    =    -63.726593     0.000001     0.021866   -63.704727
	   98 D(12,8,11,14)   =     57.901364    -0.000001    -0.016287    57.885078
	   99 D(12,8,11,15)   =    -64.150459    -0.000001    -0.023023   -64.173482
	  100 D(12,8,11,16)   =    179.950800    -0.000000    -0.008783   179.942017
	  101 D(13,8,11,14)   =    -57.803566     0.000001     0.011922   -57.791644
	  102 D(13,8,11,15)   =   -179.855389     0.000000     0.005186  -179.850203
	  103 D(13,8,11,16)   =     64.245870     0.000001     0.019426    64.265295
	  104 D(15,11,14,17)  =     61.999599    -0.000000    -0.010400    61.989199
	  105 D(15,11,14,18)  =    -58.031174    -0.000000    -0.005187   -58.036361
	  106 D(15,11,14,19)  =   -178.064354     0.000000     0.001958  -178.062396
	  107 D(16,11,14,17)  =    178.036433     0.000000     0.000057   178.036490
	  108 D(16,11,14,18)  =     58.005660     0.000000     0.005271    58.010930
	  109 D(16,11,14,19)  =    -62.027520     0.000001     0.012415   -62.015105
	 ---------------------------------------------------------------------------

  ==> Convergence Check <==

  Measures of convergence in internal coordinates in au.
  Criteria marked as inactive (o), active & met (*), and active & unmet ( ).
  --------------------------------------------------------------------------------------------- ~
   Step     Total Energy     Delta E     MAX Force     RMS Force      MAX Disp      RMS Disp    ~
  --------------------------------------------------------------------------------------------- ~
    Convergence Criteria    1.00e-06 *    3.00e-04 *             o    1.20e-03 *             o  ~
  --------------------------------------------------------------------------------------------- ~
      1    -422.94877928   -4.23e+02      1.05e-01      1.53e-02 o    3.21e-01      4.71e-02 o  ~
  ---------------------------------------------------------------------------------------------

	Writing optimization data to binary file.
	Structure for next step:
	Cartesian Geometry (in Angstrom)
	    O    -0.8998630554  -1.9725516063   0.3464688176
	    C     0.2405575482  -1.6919709847   0.2077881415
	    C     0.6206651058  -0.2293681482  -0.0360516518
	    O     1.0829540929  -2.7555663026   0.2369856862
	    C    -0.5965259016   0.6898276240  -0.0354542816
	    H     1.3186346319   0.0958925197   0.7211820789
	    H     1.1355617571  -0.1556551627  -0.9858834694
	    C    -0.2236354701   2.1523264542  -0.2846909039
	    H    -1.1119512762   0.5966817221   0.9151077720
	    H    -1.2973583800   0.3530228220  -0.7925580743
	    C    -1.4345032208   3.0869203273  -0.2858954435
	    H     0.4823175990   2.4829266763   0.4761389379
	    H     0.2952464622   2.2383354977  -1.2385060031
	    C    -1.0609800071   4.5474754941  -0.5361281178
	    H    -1.9525163538   3.0044264916   0.6668807373
	    H    -2.1401578450   2.7589792289  -1.0457588393
	    H    -0.3821431740   4.9155272102   0.2281176196
	    H    -1.9400895852   5.1841474396  -0.5312731423
	    H    -0.5709176317   4.6679920647  -1.4982362211
	    C     2.4937182420  -2.9285897969   0.2945243647
	    H     3.0066251858  -2.5259128363  -0.5607119066
	    H     2.6291339996  -3.9987377261   0.3007314112
	    H     2.9157346329  -2.5265815145   1.2018696699
			--------------------------
			 OPTKING Finished Execution 
			--------------------------

    Structure for next step:
    Molecular point group: c1
    Full point group: C1

    Geometry (in Angstrom), charge = 0, multiplicity = 1:

    O           -0.944497232999    -2.042639346149     0.353680642213
    C            0.195923283451    -1.762058746033     0.214999976674
    C            0.576030812004    -0.299456021177    -0.028839797969
    O            1.038319763879    -2.825653982682     0.244197519211
    C           -0.641160102365     0.619739680750    -0.028242427785
    H            1.274000284887     0.025804621890     0.728393874857
    H            1.090927424024    -0.225743041390    -0.978671543002
    C           -0.268269699393     2.082238399293    -0.277479031136
    H           -1.156585437616     0.526593785968     0.922319553147
    H           -1.341992527240     0.282934904537    -0.785346162740
    C           -1.479137357627     3.016832201006    -0.278683570611
    H            0.437683315776     2.412838596144     0.483350752578
    H            0.250612193326     2.168247436273    -1.231294057488
    C           -1.105614172482     4.477387256319    -0.528916225770
    H           -1.997150451076     2.934338371634     0.674092537436
    H           -2.184791927965     2.688891127657    -1.038546908372
    H           -0.426777391218     4.845438944296     0.235329453226
    H           -1.984723683425     5.114059153219    -0.524061250684
    H           -0.615551834494     4.597903817684    -1.491024255568
    C            2.449083805199    -2.998677463801     0.301736193262
    H            2.961990709801    -2.596000533902    -0.553500012713
    H            2.584499552481    -4.068825311264     0.307943239268
    H            2.871100163874    -2.596669212119     1.209081429168

gradient() will perform analytic gradient computation.

*** tstart() called on cx1-1-1-1.cx1.hpc.ic.ac.uk
*** at Fri Sep  2 17:27:52 2016


         ---------------------------------------------------------
                                   SCF
            by Justin Turney, Rob Parrish, and Andy Simmonett
                              RHF Reference
                        4 Threads,   2000 MiB Core
         ---------------------------------------------------------

  ==> Geometry <==

    Molecular point group: c1
    Full point group: C1

    Geometry (in Angstrom), charge = 0, multiplicity = 1:

       Center              X                  Y                   Z               Mass       
    ------------   -----------------  -----------------  -----------------  -----------------
           O         -0.944497232999    -2.042639346149     0.353680642213    15.994914619560
           C          0.195923283451    -1.762058746033     0.214999976674    12.000000000000
           C          0.576030812004    -0.299456021177    -0.028839797969    12.000000000000
           O          1.038319763879    -2.825653982682     0.244197519211    15.994914619560
           C         -0.641160102365     0.619739680750    -0.028242427785    12.000000000000
           H          1.274000284887     0.025804621890     0.728393874857     1.007825032070
           H          1.090927424024    -0.225743041390    -0.978671543002     1.007825032070
           C         -0.268269699393     2.082238399293    -0.277479031136    12.000000000000
           H         -1.156585437616     0.526593785968     0.922319553147     1.007825032070
           H         -1.341992527240     0.282934904537    -0.785346162740     1.007825032070
           C         -1.479137357627     3.016832201006    -0.278683570611    12.000000000000
           H          0.437683315776     2.412838596144     0.483350752578     1.007825032070
           H          0.250612193326     2.168247436273    -1.231294057488     1.007825032070
           C         -1.105614172482     4.477387256319    -0.528916225770    12.000000000000
           H         -1.997150451076     2.934338371634     0.674092537436     1.007825032070
           H         -2.184791927965     2.688891127657    -1.038546908372     1.007825032070
           H         -0.426777391218     4.845438944296     0.235329453226     1.007825032070
           H         -1.984723683425     5.114059153219    -0.524061250684     1.007825032070
           H         -0.615551834494     4.597903817684    -1.491024255568     1.007825032070
           C          2.449083805199    -2.998677463801     0.301736193262    12.000000000000
           H          2.961990709801    -2.596000533902    -0.553500012713     1.007825032070
           H          2.584499552481    -4.068825311264     0.307943239268     1.007825032070
           H          2.871100163874    -2.596669212119     1.209081429168     1.007825032070

  Running in c1 symmetry.

  Rotational constants: A =      0.16362  B =      0.01684  C =      0.01554 [cm^-1]
  Rotational constants: A =   4905.12878  B =    504.99905  C =    465.77338 [MHz]
  Nuclear repulsion =  448.936546717717476

  Charge       = 0
  Multiplicity = 1
  Electrons    = 72
  Nalpha       = 36
  Nbeta        = 36

  ==> Algorithm <==

  SCF Algorithm Type is DF.
  DIIS enabled.
  MOM disabled.
  Fractional occupation disabled.
  Guess Type is READ.
  Energy threshold   = 1.00e-08
  Density threshold  = 1.00e-08
  Integral threshold = 0.00e+00

  ==> Primary Basis <==

  Basis Set: 6-31G*
    Number of shells: 82
    Number of basis function: 163
    Number of Cartesian functions: 163
    Spherical Harmonics?: false
    Max angular momentum: 2

  ==> Pre-Iterations <==

   -------------------------------------------------------
    Irrep   Nso     Nmo     Nalpha   Nbeta   Ndocc  Nsocc
   -------------------------------------------------------
     A        163     163       0       0       0       0
   -------------------------------------------------------
    Total     163     163      36      36      36       0
   -------------------------------------------------------

 OEINTS: Overlap, kinetic, potential, dipole, and quadrupole integrals
         stored in file 35.

  ==> Integral Setup <==

  ==> DFJK: Density-Fitted J/K Matrices <==

    J tasked:                  Yes
    K tasked:                  Yes
    wK tasked:                  No
    OpenMP threads:              4
    Integrals threads:           4
    Memory (MB):              1430
    Algorithm:                Core
    Integral Cache:           NONE
    Schwarz Cutoff:          1E-12
    Fitting Condition:       1E-12

   => Auxiliary Basis Set <=

  Basis Set: 
    Number of shells: 342
    Number of basis function: 1079
    Number of Cartesian functions: 1079
    Spherical Harmonics?: false
    Max angular momentum: 3

  Minimum eigenvalue in the overlap matrix is 2.3798669501E-03.
  Using Symmetric Orthogonalization.
  SCF Guess: Reading in previously saved MOs, projecting if necessary.

  Using orbitals from previous SCF, no projection.
  Recomputing DOCC and SOCC from number of alpha and beta electrons from previous calculation.
              A 
    DOCC [    36 ]

  ==> Iterations <==

                           Total Energy        Delta E     RMS |[F,P]|

   @DF-RHF iter   0:  -422.69629352565602   -4.22696e+02   5.20987e-03 
   @DF-RHF iter   1:  -422.91983674697923   -2.23543e-01   1.12200e-03 
   @DF-RHF iter   2:  -422.94154261909108   -2.17059e-02   5.66077e-04 DIIS
   @DF-RHF iter   3:  -422.94558405781794   -4.04144e-03   1.84827e-04 DIIS
   @DF-RHF iter   4:  -422.94638011989394   -7.96062e-04   4.70824e-05 DIIS
   @DF-RHF iter   5:  -422.94641729669098   -3.71768e-05   1.20458e-05 DIIS
   @DF-RHF iter   6:  -422.94642045001746   -3.15333e-06   4.89292e-06 DIIS
   @DF-RHF iter   7:  -422.94642089956795   -4.49550e-07   1.62361e-06 DIIS
   @DF-RHF iter   8:  -422.94642096893216   -6.93642e-08   5.12993e-07 DIIS
   @DF-RHF iter   9:  -422.94642097935656   -1.04244e-08   1.91258e-07 DIIS
   @DF-RHF iter  10:  -422.94642098069875   -1.34219e-09   5.92232e-08 DIIS
   @DF-RHF iter  11:  -422.94642098085052   -1.51772e-10   1.85904e-08 DIIS
   @DF-RHF iter  12:  -422.94642098086666   -1.61435e-11   7.11146e-09 DIIS

  ==> Post-Iterations <==

    Orbital Energies (a.u.)
    -----------------------

    Doubly Occupied:                                                      

       1A    -20.591179     2A    -20.533618     3A    -11.375025  
       4A    -11.295836     5A    -11.246351     6A    -11.221353  
       7A    -11.220266     8A    -11.218177     9A    -11.211177  
      10A     -1.448472    11A     -1.350571    12A     -1.094194  
      13A     -1.039104    14A     -0.986476    15A     -0.947280  
      16A     -0.848715    17A     -0.797049    18A     -0.763892  
      19A     -0.696506    20A     -0.676759    21A     -0.661720  
      22A     -0.653421    23A     -0.615598    24A     -0.600571  
      25A     -0.578086    26A     -0.566662    27A     -0.562255  
      28A     -0.531926    29A     -0.508759    30A     -0.501657  
      31A     -0.488183    32A     -0.470273    33A     -0.467538  
      34A     -0.457944    35A     -0.440793    36A     -0.428094  

    Virtual:                                                              

      37A      0.197558    38A      0.218015    39A      0.231318  
      40A      0.255844    41A      0.265937    42A      0.279205  
      43A      0.293293    44A      0.296511    45A      0.302735  
      46A      0.319466    47A      0.327795    48A      0.336647  
      49A      0.339230    50A      0.346770    51A      0.357558  
      52A      0.374389    53A      0.382183    54A      0.390591  
      55A      0.427822    56A      0.447777    57A      0.477178  
      58A      0.550741    59A      0.583688    60A      0.659139  
      61A      0.683656    62A      0.711123    63A      0.734153  
      64A      0.749979    65A      0.759367    66A      0.761133  
      67A      0.782399    68A      0.797885    69A      0.823762  
      70A      0.868720    71A      0.895226    72A      0.922378  
      73A      0.947076    74A      0.978897    75A      0.995328  
      76A      1.008646    77A      1.024872    78A      1.044196  
      79A      1.099216    80A      1.107818    81A      1.109178  
      82A      1.125890    83A      1.127313    84A      1.136999  
      85A      1.164571    86A      1.169099    87A      1.175521  
      88A      1.186609    89A      1.192436    90A      1.206382  
      91A      1.211743    92A      1.223680    93A      1.233473  
      94A      1.246727    95A      1.262597    96A      1.280290  
      97A      1.301505    98A      1.309739    99A      1.330869  
     100A      1.418950   101A      1.441759   102A      1.465997  
     103A      1.584208   104A      1.619746   105A      1.680484  
     106A      1.705890   107A      1.707790   108A      1.715487  
     109A      1.777632   110A      1.806363   111A      1.852048  
     112A      1.926609   113A      1.933630   114A      1.980210  
     115A      1.996710   116A      2.056526   117A      2.101194  
     118A      2.139242   119A      2.156094   120A      2.169942  
     121A      2.224369   122A      2.237970   123A      2.250075  
     124A      2.259554   125A      2.308035   126A      2.316973  
     127A      2.321324   128A      2.327037   129A      2.351748  
     130A      2.384398   131A      2.402626   132A      2.425826  
     133A      2.459909   134A      2.507997   135A      2.573395  
     136A      2.586737   137A      2.614251   138A      2.644412  
     139A      2.672825   140A      2.724156   141A      2.758643  
     142A      2.770702   143A      2.840836   144A      2.905817  
     145A      2.920130   146A      2.946470   147A      2.972213  
     148A      3.007554   149A      3.054165   150A      3.103373  
     151A      3.191424   152A      3.349173   153A      3.455042  
     154A      3.579407   155A      4.403867   156A      4.513924  
     157A      4.560077   158A      4.633496   159A      4.714412  
     160A      4.754028   161A      4.820438   162A      4.905482  
     163A      5.036822  

    Final Occupation by Irrep:
              A 
    DOCC [    36 ]

  Energy converged.

  @DF-RHF Final Energy:  -422.94642098086666

   => Energetics <=

    Nuclear Repulsion Energy =            448.9365467177174764
    One-Electron Energy =               -1465.5749731592713943
    Two-Electron Energy =                 593.6920054606872554
    DFT Exchange-Correlation Energy =       0.0000000000000000
    Empirical Dispersion Energy =           0.0000000000000000
    PCM Polarization Energy =               0.0000000000000000
    EFP Energy =                            0.0000000000000000
    Total Energy =                       -422.9464209808667192

    Alert: EFP and PCM quantities not currently incorporated into SCF psivars.

Properties will be evaluated at   0.000000,   0.000000,   0.000000 Bohr
  ==> Properties <==


Properties computed using the SCF density matrix

  Nuclear Dipole Moment: (a.u.)
     X:     1.6534      Y:    15.0791      Z:    -1.9114

  Electronic Dipole Moment: (a.u.)
     X:    -0.0759      Y:   -14.3689      Z:     1.7690

  Dipole Moment: (a.u.)
     X:     1.5775      Y:     0.7102      Z:    -0.1424     Total:     1.7359

  Dipole Moment: (Debye)
     X:     4.0097      Y:     1.8051      Z:    -0.3619     Total:     4.4122


  Saving occupied orbitals to File 180.

*** tstop() called on cx1-1-1-1.cx1.hpc.ic.ac.uk at Fri Sep  2 17:28:00 2016
Module time:
	user time   =      25.39 seconds =       0.42 minutes
	system time =       0.28 seconds =       0.00 minutes
	total time  =          8 seconds =       0.13 minutes
Total time:
	user time   =      89.70 seconds =       1.49 minutes
	system time =       1.07 seconds =       0.02 minutes
	total time  =         28 seconds =       0.47 minutes

*** tstart() called on cx1-1-1-1.cx1.hpc.ic.ac.uk
*** at Fri Sep  2 17:28:00 2016


         ------------------------------------------------------------
                                   SCF GRAD                          
                          Rob Parrish, Justin Turney,                
                       Andy Simmonett, and Alex Sokolov              
         ------------------------------------------------------------

  ==> Geometry <==

    Molecular point group: c1
    Full point group: C1

    Geometry (in Angstrom), charge = 0, multiplicity = 1:

       Center              X                  Y                   Z               Mass       
    ------------   -----------------  -----------------  -----------------  -----------------
           O         -0.944497232999    -2.042639346149     0.353680642213    15.994914619560
           C          0.195923283451    -1.762058746033     0.214999976674    12.000000000000
           C          0.576030812004    -0.299456021177    -0.028839797969    12.000000000000
           O          1.038319763879    -2.825653982682     0.244197519211    15.994914619560
           C         -0.641160102365     0.619739680750    -0.028242427785    12.000000000000
           H          1.274000284887     0.025804621890     0.728393874857     1.007825032070
           H          1.090927424024    -0.225743041390    -0.978671543002     1.007825032070
           C         -0.268269699393     2.082238399293    -0.277479031136    12.000000000000
           H         -1.156585437616     0.526593785968     0.922319553147     1.007825032070
           H         -1.341992527240     0.282934904537    -0.785346162740     1.007825032070
           C         -1.479137357627     3.016832201006    -0.278683570611    12.000000000000
           H          0.437683315776     2.412838596144     0.483350752578     1.007825032070
           H          0.250612193326     2.168247436273    -1.231294057488     1.007825032070
           C         -1.105614172482     4.477387256319    -0.528916225770    12.000000000000
           H         -1.997150451076     2.934338371634     0.674092537436     1.007825032070
           H         -2.184791927965     2.688891127657    -1.038546908372     1.007825032070
           H         -0.426777391218     4.845438944296     0.235329453226     1.007825032070
           H         -1.984723683425     5.114059153219    -0.524061250684     1.007825032070
           H         -0.615551834494     4.597903817684    -1.491024255568     1.007825032070
           C          2.449083805199    -2.998677463801     0.301736193262    12.000000000000
           H          2.961990709801    -2.596000533902    -0.553500012713     1.007825032070
           H          2.584499552481    -4.068825311264     0.307943239268     1.007825032070
           H          2.871100163874    -2.596669212119     1.209081429168     1.007825032070

  Nuclear repulsion =  448.936546717717476

  ==> Basis Set <==

  Basis Set: 6-31G*
    Number of shells: 82
    Number of basis function: 163
    Number of Cartesian functions: 163
    Spherical Harmonics?: false
    Max angular momentum: 2

  ==> DFJKGrad: Density-Fitted SCF Gradients <==

    Gradient:                    1
    J tasked:                  Yes
    K tasked:                  Yes
    wK tasked:                  No
    OpenMP threads:              4
    Integrals threads:           4
    Memory (MB):              1430
    Schwarz Cutoff:          0E+00
    Fitting Condition:       1E-12

   => Auxiliary Basis Set <=

  Basis Set: 
    Number of shells: 342
    Number of basis function: 1079
    Number of Cartesian functions: 1079
    Spherical Harmonics?: false
    Max angular momentum: 3


  -Total Gradient:
     Atom            X                  Y                   Z
    ------   -----------------  -----------------  -----------------
       1        0.008279514834    -0.000370650557    -0.001555589994
       2        0.002766222632     0.011279400157    -0.000325409627
       3       -0.011903691035     0.011990140637    -0.000223552218
       4       -0.005216492036    -0.008805966634     0.001851240488
       5        0.004732096247     0.000702841034    -0.000259329353
       6       -0.006041652644     0.000515543740    -0.003145919416
       7       -0.003920809266     0.001370642173     0.002243677350
       8       -0.002103620205     0.000730301399     0.000029894710
       9       -0.000194975598    -0.000082272598     0.000661909499
      10       -0.000438151238    -0.000286434286    -0.000686607643
      11        0.000407213815     0.000446612170    -0.000098239659
      12       -0.000015474060    -0.000281837494     0.000089653472
      13       -0.000023104895    -0.000239481650     0.000000510252
      14       -0.000215888780     0.000097980663     0.000006169086
      15        0.000007262413     0.000003625096     0.000033142732
      16       -0.000006414049    -0.000009379885    -0.000032782050
      17        0.000003162857    -0.000005976705     0.000003074305
      18        0.000035812737     0.000053293983    -0.000011185690
      19        0.000008754812    -0.000006924540    -0.000003849651
      20        0.012909272737    -0.007420770949    -0.000970209865
      21        0.000289685846    -0.005599528838     0.005020655830
      22        0.000069890939     0.000116501920     0.000064990434
      23        0.000571383939    -0.004197658832    -0.002692242991


*** tstop() called on cx1-1-1-1.cx1.hpc.ic.ac.uk at Fri Sep  2 17:28:09 2016
Module time:
	user time   =      33.72 seconds =       0.56 minutes
	system time =       0.29 seconds =       0.00 minutes
	total time  =          9 seconds =       0.15 minutes
Total time:
	user time   =     123.43 seconds =       2.06 minutes
	system time =       1.36 seconds =       0.02 minutes
	total time  =         37 seconds =       0.62 minutes
CURRENT ENERGY: -422.9464209809

			-----------------------------------------
			 OPTKING 2.0: for geometry optimizations 
			  - R.A. King,  Bethel University        
			-----------------------------------------

	Previous internal coordinate definitions found.
	---Fragment 1 Geometry and Gradient---
	 O          -1.7848411036       -3.8600289525        0.6683595523
	 C           0.3702413488       -3.3298084601        0.4062910745
	 C           1.0885404788       -0.5658898689       -0.0544993199
	 O           1.9621399921       -5.3397121736        0.4614664336
	 C          -1.2116170008        1.1711382703       -0.0533704538
	 H           2.4075116317        0.0487636683        1.3764649404
	 H           2.0615540623       -0.4265925246       -1.8494211903
	 C          -0.5069562616        3.9348603180       -0.5243593765
	 H          -2.1856297264        0.9951180388        1.7429313625
	 H          -2.5359983489        0.5346694830       -1.4840891671
	 C          -2.7951645188        5.7009866488       -0.5266356262
	 H           0.8271015998        4.5596041496        0.9134005485
	 H           0.4735884109        4.0973938429       -2.3268085577
	 C          -2.0893079946        8.4610357053       -0.9995068139
	 H          -3.7740673987        5.5450959036        1.2738502840
	 H          -4.1286584012        5.0812678324       -1.9625692330
	 H          -0.8064923891        9.1565525983        0.4447082176
	 H          -3.7505842111        9.6641712270       -0.9903322407
	 H          -1.1632243878        8.6887790008       -2.8176275005
	 C           4.6280976683       -5.6666791674        0.5701987696
	 H           5.5973512497       -4.9057300499       -1.0459634386
	 H           4.8839963448       -7.6889655208        0.5819283867
	 H           5.4255930098       -4.9069936686        2.2848327735
	             0.0082795148       -0.0003706506       -0.0015555900
	             0.0027662226        0.0112794002       -0.0003254096
	            -0.0119036910        0.0119901406       -0.0002235522
	            -0.0052164920       -0.0088059666        0.0018512405
	             0.0047320962        0.0007028410       -0.0002593294
	            -0.0060416526        0.0005155437       -0.0031459194
	            -0.0039208093        0.0013706422        0.0022436774
	            -0.0021036202        0.0007303014        0.0000298947
	            -0.0001949756       -0.0000822726        0.0006619095
	            -0.0004381512       -0.0002864343       -0.0006866076
	             0.0004072138        0.0004466122       -0.0000982397
	            -0.0000154741       -0.0002818375        0.0000896535
	            -0.0000231049       -0.0002394817        0.0000005103
	            -0.0002158888        0.0000979807        0.0000061691
	             0.0000072624        0.0000036251        0.0000331427
	            -0.0000064140       -0.0000093799       -0.0000327821
	             0.0000031629       -0.0000059767        0.0000030743
	             0.0000358127        0.0000532940       -0.0000111857
	             0.0000087548       -0.0000069245       -0.0000038497
	             0.0129092727       -0.0074207709       -0.0009702099
	             0.0002896858       -0.0055995288        0.0050206558
	             0.0000698909        0.0001165019        0.0000649904
	             0.0005713839       -0.0041976588       -0.0026922430

	---Fragment 1 Intrafragment Coordinates---
	 - Coordinate -           - BOHR/RAD -       - ANG/DEG -
	 R(1,2)           =         2.234769	       1.182589
	 R(2,3)           =         2.892668	       1.530734
	 R(2,4)           =         2.564546	       1.357100
	 R(3,5)           =         2.882359	       1.525279
	 R(3,6)           =         2.040868	       1.079981
	 R(3,7)           =         2.046437	       1.082928
	 R(4,20)          =         2.688133	       1.422499
	 R(5,8)           =         2.890768	       1.529728
	 R(5,9)           =         2.050947	       1.085315
	 R(5,10)          =         2.050862	       1.085269
	 R(8,11)          =         2.890520	       1.529597
	 R(8,12)          =         2.058438	       1.089279
	 R(8,13)          =         2.058327	       1.089220
	 R(11,14)         =         2.887856	       1.528188
	 R(11,15)         =         2.055311	       1.087624
	 R(11,16)         =         2.055277	       1.087606
	 R(14,17)         =         2.053075	       1.086441
	 R(14,18)         =         2.051209	       1.085453
	 R(14,19)         =         2.053061	       1.086433
	 R(20,21)         =         2.032357	       1.075477
	 R(20,22)         =         2.038446	       1.078699
	 R(20,23)         =         2.037913	       1.078417
	 B(1,2,3)         =         2.076980	     119.002163
	 B(1,2,4)         =         1.993392	     114.212961
	 B(2,3,5)         =         1.957995	     112.184840
	 B(2,3,6)         =         1.914057	     109.667363
	 B(2,3,7)         =         1.899507	     108.833745
	 B(2,4,20)        =         2.362868	     135.382371
	 B(3,2,4)         =         2.211965	     126.736267
	 B(3,5,8)         =         1.962287	     112.430757
	 B(3,5,9)         =         1.904564	     109.123472
	 B(3,5,10)        =         1.905017	     109.149413
	 B(4,20,21)       =         1.977157	     113.282779
	 B(4,20,22)       =         1.818731	     104.205621
	 B(4,20,23)       =         1.957126	     112.135085
	 B(5,3,6)         =         1.911304	     109.509630
	 B(5,3,7)         =         1.916386	     109.800821
	 B(5,8,11)        =         1.972855	     113.036242
	 B(5,8,12)        =         1.911706	     109.532698
	 B(5,8,13)        =         1.911650	     109.529461
	 B(6,3,7)         =         1.862094	     106.690106
	 B(8,5,9)         =         1.918262	     109.908342
	 B(8,5,10)        =         1.918197	     109.904599
	 B(8,11,14)       =         1.972083	     112.992053
	 B(8,11,15)       =         1.907102	     109.268879
	 B(8,11,16)       =         1.907030	     109.264776
	 B(9,5,10)        =         1.852181	     106.122168
	 B(11,8,12)       =         1.905144	     109.156730
	 B(11,8,13)       =         1.905169	     109.158164
	 B(11,14,17)      =         1.940472	     111.180830
	 B(11,14,18)      =         1.941102	     111.216956
	 B(11,14,19)      =         1.940435	     111.178748
	 B(12,8,13)       =         1.853485	     106.196844
	 B(14,11,15)      =         1.909588	     109.411321
	 B(14,11,16)      =         1.909606	     109.412361
	 B(15,11,16)      =         1.854744	     106.269017
	 B(17,14,18)      =         1.879892	     107.709853
	 B(17,14,19)      =         1.879181	     107.669141
	 B(18,14,19)      =         1.879917	     107.711334
	 B(21,20,22)      =         1.892470	     108.430555
	 B(21,20,23)      =         1.920762	     110.051553
	 B(22,20,23)      =         1.892152	     108.412350
	 D(1,2,3,5)       =         0.019891	       1.139692
	 D(1,2,3,6)       =         2.147820	     123.061045
	 D(1,2,3,7)       =        -2.104346	    -120.570159
	*D(1,2,4,20)      =        -2.967060	    -169.999991
	 D(2,3,5,8)       =        -3.137292	    -179.753568
	 D(2,3,5,9)       =         1.012909	      58.035421
	 D(2,3,5,10)      =        -1.004070	     -57.528991
	 D(2,4,20,21)     =        -1.094387	     -62.703728
	 D(2,4,20,22)     =         3.135530	     179.652642
	 D(2,4,20,23)     =         1.092685	      62.606236
	 D(3,2,4,20)      =         0.219592	      12.581677
	 D(3,5,8,11)      =        -3.140836	    -179.956653
	 D(3,5,8,12)      =        -1.012365	     -58.004215
	 D(3,5,8,13)      =         1.013886	      58.091407
	 D(4,2,3,5)       =         3.114496	     178.447470
	 D(4,2,3,6)       =        -1.040760	     -59.631178
	 D(4,2,3,7)       =         0.990258	      56.737619
	 D(5,8,11,14)     =        -3.140750	    -179.951727
	 D(5,8,11,15)     =         1.012111	      57.989714
	 D(5,8,11,16)     =        -1.010455	     -57.894787
	 D(6,3,5,8)       =         1.016395	      58.235134
	 D(6,3,5,9)       =        -1.116590	     -63.975877
	 D(6,3,5,10)      =        -3.133569	    -179.540289
	 D(7,3,5,8)       =        -1.022735	     -58.598378
	 D(7,3,5,9)       =         3.127466	     179.190611
	 D(7,3,5,10)      =         1.110487	      63.626199
	 D(8,11,14,17)    =        -1.047013	     -59.989410
	 D(8,11,14,18)    =         3.141331	     179.985030
	 D(8,11,14,19)    =         1.046482	      59.958995
	 D(9,5,8,11)      =        -1.015625	     -58.191034
	 D(9,5,8,12)      =         1.112846	      63.761404
	 D(9,5,8,13)      =         3.139097	     179.857027
	 D(10,5,8,11)     =         1.016606	      58.247213
	 D(10,5,8,12)     =        -3.138108	    -179.800349
	 D(10,5,8,13)     =        -1.111857	     -63.704727
	 D(12,8,11,14)    =         1.010285	      57.885078
	 D(12,8,11,15)    =        -1.120039	     -64.173482
	 D(12,8,11,16)    =         3.140581	     179.942017
	 D(13,8,11,14)    =        -1.008654	     -57.791644
	 D(13,8,11,15)    =        -3.138978	    -179.850203
	 D(13,8,11,16)    =         1.121641	      64.265295
	 D(15,11,14,17)   =         1.081916	      61.989199
	 D(15,11,14,18)   =        -1.012926	     -58.036361
	 D(15,11,14,19)   =        -3.107775	    -178.062396
	 D(16,11,14,17)   =         3.107323	     178.036490
	 D(16,11,14,18)   =         1.012482	      58.010930
	 D(16,11,14,19)   =        -1.082368	     -62.015105

	Current energy   :      -422.9464209809

	Energy change for the previous step:
		Projected    :        -0.0615257744
		Actual       :         0.0023582976

	Performing BFGS update.
	Previous computed or guess Hessian on step 1.
	Steps to be used in Hessian update: 1
	Taking RFO optimization step.
	Going to follow RFO solution 1.
	Using RFO vector 1.
	Norm of target step-size    0.16199
	Projected energy change by RFO approximation:        -0.0131787656

	Back-transformation to cartesian coordinates...
	Successfully converged to displaced geometry.

	Back-transformation to cartesian coordinates to adjust frozen coordinates...
	Successfully converged to displaced geometry.

	--- Internal Coordinate Step in ANG or DEG, aJ/ANG or AJ/DEG ---
	 ---------------------------------------------------------------------------
	   Coordinate                Previous        Force       Change         New 
	   ----------                --------       ------       ------       ------
	    1 R(1,2)          =      1.182589     0.066559     0.002411     1.185000
	    2 R(2,3)          =      1.530734    -0.079659    -0.008767     1.521967
	    3 R(2,4)          =      1.357100    -0.211964    -0.013543     1.343557
	    4 R(3,5)          =      1.525279     0.008871     0.001190     1.526469
	    5 R(3,6)          =      1.079981     0.049062     0.005300     1.085280
	    6 R(3,7)          =      1.082928     0.030803     0.003361     1.086288
	    7 R(4,20)         =      1.422499    -0.130697    -0.012253     1.410246
	    8 R(5,8)          =      1.529728    -0.002366    -0.000302     1.529426
	    9 R(5,9)          =      1.085315    -0.005597    -0.000664     1.084651
	   10 R(5,10)         =      1.085269    -0.007010    -0.000836     1.084434
	   11 R(8,11)         =      1.529597    -0.001352    -0.000193     1.529404
	   12 R(8,12)         =      1.089279     0.000271     0.000049     1.089328
	   13 R(8,13)         =      1.089220     0.000250     0.000046     1.089266
	   14 R(11,14)        =      1.528188    -0.000759    -0.000102     1.528085
	   15 R(11,15)        =      1.087624    -0.000208    -0.000031     1.087592
	   16 R(11,16)        =      1.087606    -0.000246    -0.000037     1.087569
	   17 R(14,17)        =      1.086441    -0.000017     0.000002     1.086443
	   18 R(14,18)        =      1.085453    -0.000018    -0.000010     1.085443
	   19 R(14,19)        =      1.086433    -0.000054    -0.000006     1.086428
	   20 R(20,21)        =      1.075477     0.049028     0.005300     1.080778
	   21 R(20,22)        =      1.078699     0.000877     0.000091     1.078791
	   22 R(20,23)        =      1.078417     0.029712     0.003278     1.081695
	   23 B(1,2,3)        =    119.002163     0.001642     2.492908   121.495071
	   24 B(1,2,4)        =    114.212961     0.002021     2.986613   117.199574
	   25 B(2,3,5)        =    112.184840     0.000026    -0.037574   112.147267
	   26 B(2,3,6)        =    109.667363    -0.000130    -0.043753   109.623610
	   27 B(2,3,7)        =    108.833745    -0.000102    -0.204085   108.629660
	   28 B(2,4,20)       =    135.382371    -0.003828    -5.535296   129.847075
	   29 B(3,2,4)        =    126.736267    -0.003661    -5.504115   121.232152
	   30 B(3,5,8)        =    112.430757    -0.000211    -0.470844   111.959913
	   31 B(3,5,9)        =    109.123472     0.000069     0.116002   109.239474
	   32 B(3,5,10)       =    109.149413     0.000068     0.125134   109.274547
	   33 B(4,20,21)      =    113.282779    -0.000443    -0.964005   112.318774
	   34 B(4,20,22)      =    104.205621     0.000216     0.491314   104.696935
	   35 B(4,20,23)      =    112.135085    -0.000252    -0.562548   111.572537
	   36 B(5,3,6)        =    109.509630     0.000164     0.357476   109.867106
	   37 B(5,3,7)        =    109.800821     0.000133     0.206292   110.007113
	   38 B(5,8,11)       =    113.036242    -0.000088    -0.195166   112.841076
	   39 B(5,8,12)       =    109.532698     0.000040     0.127619   109.660317
	   40 B(5,8,13)       =    109.529461     0.000036     0.107574   109.637034
	   41 B(6,3,7)        =    106.690106    -0.000099    -0.296653   106.393453
	   42 B(8,5,9)        =    109.908342     0.000059     0.113369   110.021711
	   43 B(8,5,10)       =    109.904599     0.000063     0.137676   110.042274
	   44 B(8,11,14)      =    112.992053    -0.000022    -0.049238   112.942815
	   45 B(8,11,15)      =    109.268879     0.000007     0.010474   109.279353
	   46 B(8,11,16)      =    109.264776     0.000007     0.011259   109.276036
	   47 B(9,5,10)       =    106.122168    -0.000038     0.006572   106.128740
	   48 B(11,8,12)      =    109.156730     0.000015    -0.011449   109.145281
	   49 B(11,8,13)      =    109.158164     0.000018    -0.008543   109.149621
	   50 B(11,14,17)     =    111.180830     0.000002     0.009084   111.189913
	   51 B(11,14,18)     =    111.216956    -0.000008    -0.027045   111.189911
	   52 B(11,14,19)     =    111.178748     0.000002     0.008263   111.187011
	   53 B(12,8,13)      =    106.196844    -0.000018    -0.009585   106.187259
	   54 B(14,11,15)     =    109.411321     0.000007     0.014771   109.426092
	   55 B(14,11,16)     =    109.412361     0.000007     0.015831   109.428193
	   56 B(15,11,16)     =    106.269017    -0.000004    -0.000151   106.268866
	   57 B(17,14,18)     =    107.709853     0.000002     0.002652   107.712504
	   58 B(17,14,19)     =    107.669141    -0.000001     0.006190   107.675332
	   59 B(18,14,19)     =    107.711334     0.000002     0.001469   107.712802
	   60 B(21,20,22)     =    108.430555     0.000240     0.518133   108.948688
	   61 B(21,20,23)     =    110.051553     0.000081     0.147383   110.198937
	   62 B(22,20,23)     =    108.412350     0.000214     0.476817   108.889167
	   63 D(1,2,3,5)      =      1.139692    -0.000015     0.069644     1.209336
	   64 D(1,2,3,6)      =    123.061045     0.000016     0.468993   123.530038
	   65 D(1,2,3,7)      =   -120.570159    -0.000041    -0.025378  -120.595537
	   66 *D(1,2,4,20)    =   -169.999991     0.000000    -0.000000  -169.999991
	   67 D(2,3,5,8)      =   -179.753568    -0.000001     0.066511  -179.687057
	   68 D(2,3,5,9)      =     58.035421     0.000003     0.155591    58.191012
	   69 D(2,3,5,10)     =    -57.528991    -0.000004     0.014328   -57.514663
	   70 D(2,4,20,21)    =    -62.703728     0.000051     0.468568   -62.235160
	   71 D(2,4,20,22)    =    179.652642     0.000006     0.041320   179.693962
	   72 D(2,4,20,23)    =     62.606236    -0.000052    -0.531976    62.074260
	   73 D(3,2,4,20)     =     12.581677    -0.000027     0.484860    13.066537
	   74 D(3,5,8,11)     =   -179.956653     0.000000    -0.003138  -179.959791
	   75 D(3,5,8,12)     =    -58.004215    -0.000003    -0.059210   -58.063425
	   76 D(3,5,8,13)     =     58.091407     0.000003     0.063594    58.155001
	   77 D(4,2,3,5)      =    178.447470     0.000013    -0.436906   178.010564
	   78 D(4,2,3,6)      =    -59.631178     0.000045    -0.037557   -59.668735
	   79 D(4,2,3,7)      =     56.737619    -0.000013    -0.531928    56.205691
	   80 D(5,8,11,14)    =   -179.951727     0.000000    -0.000996  -179.952722
	   81 D(5,8,11,15)    =     57.989714     0.000001     0.005944    57.995658
	   82 D(5,8,11,16)    =    -57.894787    -0.000000    -0.006010   -57.900797
	   83 D(6,3,5,8)      =     58.235134     0.000006    -0.104376    58.130758
	   84 D(6,3,5,9)      =    -63.975877     0.000010    -0.015296   -63.991173
	   85 D(6,3,5,10)     =   -179.540289     0.000003    -0.156559  -179.696848
	   86 D(7,3,5,8)      =    -58.598378    -0.000006    -0.074612   -58.672989
	   87 D(7,3,5,9)      =    179.190611    -0.000002     0.014468   179.205080
	   88 D(7,3,5,10)     =     63.626199    -0.000009    -0.126794    63.499405
	   89 D(8,11,14,17)   =    -59.989410    -0.000000    -0.005183   -59.994593
	   90 D(8,11,14,18)   =    179.985030     0.000000     0.003526   179.988556
	   91 D(8,11,14,19)   =     59.958995     0.000000     0.014282    59.973277
	   92 D(9,5,8,11)     =    -58.191034    -0.000003    -0.095122   -58.286156
	   93 D(9,5,8,12)     =     63.761404    -0.000006    -0.151194    63.610210
	   94 D(9,5,8,13)     =    179.857027    -0.000000    -0.028390   179.828636
	   95 D(10,5,8,11)    =     58.247213     0.000003     0.060320    58.307533
	   96 D(10,5,8,12)    =   -179.800349     0.000000     0.004249  -179.796101
	   97 D(10,5,8,13)    =    -63.704727     0.000005     0.127052   -63.577674
	   98 D(12,8,11,14)   =     57.885078    -0.000001    -0.024005    57.861072
[...]
	 D(2,4,20,21)     =        -1.084981	     -62.164838
	 D(2,4,20,22)     =         3.129330	     179.297426
	 D(2,4,20,23)     =         1.065222	      61.032728
	 D(3,2,4,20)      =         0.188845	      10.820025
	 D(3,5,8,11)      =         3.140861	     179.958054
	 D(3,5,8,12)      =        -1.014536	     -58.128607
	 D(3,5,8,13)      =         1.013114	      58.047157
	 D(4,2,3,5)       =         3.122730	     178.919245
	 D(4,2,3,6)       =        -1.018996	     -58.384161
	 D(4,2,3,7)       =         0.985889	      56.487258
	 D(5,8,11,14)     =        -3.141299	    -179.983203
	 D(5,8,11,15)     =         1.011608	      57.960882
	 D(5,8,11,16)     =        -1.011091	     -57.931235
	 D(6,3,5,8)       =         1.016030	      58.214242
	 D(6,3,5,9)       =        -1.116829	     -63.989576
	 D(6,3,5,10)      =        -3.134098	    -179.570606
	 D(7,3,5,8)       =        -1.022334	     -58.575434
	 D(7,3,5,9)       =         3.127992	     179.220747
	 D(7,3,5,10)      =         1.110723	      63.639718
	 D(8,11,14,17)    =        -1.047020	     -59.989848
	 D(8,11,14,18)    =         3.141458	     179.992291
	 D(8,11,14,19)    =         1.046766	      59.975253
	 D(9,5,8,11)      =        -1.018366	     -58.348048
	 D(9,5,8,12)      =         1.109424	      63.565291
	 D(9,5,8,13)      =         3.137073	     179.741055
	 D(10,5,8,11)     =         1.016698	      58.252516
	 D(10,5,8,12)     =        -3.138698	    -179.834145
	 D(10,5,8,13)     =        -1.111048	     -63.658381
	 D(12,8,11,14)    =         1.009712	      57.852237
	 D(12,8,11,15)    =        -1.120566	     -64.203678
	 D(12,8,11,16)    =         3.139921	     179.904205
	 D(13,8,11,14)    =        -1.009265	     -57.826627
	 D(13,8,11,15)    =        -3.139543	    -179.882541
	 D(13,8,11,16)    =         1.120944	      64.225342
	 D(15,11,14,17)   =         1.081796	      61.982364
	 D(15,11,14,18)   =        -1.012911	     -58.035497
	 D(15,11,14,19)   =        -3.107603	    -178.052535
	 D(16,11,14,17)   =         3.107447	     178.043619
	 D(16,11,14,18)   =         1.012741	      58.025758
	 D(16,11,14,19)   =        -1.081952	     -61.991280

	Current energy   :      -422.9609848999

	Energy change for the previous step:
		Projected    :        -0.0000002786
		Actual       :        -0.0000001541

	Performing BFGS update.
	Previous computed or guess Hessian on step 1.
	Steps to be used in Hessian update: 9 8
	Taking RFO optimization step.
	Going to follow RFO solution 1.
	Rejecting RFO root 1 because normalization gives large value.
	Using RFO vector 2.
	Norm of target step-size    0.00380
	Projected energy change by RFO approximation:         0.0000000053

	Back-transformation to cartesian coordinates...
	Successfully converged to displaced geometry.

	Back-transformation to cartesian coordinates to adjust frozen coordinates...
	Successfully converged to displaced geometry.

	--- Internal Coordinate Step in ANG or DEG, aJ/ANG or AJ/DEG ---
	 ---------------------------------------------------------------------------
	   Coordinate                Previous        Force       Change         New 
	   ----------                --------       ------       ------       ------
	    1 R(1,2)          =      1.183987    -0.000066     0.000003     1.183990
	    2 R(2,3)          =      1.516472     0.000192     0.000034     1.516506
	    3 R(2,4)          =      1.336149    -0.000122     0.000000     1.336149
	    4 R(3,5)          =      1.526715     0.000019     0.000002     1.526716
	    5 R(3,6)          =      1.086848     0.000100     0.000017     1.086865
	    6 R(3,7)          =      1.087284    -0.000014    -0.000004     1.087280
	    7 R(4,20)         =      1.407595    -0.000192    -0.000020     1.407575
	    8 R(5,8)          =      1.529350     0.000031     0.000002     1.529352
	    9 R(5,9)          =      1.084790    -0.000021    -0.000002     1.084788
	   10 R(5,10)         =      1.084701    -0.000017    -0.000002     1.084698
	   11 R(8,11)         =      1.529719     0.000017     0.000000     1.529719
	   12 R(8,12)         =      1.089224    -0.000003    -0.000000     1.089223
	   13 R(8,13)         =      1.089176     0.000005     0.000001     1.089176
	   14 R(11,14)        =      1.528124     0.000018     0.000002     1.528127
	   15 R(11,15)        =      1.087589    -0.000002    -0.000000     1.087589
	   16 R(11,16)        =      1.087572    -0.000006    -0.000001     1.087571
	   17 R(14,17)        =      1.086435    -0.000001    -0.000000     1.086435
	   18 R(14,18)        =      1.085448     0.000009     0.000001     1.085449
	   19 R(14,19)        =      1.086425    -0.000006    -0.000001     1.086424
	   20 R(20,21)        =      1.082563     0.000010     0.000003     1.082566
	   21 R(20,22)        =      1.078850    -0.000024    -0.000002     1.078849
	   22 R(20,23)        =      1.082980     0.000037     0.000006     1.082986
	   23 B(1,2,3)        =    123.247315     0.000003     0.006002   123.253317
	   24 B(1,2,4)        =    118.908881    -0.000004    -0.006162   118.902719
	   25 B(2,3,5)        =    112.664496     0.000001     0.001827   112.666323
	   26 B(2,3,6)        =    108.940174    -0.000000     0.003183   108.943358
	   27 B(2,3,7)        =    108.331523     0.000000    -0.000259   108.331265
	   28 B(2,4,20)       =    123.131248    -0.000001    -0.004296   123.126952
	   29 B(3,2,4)        =    117.838372     0.000001    -0.000079   117.838293
	   30 B(3,5,8)        =    112.214514    -0.000000    -0.000868   112.213646
	   31 B(3,5,9)        =    109.122443     0.000000     0.000303   109.122746
	   32 B(3,5,10)       =    109.128469     0.000000     0.000011   109.128480
	   33 B(4,20,21)      =    111.959298     0.000001    -0.000386   111.958913
	   34 B(4,20,22)      =    105.722539    -0.000002    -0.007796   105.714744
	   35 B(4,20,23)      =    111.498839    -0.000001     0.000202   111.499041
	   36 B(5,3,6)        =    110.268177    -0.000000    -0.001751   110.266426
	   37 B(5,3,7)        =    110.400252    -0.000000    -0.000768   110.399484
	   38 B(5,8,11)       =    112.928122     0.000000    -0.000260   112.927862
	   39 B(5,8,12)       =    109.595599    -0.000000    -0.000165   109.595434
	   40 B(5,8,13)       =    109.588048     0.000000     0.001399   109.589447
	   41 B(6,3,7)        =    105.994120    -0.000000    -0.002421   105.991700
	   42 B(8,5,9)        =    110.016978     0.000000    -0.000059   110.016919
	   43 B(8,5,10)       =    110.022577     0.000000     0.000880   110.023458
	   44 B(8,11,14)      =    112.969321     0.000000     0.000459   112.969780
	   45 B(8,11,15)      =    109.271030    -0.000000    -0.000334   109.270696
	   46 B(8,11,16)      =    109.267084    -0.000000     0.000235   109.267319
	   47 B(9,5,10)       =    106.146234    -0.000000    -0.000233   106.146001
	   48 B(11,8,12)      =    109.148462    -0.000000    -0.000951   109.147511
	   49 B(11,8,13)      =    109.150796    -0.000000     0.000359   109.151155
	   50 B(11,14,17)     =    111.185389     0.000000     0.000033   111.185422
	   51 B(11,14,18)     =    111.203557     0.000000     0.000627   111.204184
	   52 B(11,14,19)     =    111.183786    -0.000000    -0.000455   111.183330
	   53 B(12,8,13)      =    106.205872    -0.000000    -0.000398   106.205475
	   54 B(14,11,15)     =    109.420086    -0.000000    -0.000667   109.419418
	   55 B(14,11,16)     =    109.419219    -0.000000     0.000428   109.419648
	   56 B(15,11,16)     =    106.273299     0.000000    -0.000159   106.273140
	   57 B(17,14,18)     =    107.708461    -0.000000    -0.000146   107.708315
	   58 B(17,14,19)     =    107.677253     0.000000    -0.000135   107.677118
	   59 B(18,14,19)     =    107.708662    -0.000000     0.000064   107.708726
	   60 B(21,20,22)     =    108.975740     0.000001     0.002280   108.978020
	   61 B(21,20,23)     =    109.598603     0.000001     0.003152   109.601755
	   62 B(22,20,23)     =    108.953743     0.000001     0.002343   108.956086
	   63 D(1,2,3,5)      =     -0.222419    -0.000000     0.005722    -0.216698
	   64 D(1,2,3,6)      =    122.474175    -0.000000     0.007001   122.481176
	   65 D(1,2,3,7)      =   -122.654406    -0.000000     0.005676  -122.648731
	   66 *D(1,2,4,20)    =   -169.999991     0.000000     0.000000  -169.999991
	   67 D(2,3,5,8)      =   -179.836723    -0.000000    -0.013858  -179.850581
	   68 D(2,3,5,9)      =     57.959459    -0.000000    -0.013417    57.946041
	   69 D(2,3,5,10)     =    -57.621571    -0.000000    -0.013312   -57.634883
	   70 D(2,4,20,21)    =    -62.164838    -0.000000    -0.049288   -62.214126
	   71 D(2,4,20,22)    =    179.297426    -0.000000    -0.047058   179.250367
	   72 D(2,4,20,23)    =     61.032728     0.000000    -0.045309    60.987419
	   73 D(3,2,4,20)     =     10.820025    -0.000000     0.017794    10.837820
	   74 D(3,5,8,11)     =    179.958054     0.000000     0.044777   180.002831
	   75 D(3,5,8,12)     =    -58.128607     0.000000     0.043261   -58.085346
	   76 D(3,5,8,13)     =     58.047157     0.000000     0.043487    58.090644
	   77 D(4,2,3,5)      =    178.919245     0.000000    -0.013017   178.906228
	   78 D(4,2,3,6)      =    -58.384161     0.000000    -0.011737   -58.395898
	   79 D(4,2,3,7)      =     56.487258     0.000000    -0.013063    56.474195
	   80 D(5,8,11,14)    =   -179.983203    -0.000000    -0.047791  -180.030995
	   81 D(5,8,11,15)    =     57.960882    -0.000000    -0.047008    57.913874
	   82 D(5,8,11,16)    =    -57.931235    -0.000000    -0.046763   -57.977998
	   83 D(6,3,5,8)      =     58.214242    -0.000000    -0.017964    58.196278
	   84 D(6,3,5,9)      =    -63.989576    -0.000000    -0.017523   -64.007099
	   85 D(6,3,5,10)     =   -179.570606    -0.000000    -0.017417  -179.588023
	   86 D(7,3,5,8)      =    -58.575434     0.000000    -0.013481   -58.588916
	   87 D(7,3,5,9)      =    179.220747     0.000000    -0.013040   179.207707
	   88 D(7,3,5,10)     =     63.639718     0.000000    -0.012935    63.626783
	   89 D(8,11,14,17)   =    -59.989848     0.000000     0.011804   -59.978045
	   90 D(8,11,14,18)   =    179.992291     0.000000     0.011546   180.003836
	   91 D(8,11,14,19)   =     59.975253     0.000000     0.011350    59.986602
	   92 D(9,5,8,11)     =    -58.348048     0.000000     0.044532   -58.303516
	   93 D(9,5,8,12)     =     63.565291     0.000000     0.043016    63.608307
	   94 D(9,5,8,13)     =    179.741055     0.000000     0.043242   179.784297
	   95 D(10,5,8,11)    =     58.252516     0.000000     0.044733    58.297249
	   96 D(10,5,8,12)    =   -179.834145     0.000000     0.043217  -179.790928
	   97 D(10,5,8,13)    =    -63.658381     0.000000     0.043443   -63.614939
	   98 D(12,8,11,14)   =     57.852237    -0.000000    -0.046722    57.805515
	   99 D(12,8,11,15)   =    -64.203678    -0.000000    -0.045938   -64.249616
	  100 D(12,8,11,16)   =    179.904205    -0.000000    -0.045693   179.858513
	  101 D(13,8,11,14)   =    -57.826627    -0.000000    -0.045920   -57.872547
	  102 D(13,8,11,15)   =   -179.882541     0.000000    -0.045137  -179.927678
	  103 D(13,8,11,16)   =     64.225342     0.000000    -0.044891    64.180450
	  104 D(15,11,14,17)  =     61.982364     0.000000     0.011208    61.993572
	  105 D(15,11,14,18)  =    -58.035497     0.000000     0.010950   -58.024547
	  106 D(15,11,14,19)  =   -178.052535     0.000000     0.010754  -178.041781
	  107 D(16,11,14,17)  =    178.043619     0.000000     0.010882   178.054501
	  108 D(16,11,14,18)  =     58.025758    -0.000000     0.010624    58.036382
	  109 D(16,11,14,19)  =    -61.991280    -0.000000     0.010428   -61.980852
	 ---------------------------------------------------------------------------

  ==> Convergence Check <==

  Measures of convergence in internal coordinates in au.
  Criteria marked as inactive (o), active & met (*), and active & unmet ( ).
  ---------------------------------------------------------------------------------------------
   Step     Total Energy     Delta E     MAX Force     RMS Force      MAX Disp      RMS Disp   
  ---------------------------------------------------------------------------------------------
    Convergence Criteria    1.00e-06 *    3.00e-04 *             o    1.20e-03 *             o
  ---------------------------------------------------------------------------------------------
     10    -422.96098490   -1.54e-07 *    4.76e-05 *    8.32e-06 o    8.60e-04 *    3.64e-04 o  ~
  ---------------------------------------------------------------------------------------------


  **** Optimization is complete! (in 10 steps) ****

  ==> Optimization Summary <==

  Measures of convergence in internal coordinates in au.
  --------------------------------------------------------------------------------------------------------------- ~
   Step         Total Energy             Delta E       MAX Force       RMS Force        MAX Disp        RMS Disp  ~
  --------------------------------------------------------------------------------------------------------------- ~
      1    -422.948779278462   -422.948779278462      0.10486506      0.01529162      0.32098106      0.04713527  ~
      2    -422.946420980867      0.002358297595      0.05030571      0.00819803      0.09660914      0.01551623  ~
      3    -422.957110779736     -0.010689798869      0.03466692      0.00468275      0.05965457      0.01163809  ~
      4    -422.959959253364     -0.002848473629      0.02018491      0.00263695      0.11697321      0.02271512  ~
      5    -422.959334025067      0.000625228297      0.02615919      0.00357829      0.18139389      0.02993320  ~
      6    -422.960477009929     -0.001142984862      0.00467410      0.00086407      0.08371421      0.01329987  ~
      7    -422.960980002711     -0.000502992782      0.00095639      0.00014716      0.03080503      0.00535755  ~
      8    -422.960981192537     -0.000001189826      0.00039026      0.00008154      0.01671242      0.00292549  ~
      9    -422.960984745721     -0.000003553184      0.00018246      0.00003370      0.00186477      0.00047278  ~
     10    -422.960984899861     -0.000000154140      0.00004755      0.00000832      0.00086024      0.00036391  ~
  --------------------------------------------------------------------------------------------------------------- ~

	Writing optimization data to binary file.
	Final energy is   -422.9609848998614
	Final (previous) structure:
	Cartesian Geometry (in Angstrom)
	    O    -1.0622612515  -2.1650881841   0.3904857115
	    C     0.0682475219  -1.8552322275   0.2238624178
	    C     0.5117094677  -0.4249041379  -0.0152836270
	    O     1.0061760039  -2.8068439233   0.2281544802
	    C    -0.6552369368   0.5594982518  -0.0220228876
	    H     1.2340843322  -0.1472661578   0.7478216025
	    H     1.0457299191  -0.3861305550  -0.9615954621
	    C    -0.1970375487   1.9977289438  -0.2679013969
	    H    -1.1809115927   0.4939612393   0.9246239430
	    H    -1.3674617270   0.2612436479  -0.7838338490
	    C    -1.3541874753   2.9981900083  -0.2789437551
	    H     0.5197162190   2.2889089333   0.4988359138
	    H     0.3335854171   2.0546445760  -1.2173766976
	    C    -0.8974411260   4.4355558008  -0.5249654271
	    H    -1.8842079627   2.9444565149   0.6692342306
	    H    -2.0703005230   2.7101797806  -1.0451317690
	    H    -0.2057888024   4.7650366084   0.2453599027
	    H    -1.7397298730   5.1202032043  -0.5271850960
	    H    -0.3932699606   4.5287839771  -1.4827959158
	    C     2.3856527465  -2.5273450778   0.2439104846
	    H     2.6984046012  -1.9825036130  -0.6377221472
	    H     2.8782701609  -3.4870806252   0.2563127791
	    H     2.6686286060  -1.9752129495   1.1315591988
	Saving final (previous) structure.
			--------------------------
			 OPTKING Finished Execution 
			--------------------------

    Final optimized geometry and variables:
    Molecular point group: c1
    Full point group: C1

    Geometry (in Angstrom), charge = 0, multiplicity = 1:

    O           -1.062261170397    -2.165088018724     0.390485681721
    C            0.068247516690    -1.855232085829     0.223862400719
    C            0.511709428626    -0.424904105468    -0.015283625842
    O            1.006175927067    -2.806843709000     0.228154462784
    C           -0.655236886765     0.559498209083    -0.022022885906
    H            1.234084237956    -0.147266146513     0.747821545443
    H            1.045729839288    -0.386130525467    -0.961595388710
    C           -0.197037533604     1.997728791217    -0.267901376480
    H           -1.180911502548     0.493961201605     0.924623872403
    H           -1.367461622540     0.261243627942    -0.783833789115
    C           -1.354187371884     2.998189779297    -0.278943733821
    H            0.519716179323     2.288908758556     0.498835875733
    H            0.333585391624     2.054644419090    -1.217376604658
    C           -0.897441057437     4.435555462112    -0.524965386967
    H           -1.884207818821     2.944456290027     0.669234179486
    H           -2.070300364953     2.710179573611    -1.045131689144
    H           -0.205788786734     4.765036244495     0.245359883999
    H           -1.739729740140     5.120202813348    -0.527185055712
    H           -0.393269930534     4.528783631217    -1.482795802534
    C            2.385652564277    -2.527344884812     0.243910465972
    H            2.698404395119    -1.982503461580    -0.637722098523
    H            2.878269941133    -3.487080358916     0.256312759547
    H            2.668628402187    -1.975212798705     1.131559112367

	Cleaning optimization helper files.


Properties will be evaluated at   0.000000,   0.000000,   0.000000 Bohr

Properties computed using the  density matrix

  Nuclear Dipole Moment: (a.u.)
     X:     2.3779      Y:    16.0905      Z:    -2.0425

  Electronic Dipole Moment: (a.u.)
     X:    -0.8360      Y:   -15.1724      Z:     1.8587

  Dipole Moment: (a.u.)
     X:     1.5419      Y:     0.9181      Z:    -0.1838     Total:     1.8039

  Dipole Moment: (Debye)
     X:     3.9191      Y:     2.3335      Z:    -0.4671     Total:     4.5851

  Quadrupole Moment: (Debye Ang)
    XX:   -53.4990     YY:   -65.8742     ZZ:   -55.5552
    XY:    -9.6948     XZ:     1.6310     YZ:     1.6476

  Traceless Quadrupole Moment: (Debye Ang)
    XX:     4.8105     YY:    -7.5647     ZZ:     2.7542
    XY:    -9.6948     XZ:     1.6310     YZ:     1.6476

  Mulliken Charges: (a.u.)
   Center  Symbol    Alpha    Beta     Spin     Total
       1     O     4.26741  4.26741  0.00000 -0.53483
       2     C     2.59691  2.59691  0.00000  0.80617
       3     C     3.23502  3.23502  0.00000 -0.47003
       4     O     4.30375  4.30375  0.00000 -0.60750
       5     C     3.14856  3.14856  0.00000 -0.29713
       6     H     0.40500  0.40500  0.00000  0.19000
       7     H     0.40337  0.40337  0.00000  0.19327
       8     C     3.15389  3.15389  0.00000 -0.30778
       9     H     0.40895  0.40895  0.00000  0.18211
      10     H     0.40851  0.40851  0.00000  0.18298
      11     C     3.15189  3.15189  0.00000 -0.30377
      12     H     0.42503  0.42503  0.00000  0.14994
      13     H     0.42473  0.42473  0.00000  0.15054
      14     C     3.23970  3.23970  0.00000 -0.47940
      15     H     0.42052  0.42052  0.00000  0.15895
      16     H     0.42039  0.42039  0.00000  0.15922
      17     H     0.42199  0.42199  0.00000  0.15602
      18     H     0.41773  0.41773  0.00000  0.16455
      19     H     0.42189  0.42189  0.00000  0.15621
      20     C     3.09351  3.09351  0.00000 -0.18701
      21     H     0.41722  0.41722  0.00000  0.16556
      22     H     0.39783  0.39783  0.00000  0.20434
      23     H     0.41620  0.41620  0.00000  0.16760

   Total alpha = 36.00000, Total beta = 36.00000, Total charge = -0.00000


*** PSI4 exiting successfully. Buy a developer a beer!
