    -----------------------------------------------------------------------
          Psi4: An Open-Source Ab Initio Electronic Structure Package
                              Psi4 1.0.54 Driver

                          Git: Rev {master} 8d4cec3 dirty

    J. M. Turney, A. C. Simmonett, R. M. Parrish, E. G. Hohenstein,
    F. A. Evangelista, J. T. Fermann, B. J. Mintz, L. A. Burns, J. J. Wilke,
    M. L. Abrams, N. J. Russ, M. L. Leininger, C. L. Janssen, E. T. Seidl,
    W. D. Allen, H. F. Schaefer, R. A. King, E. F. Valeev, C. D. Sherrill,
    and T. D. Crawford, WIREs Comput. Mol. Sci. 2, 556-565 (2012)
    (doi: 10.1002/wcms.93)

                         Additional Contributions by
    A. E. DePrince, U. Bozkaya, A. Yu. Sokolov, D. G. A. Smith, R. Di Remigio,
    R. M. Richard, J. F. Gonthier, H. R. McAlexander, M. Saitow, and
    B. P. Pritchard
    -----------------------------------------------------------------------


    Psi4 started on: Sun Sep 11 00:54:55 2016

    Process ID:   7033
    PSI4DATADIR: /export131/home/mjharvey/miniconda3/share/psi4
    Memory level set to 256.000 MB

  ==> Input File <==

--------------------------------------------------------------------------
set {
	reference rhf
	basis cc-pvtz
}


set_num_threads( 4 )
memory 2 gb

molecule MOL {
0 1

O	 3.219313	 0.959291	 -0.614106
C	 2.698710	 0.058177	 -0.050237
C	 1.246364	 -0.005813	 0.348416
O	 3.344101	 -1.038700	 0.312317
C	 0.453207	 1.232821	 -0.049003
H	 0.839270	 -0.907818	 -0.092281
H	 1.216683	 -0.160521	 1.422434
C	 -0.998367	 1.217982	 0.432195
H	 0.481498	 1.345443	 -1.127236
H	 0.951413	 2.105557	 0.354893
C	 -1.882951	 0.151251	 -0.211235
H	 -1.429490	 2.193659	 0.228843
H	 -1.019755	 1.099323	 1.513279
C	 -3.342450	 0.243269	 0.226009
H	 -1.826223	 0.246578	 -1.293162
H	 -1.508033	 -0.839650	 0.027695
C	 -3.706014	 -0.734466	 1.339844
H	 -3.986056	 0.063507	 -0.631777
H	 -3.554922	 1.257224	 0.557092
C	 -5.165977	 -0.637784	 1.769888
H	 -3.494444	 -1.748091	 1.010413
H	 -3.065496	 -0.554272	 2.198985
H	 -5.390387	 -1.344035	 2.560984
H	 -5.832953	 -0.847799	 0.940343
H	 -5.400794	 0.355723	 2.137331
C	 4.720529	 -1.114346	 0.001449
H	 4.874321	 -1.055557	 -1.065852
H	 5.057824	 -2.067950	 0.373977
H	 5.264321	 -0.313596	 0.480350

	symmetry c1
}
set optking {
	frozen_dihedral = ("
		17 14 11 15
	")
}

ee,wfn = optimize('scf', return_wfn=True)
oeprop( wfn, 'DIPOLE', 'QUADRUPOLE', 'MULLIKEN_CHARGES')
f=open( 'psi4out.xyz', 'w' )
f.write( "29  " )
f.write( str(ee) + "\n" )
f.write( MOL.save_string_xyz() )
f.close()
--------------------------------------------------------------------------

  Memory set to   2.000 GiB by Python script.
gradient() will perform analytic gradient computation.

*** tstart() called on cx1-27-3-2
*** at Sun Sep 11 00:54:55 2016


         ---------------------------------------------------------
                                   SCF
            by Justin Turney, Rob Parrish, and Andy Simmonett
                              RHF Reference
                        4 Threads,   2000 MiB Core
         ---------------------------------------------------------

  ==> Geometry <==

    Molecular point group: c1
    Full point group: C1

    Geometry (in Angstrom), charge = 0, multiplicity = 1:

       Center              X                  Y                   Z               Mass       
    ------------   -----------------  -----------------  -----------------  -----------------
           O          3.122588137570     0.943598259424    -0.933665905844    15.994914619560
           C          2.601985137570     0.042484259424    -0.369796905844    12.000000000000
           C          1.149639137570    -0.021505740576     0.028856094156    12.000000000000
           O          3.247376137570    -1.054392740576    -0.007242905844    15.994914619560
           C          0.356482137570     1.217128259424    -0.368562905844    12.000000000000
           H          0.742545137570    -0.923510740576    -0.411840905844     1.007825032070
           H          1.119958137570    -0.176213740576     1.102874094156     1.007825032070
           C         -1.095091862430     1.202289259424     0.112635094156    12.000000000000
           H          0.384773137570     1.329750259424    -1.446795905844     1.007825032070
           H          0.854688137570     2.089864259424     0.035333094156     1.007825032070
           C         -1.979675862430     0.135558259424    -0.530794905844    12.000000000000
           H         -1.526214862430     2.177966259424    -0.090716905844     1.007825032070
           H         -1.116479862430     1.083630259424     1.193719094156     1.007825032070
           C         -3.439174862430     0.227576259424    -0.093550905844    12.000000000000
           H         -1.922947862430     0.230885259424    -1.612721905844     1.007825032070
           H         -1.604757862430    -0.855342740576    -0.291864905844     1.007825032070
           C         -3.802738862430    -0.750158740576     1.020284094156    12.000000000000
           H         -4.082780862430     0.047814259424    -0.951336905844     1.007825032070
           H         -3.651646862430     1.241531259424     0.237532094156     1.007825032070
           C         -5.262701862430    -0.653476740576     1.450328094156    12.000000000000
           H         -3.591168862430    -1.763783740576     0.690853094156     1.007825032070
           H         -3.162220862430    -0.569964740576     1.879425094156     1.007825032070
           H         -5.487111862430    -1.359727740576     2.241424094156     1.007825032070
           H         -5.929677862430    -0.863491740576     0.620783094156     1.007825032070
           H         -5.497518862430     0.340030259424     1.817771094156     1.007825032070
           C          4.623804137570    -1.130038740576    -0.318110905844    12.000000000000
           H          4.777596137570    -1.071249740576    -1.385411905844     1.007825032070
           H          4.961099137570    -2.083642740576     0.054417094156     1.007825032070
           H          5.167596137570    -0.329288740576     0.160790094156     1.007825032070

  Running in c1 symmetry.

  Rotational constants: A =      0.09887  B =      0.00998  C =      0.00935 [cm^-1]
  Rotational constants: A =   2963.93247  B =    299.04504  C =    280.33613 [MHz]
  Nuclear repulsion =  615.659207443021955

  Charge       = 0
  Multiplicity = 1
  Electrons    = 88
  Nalpha       = 44
  Nbeta        = 44

  ==> Algorithm <==

  SCF Algorithm Type is DF.
  DIIS enabled.
  MOM disabled.
  Fractional occupation disabled.
  Guess Type is SAD.
  Energy threshold   = 1.00e-08
  Density threshold  = 1.00e-08
  Integral threshold = 0.00e+00

  ==> Primary Basis <==

  Basis Set: CC-PVTZ
    Number of shells: 218
    Number of basis function: 582
    Number of Cartesian functions: 655
    Spherical Harmonics?: true
    Max angular momentum: 3

  ==> Pre-Iterations <==

   -------------------------------------------------------
    Irrep   Nso     Nmo     Nalpha   Nbeta   Ndocc  Nsocc
   -------------------------------------------------------
     A        582     582       0       0       0       0
   -------------------------------------------------------
    Total     582     582      44      44      44       0
   -------------------------------------------------------

  ==> Integral Setup <==

  ==> DFJK: Density-Fitted J/K Matrices <==

    J tasked:                  Yes
    K tasked:                  Yes
    wK tasked:                  No
    OpenMP threads:              4
    Integrals threads:           4
    Memory (MB):              1430
    Algorithm:                Core
    Integral Cache:           NONE
    Schwarz Cutoff:          1E-12
    Fitting Condition:       1E-12

   => Auxiliary Basis Set <=

  Basis Set: 
    Number of shells: 455
    Number of basis function: 1409
    Number of Cartesian functions: 1686
    Spherical Harmonics?: true
    Max angular momentum: 4

  Minimum eigenvalue in the overlap matrix is 1.9540520325E-04.
  Using Symmetric Orthogonalization.
  SCF Guess: Superposition of Atomic Densities via on-the-fly atomic UHF.

  ==> Iterations <==

                           Total Energy        Delta E     RMS |[F,P]|

   @DF-RHF iter   0:  -506.57910268655803   -5.06579e+02   1.13857e-02 
   @DF-RHF iter   1:  -500.86792658466595    5.71118e+00   1.23047e-03 
   @DF-RHF iter   2:  -501.13944914608430   -2.71523e-01   7.43675e-04 DIIS
   @DF-RHF iter   3:  -501.20824786675018   -6.87987e-02   2.13980e-04 DIIS
   @DF-RHF iter   4:  -501.21932368278465   -1.10758e-02   6.08941e-05 DIIS
   @DF-RHF iter   5:  -501.22039697375897   -1.07329e-03   2.14912e-05 DIIS
   @DF-RHF iter   6:  -501.22056729882740   -1.70325e-04   8.77712e-06 DIIS
   @DF-RHF iter   7:  -501.22059352193298   -2.62231e-05   3.49459e-06 DIIS
   @DF-RHF iter   8:  -501.22059830433716   -4.78240e-06   1.04354e-06 DIIS
   @DF-RHF iter   9:  -501.22059890730577   -6.02969e-07   3.18326e-07 DIIS
   @DF-RHF iter  10:  -501.22059896000053   -5.26948e-08   1.21007e-07 DIIS
   @DF-RHF iter  11:  -501.22059896804660   -8.04607e-09   4.27171e-08 DIIS
   @DF-RHF iter  12:  -501.22059896934059   -1.29398e-09   1.64379e-08 DIIS
   @DF-RHF iter  13:  -501.22059896952544   -1.84855e-10   6.75996e-09 DIIS

  ==> Post-Iterations <==

    Orbital Energies (a.u.)
    -----------------------

    Doubly Occupied:                                                      

       1A    -20.595948     2A    -20.533783     3A    -11.364177  
       4A    -11.278216     5A    -11.232856     6A    -11.216792  
       7A    -11.215669     8A    -11.214411     9A    -11.212579  
      10A    -11.211127    11A    -11.207056    12A     -1.471834  
      13A     -1.365431    14A     -1.099952    15A     -1.067896  
      16A     -1.019824    17A     -0.978161    18A     -0.929274  
      19A     -0.861920    20A     -0.807926    21A     -0.786052  
      22A     -0.765349    23A     -0.702652    24A     -0.685414  
      25A     -0.675772    26A     -0.636614    27A     -0.633710  
      28A     -0.614508    29A     -0.597363    30A     -0.581494  
      31A     -0.562626    32A     -0.558168    33A     -0.541198  
      34A     -0.526418    35A     -0.516008    36A     -0.510816  
      37A     -0.496122    38A     -0.481072    39A     -0.474160  
      40A     -0.461855    41A     -0.459460    42A     -0.448019  
      43A     -0.445623    44A     -0.438079  

    Virtual:                                                              

      45A      0.139492    46A      0.146008    47A      0.157774  
      48A      0.158481    49A      0.160934    50A      0.184461  
      51A      0.188815    52A      0.193867    53A      0.201590  
      54A      0.212209    55A      0.215351    56A      0.223664  
      57A      0.230016    58A      0.237081    59A      0.243515  
      60A      0.256509    61A      0.259188    62A      0.270037  
      63A      0.271439    64A      0.282522    65A      0.306030  
      66A      0.338408    67A      0.347895    68A      0.354801  
      69A      0.367951    70A      0.374416    71A      0.381314  
      72A      0.384591    73A      0.388273    74A      0.406992  
      75A      0.421278    76A      0.431076    77A      0.433546  
      78A      0.446911    79A      0.458081    80A      0.464846  
      81A      0.468408    82A      0.489758    83A      0.504114  
      84A      0.526004    85A      0.530557    86A      0.538595  
      87A      0.553933    88A      0.562132    89A      0.563526  
      90A      0.570876    91A      0.587994    92A      0.594466  
      93A      0.597722    94A      0.603504    95A      0.619910  
      96A      0.621504    97A      0.627449    98A      0.629223  
      99A      0.632140   100A      0.634932   101A      0.639935  
     102A      0.649966   103A      0.653740   104A      0.659897  
     105A      0.668063   106A      0.671771   107A      0.673637  
     108A      0.681196   109A      0.686945   110A      0.694978  
     111A      0.699414   112A      0.704878   113A      0.716190  
     114A      0.722879   115A      0.739661   116A      0.743355  
     117A      0.748531   118A      0.763711   119A      0.779216  
     120A      0.790957   121A      0.800154   122A      0.824521  
     123A      0.833872   124A      0.843429   125A      0.863493  
     126A      0.871358   127A      0.881978   128A      0.891854  
     129A      0.894576   130A      0.923232   131A      0.926246  
     132A      0.932428   133A      0.938663   134A      0.950195  
     135A      0.969794   136A      0.997858   137A      1.006215  
     138A      1.014997   139A      1.019092   140A      1.047233  
     141A      1.053214   142A      1.062221   143A      1.068446  
     144A      1.077402   145A      1.081295   146A      1.101820  
     147A      1.107072   148A      1.120533   149A      1.126413  
     150A      1.146041   151A      1.162634   152A      1.172629  
     153A      1.180453   154A      1.182892   155A      1.199868  
     156A      1.213291   157A      1.226123   158A      1.228912  
     159A      1.244177   160A      1.260011   161A      1.271824  
     162A      1.277455   163A      1.282082   164A      1.297244  
     165A      1.301226   166A      1.306037   167A      1.315297  
     168A      1.322838   169A      1.328001   170A      1.335028  
     171A      1.344691   172A      1.353850   173A      1.360409  
     174A      1.364918   175A      1.376973   176A      1.386236  
     177A      1.393939   178A      1.401357   179A      1.416041  
     180A      1.421615   181A      1.430826   182A      1.434110  
     183A      1.441623   184A      1.447107   185A      1.460447  
     186A      1.465734   187A      1.474322   188A      1.489260  
     189A      1.496531   190A      1.503486   191A      1.509448  
     192A      1.514499   193A      1.523117   194A      1.529717  
     195A      1.534626   196A      1.541271   197A      1.548348  
     198A      1.557003   199A      1.569745   200A      1.575471  
     201A      1.583611   202A      1.597516   203A      1.614691  
     204A      1.622482   205A      1.631520   206A      1.643214  
     207A      1.662750   208A      1.669072   209A      1.671703  
     210A      1.676742   211A      1.711890   212A      1.729565  
     213A      1.731071   214A      1.740967   215A      1.751816  
     216A      1.764230   217A      1.788294   218A      1.797636  
     219A      1.802130   220A      1.809704   221A      1.831336  
     222A      1.835291   223A      1.838669   224A      1.846001  
     225A      1.869826   226A      1.883873   227A      1.898234  
     228A      1.904656   229A      1.931064   230A      1.956813  
     231A      1.971403   232A      2.006101   233A      2.008535  
     234A      2.049456   235A      2.092220   236A      2.100932  
     237A      2.161298   238A      2.259491   239A      2.305236  
     240A      2.331725   241A      2.342724   242A      2.453619  
     243A      2.474863   244A      2.493832   245A      2.519263  
     246A      2.531536   247A      2.577690   248A      2.601041  
     249A      2.622583   250A      2.625555   251A      2.650744  
     252A      2.666364   253A      2.677506   254A      2.684032  
     255A      2.702307   256A      2.710509   257A      2.719707  
     258A      2.742908   259A      2.746614   260A      2.769731  
     261A      2.780361   262A      2.811799   263A      2.816827  
     264A      2.823008   265A      2.843778   266A      2.848446  
     267A      2.853341   268A      2.871880   269A      2.877037  
     270A      2.893584   271A      2.903928   272A      2.917567  
     273A      2.935389   274A      2.945011   275A      2.956605  
     276A      2.960632   277A      2.973960   278A      2.979473  
     279A      2.994431   280A      3.004942   281A      3.008025  
     282A      3.030553   283A      3.036427   284A      3.047667  
     285A      3.059074   286A      3.074267   287A      3.084345  
     288A      3.084849   289A      3.096821   290A      3.105234  
     291A      3.116890   292A      3.126260   293A      3.136193  
     294A      3.141091   295A      3.150880   296A      3.177085  
     297A      3.182977   298A      3.192482   299A      3.214792  
     300A      3.234540   301A      3.245619   302A      3.252214  
     303A      3.260350   304A      3.275525   305A      3.282032  
     306A      3.288907   307A      3.299098   308A      3.303833  
     309A      3.319223   310A      3.328172   311A      3.339058  
     312A      3.343033   313A      3.347024   314A      3.358974  
     315A      3.368097   316A      3.374252   317A      3.378793  
     318A      3.394230   319A      3.408985   320A      3.421008  
     321A      3.427919   322A      3.436221   323A      3.442760  
     324A      3.444648   325A      3.455725   326A      3.466635  
     327A      3.470355   328A      3.470765   329A      3.479789  
     330A      3.482351   331A      3.494028   332A      3.496466  
     333A      3.504045   334A      3.507071   335A      3.520758  
     336A      3.533247   337A      3.539220   338A      3.545699  
     339A      3.557361   340A      3.570436   341A      3.581829  
     342A      3.595516   343A      3.601710   344A      3.605636  
     345A      3.618391   346A      3.632134   347A      3.635863  
     348A      3.649927   349A      3.652201   350A      3.659344  
     351A      3.676054   352A      3.679870   353A      3.703209  
     354A      3.720906   355A      3.725549   356A      3.740320  
     357A      3.746772   358A      3.757199   359A      3.768099  
     360A      3.772879   361A      3.781689   362A      3.790890  
     363A      3.814911   364A      3.820218   365A      3.842772  
     366A      3.845724   367A      3.853252   368A      3.859099  
     369A      3.867239   370A      3.873142   371A      3.883910  
     372A      3.899668   373A      3.923002   374A      3.927718  
     375A      3.932822   376A      3.952216   377A      3.969908  
     378A      3.975493   379A      3.979925   380A      3.996662  
     381A      4.006266   382A      4.015428   383A      4.030570  
     384A      4.037563   385A      4.055056   386A      4.065111  
     387A      4.092723   388A      4.096563   389A      4.098767  
     390A      4.115315   391A      4.116842   392A      4.123255  
     393A      4.135635   394A      4.144586   395A      4.160210  
     396A      4.164077   397A      4.171199   398A      4.179876  
     399A      4.186445   400A      4.187536   401A      4.196168  
     402A      4.207527   403A      4.217562   404A      4.221379  
     405A      4.223817   406A      4.240983   407A      4.253062  
     408A      4.267392   409A      4.273064   410A      4.279124  
     411A      4.301455   412A      4.308948   413A      4.331016  
     414A      4.349554   415A      4.355795   416A      4.363856  
     417A      4.377309   418A      4.384112   419A      4.386296  
     420A      4.393011   421A      4.396711   422A      4.402303  
     423A      4.412570   424A      4.427630   425A      4.430488  
     426A      4.440444   427A      4.454705   428A      4.461933  
     429A      4.481379   430A      4.488545   431A      4.495706  
     432A      4.519407   433A      4.531553   434A      4.534793  
     435A      4.540211   436A      4.550900   437A      4.562969  
     438A      4.582962   439A      4.591608   440A      4.599735  
     441A      4.611991   442A      4.620072   443A      4.625584  
     444A      4.632915   445A      4.637322   446A      4.657887  
     447A      4.660250   448A      4.668058   449A      4.672343  
     450A      4.697838   451A      4.715037   452A      4.722893  
     453A      4.728846   454A      4.737422   455A      4.769719  
     456A      4.777795   457A      4.785632   458A      4.791111  
     459A      4.816322   460A      4.853481   461A      4.864578  
     462A      4.887103   463A      4.907700   464A      4.923214  
     465A      4.929709   466A      4.968516   467A      5.003321  
     468A      5.010498   469A      5.036364   470A      5.048273  
     471A      5.050449   472A      5.063843   473A      5.074828  
     474A      5.089514   475A      5.105607   476A      5.115422  
     477A      5.129371   478A      5.139438   479A      5.153352  
     480A      5.163087   481A      5.168414   482A      5.209340  
     483A      5.237159   484A      5.256597   485A      5.259374  
     486A      5.267914   487A      5.295142   488A      5.307620  
     489A      5.325834   490A      5.331610   491A      5.346759  
     492A      5.354344   493A      5.370582   494A      5.382149  
     495A      5.385514   496A      5.397511   497A      5.415306  
     498A      5.426857   499A      5.448354   500A      5.465390  
     501A      5.490329   502A      5.494878   503A      5.503347  
     504A      5.518986   505A      5.535675   506A      5.546501  
     507A      5.564913   508A      5.593406   509A      5.599565  
     510A      5.609478   511A      5.613862   512A      5.617517  
     513A      5.641038   514A      5.666333   515A      5.669348  
     516A      5.680266   517A      5.726958   518A      5.745821  
     519A      5.749684   520A      5.777851   521A      5.799317  
     522A      5.808673   523A      5.829363   524A      5.840136  
     525A      5.854111   526A      5.863924   527A      5.869788  
     528A      5.884972   529A      5.897989   530A      5.904468  
     531A      5.922295   532A      5.929847   533A      5.941291  
     534A      5.954374   535A      5.994029   536A      6.006864  
     537A      6.016114   538A      6.027987   539A      6.044396  
     540A      6.055470   541A      6.128675   542A      6.153279  
     543A      6.183110   544A      6.188252   545A      6.246634  
     546A      6.316073   547A      6.319748   548A      6.331468  
     549A      6.370029   550A      6.381900   551A      6.411598  
     552A      6.478743   553A      6.487182   554A      6.530477  
     555A      6.599608   556A      6.611600   557A      6.693129  
     558A      6.846776   559A      6.870415   560A      6.899884  
     561A      6.915199   562A      7.050158   563A      7.249388  
     564A      7.263471   565A      7.374613   566A      7.485743  
     567A      7.503386   568A      7.580907   569A      7.693008  
     570A      7.898232   571A      7.985576   572A      9.998072  
     573A     12.106232   574A     12.919036   575A     13.263822  
     576A     13.475155   577A     13.882885   578A     14.033583  
     579A     14.071300   580A     14.163454   581A     14.288475  
     582A     14.710500  

    Final Occupation by Irrep:
              A 
    DOCC [    44 ]

  Energy converged.

  @DF-RHF Final Energy:  -501.22059896952544

   => Energetics <=

    Nuclear Repulsion Energy =            615.6592074430219554
    One-Electron Energy =               -1902.7928405179304718
    Two-Electron Energy =                 785.9130341053835309
    DFT Exchange-Correlation Energy =       0.0000000000000000
    Empirical Dispersion Energy =           0.0000000000000000
    PCM Polarization Energy =               0.0000000000000000
    EFP Energy =                            0.0000000000000000
    Total Energy =                       -501.2205989695250992


  Saving occupied orbitals to File 180.

*** tstop() called on cx1-27-3-2 at Sun Sep 11 00:55:34 2016
Module time:
	user time   =     136.63 seconds =       2.28 minutes
	system time =       2.37 seconds =       0.04 minutes
	total time  =         39 seconds =       0.65 minutes
Total time:
	user time   =     136.63 seconds =       2.28 minutes
	system time =       2.37 seconds =       0.04 minutes
	total time  =         39 seconds =       0.65 minutes


Properties will be evaluated at   0.000000,   0.000000,   0.000000 Bohr

Properties computed using the SCF density matrix

  Nuclear Dipole Moment: (a.u.)
     X:   -18.3103      Y:    -1.3643      Z:     3.5993

  Electronic Dipole Moment: (a.u.)
     X:    18.1288      Y:     0.7457      Z:    -3.2701

  Dipole Moment: (a.u.)
     X:    -0.1815      Y:    -0.6186      Z:     0.3292     Total:     0.7239

  Dipole Moment: (Debye)
     X:    -0.4612      Y:    -1.5723      Z:     0.8368     Total:     1.8399


*** tstart() called on cx1-27-3-2
*** at Sun Sep 11 00:55:34 2016


         ------------------------------------------------------------
                                   SCF GRAD                          
                          Rob Parrish, Justin Turney,                
                       Andy Simmonett, and Alex Sokolov              
         ------------------------------------------------------------

  ==> Geometry <==

    Molecular point group: c1
    Full point group: C1

    Geometry (in Angstrom), charge = 0, multiplicity = 1:

       Center              X                  Y                   Z               Mass       
    ------------   -----------------  -----------------  -----------------  -----------------
           O          3.122588137570     0.943598259424    -0.933665905844    15.994914619560
           C          2.601985137570     0.042484259424    -0.369796905844    12.000000000000
           C          1.149639137570    -0.021505740576     0.028856094156    12.000000000000
           O          3.247376137570    -1.054392740576    -0.007242905844    15.994914619560
           C          0.356482137570     1.217128259424    -0.368562905844    12.000000000000
           H          0.742545137570    -0.923510740576    -0.411840905844     1.007825032070
           H          1.119958137570    -0.176213740576     1.102874094156     1.007825032070
           C         -1.095091862430     1.202289259424     0.112635094156    12.000000000000
           H          0.384773137570     1.329750259424    -1.446795905844     1.007825032070
           H          0.854688137570     2.089864259424     0.035333094156     1.007825032070
           C         -1.979675862430     0.135558259424    -0.530794905844    12.000000000000
           H         -1.526214862430     2.177966259424    -0.090716905844     1.007825032070
           H         -1.116479862430     1.083630259424     1.193719094156     1.007825032070
           C         -3.439174862430     0.227576259424    -0.093550905844    12.000000000000
           H         -1.922947862430     0.230885259424    -1.612721905844     1.007825032070
           H         -1.604757862430    -0.855342740576    -0.291864905844     1.007825032070
           C         -3.802738862430    -0.750158740576     1.020284094156    12.000000000000
           H         -4.082780862430     0.047814259424    -0.951336905844     1.007825032070
           H         -3.651646862430     1.241531259424     0.237532094156     1.007825032070
           C         -5.262701862430    -0.653476740576     1.450328094156    12.000000000000
           H         -3.591168862430    -1.763783740576     0.690853094156     1.007825032070
           H         -3.162220862430    -0.569964740576     1.879425094156     1.007825032070
           H         -5.487111862430    -1.359727740576     2.241424094156     1.007825032070
           H         -5.929677862430    -0.863491740576     0.620783094156     1.007825032070
           H         -5.497518862430     0.340030259424     1.817771094156     1.007825032070
           C          4.623804137570    -1.130038740576    -0.318110905844    12.000000000000
           H          4.777596137570    -1.071249740576    -1.385411905844     1.007825032070
           H          4.961099137570    -2.083642740576     0.054417094156     1.007825032070
           H          5.167596137570    -0.329288740576     0.160790094156     1.007825032070

  Nuclear repulsion =  615.659207443021955

  ==> Basis Set <==

  Basis Set: CC-PVTZ
    Number of shells: 218
    Number of basis function: 582
    Number of Cartesian functions: 655
    Spherical Harmonics?: true
    Max angular momentum: 3

  ==> DFJKGrad: Density-Fitted SCF Gradients <==

    Gradient:                    1
    J tasked:                  Yes
    K tasked:                  Yes
    wK tasked:                  No
    OpenMP threads:              4
    Integrals threads:           4
    Memory (MB):              1430
    Schwarz Cutoff:          0E+00
    Fitting Condition:       1E-12

   => Auxiliary Basis Set <=

  Basis Set: 
    Number of shells: 455
    Number of basis function: 1409
    Number of Cartesian functions: 1686
    Spherical Harmonics?: true
    Max angular momentum: 4


  -Total Gradient:
     Atom            X                  Y                   Z
    ------   -----------------  -----------------  -----------------
       1       -0.000037068681     0.000025647835     0.000023511226
       2        0.000032055515    -0.000015842813    -0.000068796204
       3       -0.000071752639    -0.000025656348     0.000032742356
       4       -0.000035955651    -0.000005637664     0.000027780796
       5       -0.000061887887     0.000138307492    -0.000514639885
       6        0.000007624342    -0.000006937022    -0.000002078542
       7       -0.000002958133     0.000017271564    -0.000002983579
       8       -0.002113909175     0.000500316069    -0.000249530620
       9        0.000145800263     0.000028991603     0.000017800350
      10       -0.000051249777    -0.000039725232    -0.000006314350
      11       -0.003860020788    -0.000457863252     0.003207560842
      12       -0.000069810950     0.000474491883     0.000365815788
      13       -0.000060605323    -0.000329021142    -0.000236897706
      14        0.005043719721     0.000422129442     0.000137407465
      15       -0.001745390316    -0.000929939015    -0.001361500258
      16       -0.000577201064    -0.000594295105     0.001476258968
      17        0.001668232772    -0.000777977204    -0.001246955290
      18        0.000608426608     0.000787620002    -0.002091284021
      19        0.001366788840     0.000895645559     0.000878596970
      20       -0.000233828129    -0.000052127716    -0.000493733163
      21        0.000143785507    -0.000344653973     0.000313360683
      22       -0.000111704482     0.000260531688    -0.000255753982
      23        0.000077231684     0.000020603588    -0.000050462580
      24       -0.000097993966    -0.000025338260     0.000100694253
      25        0.000044084888     0.000025637677     0.000000448548
      26        0.000012664537     0.000008576974    -0.000005869186
      27       -0.000001923726    -0.000001269090     0.000002958080
      28       -0.000013489742     0.000003570845     0.000002165357
      29       -0.000003664241    -0.000003058384    -0.000000302320


*** tstop() called on cx1-27-3-2 at Sun Sep 11 00:56:08 2016
Module time:
	user time   =     130.83 seconds =       2.18 minutes
	system time =       1.15 seconds =       0.02 minutes
	total time  =         34 seconds =       0.57 minutes
Total time:
	user time   =     267.69 seconds =       4.46 minutes
	system time =       3.53 seconds =       0.06 minutes
	total time  =         73 seconds =       1.22 minutes

			-----------------------------------------
			 OPTKING 2.0: for geometry optimizations 
			  - R.A. King,  Bethel University        
			-----------------------------------------

	Internal coordinates to be generated automatically.
	Detected frag 1 with atoms:  1 2 3 4 5 6 7 8 9 10 11 12 13 14 15 16 17 18 19 20
	 21 22 23 24 25 26 27 28 29
	---Fragment 1 Bond Connectivity---
	 1 : 2
	 2 : 1 3 4
	 3 : 2 5 6 7
	 4 : 2 26
	 5 : 3 8 9 10
	 6 : 3
	 7 : 3
	 8 : 5 11 12 13
	 9 : 5
	 10 : 5
	 11 : 8 14 15 16
	 12 : 8
	 13 : 8
	 14 : 11 17 18 19
	 15 : 11
	 16 : 11
	 17 : 14 20 21 22
	 18 : 14
	 19 : 14
	 20 : 17 23 24 25
	 21 : 17
	 22 : 17
	 23 : 20
	 24 : 20
	 25 : 20
	 26 : 4 27 28 29
	 27 : 26
	 28 : 26
	 29 : 26

	Assuming in current code that numbering for constraints corresponds to unified fragment.
	Frozen dihedral atom list: 
	    17    14    11    15
	---Fragment 1 Geometry and Gradient---
	 O           5.9008364058        1.7831422898       -1.7643728617
	 C           4.9170393118        0.0802836153       -0.6988148768
	 C           2.1725031217       -0.0406399600        0.0545301152
	 O           6.1366515505       -1.9925135162       -0.0136871085
	 C           0.6736536113        2.3000390789       -0.6964829548
	 H           1.4032069513       -1.7451823805       -0.7782665224
	 H           2.1164141603       -0.3329957105        2.0841299970
	 C          -2.0694237103        2.2719974328        0.2128494809
	 H           0.7271158533        2.5128638154       -2.7340480322
	 H           1.6151265090        3.9492711052        0.0667698714
	 C          -3.7410452119        0.2561679854       -1.0030570048
	 H          -2.8841281099        4.1157597570       -0.1714301077
	 H          -2.1098411729        2.0477644196        2.2558021676
	 C          -6.4990986131        0.4300568047       -0.1767855915
	 H          -3.6338448278        0.4363099084       -3.0476027306
	 H          -3.0325528696       -1.6163635294       -0.5515447398
	 C          -7.1861350049       -1.4175945759        1.9280575157
	 H          -7.7153376906        0.0903558556       -1.7977662122
	 H          -6.9006125040        2.3461540657        0.4488706057
	 C          -9.9450652390       -1.2348920739        2.7407229008
	 H          -6.7863256469       -3.3330682273        1.3055231460
	 H          -5.9757314017       -1.0770772651        3.5515987152
	 H         -10.3691386805       -2.5695130450        4.2356776856
	 H         -11.2054672162       -1.6317629077        1.1731100359
	 H         -10.3888050604        0.6425640672        3.4350895402
	 C           8.7377235121       -2.1354637392       -0.6011424919
	 H           9.0283482735       -2.0243686296       -2.6180490833
	 H           9.3751186881       -3.9375141385        0.1028334049
	 H           9.7653414654       -0.6222655383        0.3038492428
	            -0.0000370687        0.0000256478        0.0000235112
	             0.0000320555       -0.0000158428       -0.0000687962
	            -0.0000717526       -0.0000256563        0.0000327424
	            -0.0000359557       -0.0000056377        0.0000277808
	            -0.0000618879        0.0001383075       -0.0005146399
	             0.0000076243       -0.0000069370       -0.0000020785
	            -0.0000029581        0.0000172716       -0.0000029836
	            -0.0021139092        0.0005003161       -0.0002495306
	             0.0001458003        0.0000289916        0.0000178004
	            -0.0000512498       -0.0000397252       -0.0000063143
	            -0.0038600208       -0.0004578633        0.0032075608
	            -0.0000698109        0.0004744919        0.0003658158
	            -0.0000606053       -0.0003290211       -0.0002368977
	             0.0050437197        0.0004221294        0.0001374075
	            -0.0017453903       -0.0009299390       -0.0013615003
	            -0.0005772011       -0.0005942951        0.0014762590
	             0.0016682328       -0.0007779772       -0.0012469553
	             0.0006084266        0.0007876200       -0.0020912840
	             0.0013667888        0.0008956456        0.0008785970
	            -0.0002338281       -0.0000521277       -0.0004937332
	             0.0001437855       -0.0003446540        0.0003133607
	            -0.0001117045        0.0002605317       -0.0002557540
	             0.0000772317        0.0000206036       -0.0000504626
	            -0.0000979940       -0.0000253383        0.0001006943
	             0.0000440849        0.0000256377        0.0000004485
	             0.0000126645        0.0000085770       -0.0000058692
	            -0.0000019237       -0.0000012691        0.0000029581
	            -0.0000134897        0.0000035708        0.0000021654
	            -0.0000036642       -0.0000030584       -0.0000003023

	Previous optimization step data not found.  Starting new optimization.

	---Fragment 1 Intrafragment Coordinates---
	 - Coordinate -           - BOHR/RAD -       - ANG/DEG -
	 R(1,2)           =         2.236738	       1.183631
	 R(2,3)           =         2.848619	       1.507424
	 R(2,4)           =         2.500668	       1.323297
	 R(3,5)           =         2.879123	       1.523566
	 R(3,6)           =         2.047152	       1.083306
	 R(3,7)           =         2.051315	       1.085509
	 R(4,26)          =         2.670415	       1.413123
	 R(5,8)           =         2.890008	       1.529326
	 R(5,9)           =         2.049347	       1.084468
	 R(5,10)          =         2.046678	       1.083056
	 R(8,11)          =         2.887268	       1.527876
	 R(8,12)          =         2.052041	       1.085893
	 R(8,13)          =         2.055619	       1.087787
	 R(11,14)         =         2.884410	       1.526364
	 R(11,15)         =         2.055264	       1.087599
	 R(11,16)         =         2.052364	       1.086064
	 R(14,17)         =         2.883782	       1.526032
	 R(14,18)         =         2.054802	       1.087355
	 R(14,19)         =         2.055259	       1.087596
	 R(17,20)         =         2.881927	       1.525050
	 R(17,21)         =         2.053396	       1.086610
	 R(17,22)         =         2.053513	       1.086672
	 R(20,23)         =         2.048400	       1.083966
	 R(20,24)         =         2.050251	       1.084946
	 R(20,25)         =         2.050339	       1.084993
	 R(26,27)         =         2.040764	       1.079926
	 R(26,28)         =         2.036968	       1.077917
	 R(26,29)         =         2.040779	       1.079934
	 B(1,2,3)         =         2.192066	     125.596148
	 B(1,2,4)         =         2.149640	     123.165306
	 B(2,3,5)         =         1.980215	     113.457967
	 B(2,3,6)         =         1.864834	     106.847136
	 B(2,3,7)         =         1.869262	     107.100822
	 B(2,4,26)        =         2.047835	     117.332296
	 B(3,2,4)         =         1.941479	     111.238545
	 B(3,5,8)         =         1.986858	     113.838604
	 B(3,5,9)         =         1.907307	     109.280648
	 B(3,5,10)        =         1.894796	     108.563808
	 B(4,26,27)       =         1.931799	     110.683937
	 B(4,26,28)       =         1.850549	     106.028674
	 B(4,26,29)       =         1.931807	     110.684415
	 B(5,3,6)         =         1.955383	     112.035171
	 B(5,3,7)         =         1.938763	     111.082960
	 B(5,8,11)        =         2.008429	     115.074487
	 B(5,8,12)        =         1.885143	     108.010748
	 B(5,8,13)        =         1.909674	     109.416272
	 B(6,3,7)         =         1.847885	     105.876032
	 B(8,5,9)         =         1.916232	     109.792020
	 B(8,5,10)        =         1.904022	     109.092446
	 B(8,11,14)       =         1.972377	     113.008884
	 B(8,11,15)       =         1.904493	     109.119411
	 B(8,11,16)       =         1.922496	     110.150907
	 B(9,5,10)        =         1.849485	     105.967685
	 B(11,8,12)       =         1.895039	     108.577729
	 B(11,8,13)       =         1.908148	     109.328824
	 B(11,14,17)      =         1.980420	     113.469736
	 B(11,14,18)      =         1.907125	     109.270187
	 B(11,14,19)      =         1.907321	     109.281449
	 B(12,8,13)       =         1.850757	     106.040578
	 B(14,11,15)      =         1.906631	     109.241907
	 B(14,11,16)      =         1.898710	     108.788065
	 B(14,17,20)      =         1.974987	     113.158427
	 B(14,17,21)      =         1.907099	     109.268737
	 B(14,17,22)      =         1.907517	     109.292652
	 B(15,11,16)      =         1.855437	     106.308687
	 B(17,14,18)      =         1.905887	     109.199259
	 B(17,14,19)      =         1.905605	     109.183125
	 B(17,20,23)      =         1.941943	     111.265146
	 B(17,20,24)      =         1.939751	     111.139538
	 B(17,20,25)      =         1.939851	     111.145278
	 B(18,14,19)      =         1.853174	     106.179070
	 B(20,17,21)      =         1.908186	     109.331012
	 B(20,17,22)      =         1.907967	     109.318482
	 B(21,17,22)      =         1.854186	     106.237026
	 B(23,20,24)      =         1.880339	     107.735480
	 B(23,20,25)      =         1.880358	     107.736584
	 B(24,20,25)      =         1.878783	     107.646329
	 B(27,26,28)      =         1.923203	     110.191409
	 B(27,26,29)      =         1.903073	     109.038046
	 B(28,26,29)      =         1.923190	     110.190647
	 D(1,2,3,5)       =         0.002905	       0.166455
	 D(1,2,3,6)       =         2.166544	     124.133806
	 D(1,2,3,7)       =        -2.142814	    -122.774223
	 D(1,2,4,26)      =         0.000921	       0.052756
	 D(2,3,5,8)       =        -3.074715	    -176.168177
	 D(2,3,5,9)       =         1.059192	      60.687212
	 D(2,3,5,10)      =        -0.950475	     -54.458233
	 D(2,4,26,27)     =        -1.056797	     -60.549989
	 D(2,4,26,28)     =         3.140832	     179.956439
	 D(2,4,26,29)     =         1.055288	      60.463520
	 D(3,2,4,26)      =        -3.140486	    -179.936598
	 D(3,5,8,11)      =        -1.164223	     -66.705081
	 D(3,5,8,12)      =         2.998986	     171.829243
	 D(3,5,8,13)      =         0.991794	      56.825611
	 D(4,2,3,5)       =        -3.138879	    -179.844504
	 D(4,2,3,6)       =        -0.975240	     -55.877153
	 D(4,2,3,7)       =         0.998587	      57.214818
	 D(5,8,11,14)     =        -3.068577	    -175.816486
	 D(5,8,11,15)     =        -0.943705	     -54.070321
	 D(5,8,11,16)     =         1.086920	      62.275916
	 D(6,3,5,8)       =         1.094963	      62.736767
	 D(6,3,5,9)       =        -1.054316	     -60.407844
	 D(6,3,5,10)      =        -3.063983	    -175.553289
	 D(7,3,5,8)       =        -0.967759	     -55.448485
	 D(7,3,5,9)       =        -3.117038	    -178.593096
	 D(7,3,5,10)      =         1.156481	      66.261459
	 D(8,11,14,17)    =        -1.716056	     -98.322784
	 D(8,11,14,18)    =         2.435858	     139.564372
	 D(8,11,14,19)    =         0.414996	      23.777529
	 D(9,5,8,11)      =         0.980180	      56.160171
	 D(9,5,8,12)      =        -1.139796	     -65.305505
	 D(9,5,8,13)      =         3.136197	     179.690863
	 D(10,5,8,11)     =         2.999844	     171.878394
	 D(10,5,8,12)     =         0.879868	      50.412718
	 D(10,5,8,13)     =        -1.127324	     -64.590913
	 D(11,14,17,20)   =        -3.140284	    -179.925017
	 D(11,14,17,21)   =        -1.009786	     -57.856471
	 D(11,14,17,22)   =         1.012382	      58.005203
	 D(12,8,11,14)    =        -0.953979	     -54.658968
	 D(12,8,11,15)    =         1.170892	      67.087197
	 D(12,8,11,16)    =        -3.081668	    -176.566566
	 D(13,8,11,14)    =         1.057782	      60.606461
	 D(13,8,11,15)    =        -3.100532	    -177.647375
	 D(13,8,11,16)    =        -1.069907	     -61.301137
	 D(14,17,20,23)   =        -3.141368	    -179.987156
	 D(14,17,20,24)   =         1.046329	      59.950244
	 D(14,17,20,25)   =        -1.045789	     -59.919293
	*D(15,11,14,17)   =         2.443461	     140.000014
	 D(15,11,14,18)   =         0.312190	      17.887170
	 D(15,11,14,19)   =        -1.708672	     -97.899674
	 D(16,11,14,17)   =         0.424940	      24.347286
	 D(16,11,14,18)   =        -1.706331	     -97.765558
	 D(16,11,14,19)   =         2.555993	     146.447599
	 D(18,14,17,20)   =        -1.008325	     -57.772771
	 D(18,14,17,21)   =         1.122173	      64.295775
	 D(18,14,17,22)   =        -3.138845	    -179.842551
	 D(19,14,17,20)   =         1.010896	      57.920046
	 D(19,14,17,21)   =         3.141394	     179.988592
	 D(19,14,17,22)   =        -1.119624	     -64.149734
	 D(21,17,20,23)   =         1.011927	      57.979129
	 D(21,17,20,24)   =        -1.083561	     -62.083471
	 D(21,17,20,25)   =         3.107506	     178.046992
	 D(22,17,20,23)   =        -1.011101	     -57.931821
	 D(22,17,20,24)   =        -3.106589	    -177.994421
	 D(22,17,20,25)   =         1.084479	      62.136042

	Current energy   :      -501.2205989695

	Generating empirical Hessian (Schlegel '84) for each fragment.
	Taking RFO optimization step.
	Going to follow RFO solution 1.
	Using RFO vector 1.
	Norm of target step-size    0.35963
	Projected energy change by RFO approximation:        -0.0007834698

	Back-transformation to cartesian coordinates...
	Could not converge backtransformation.
	Using first guess instead.

	Back-transformation to cartesian coordinates to adjust frozen coordinates...
	Successfully converged to displaced geometry.

	--- Internal Coordinate Step in ANG or DEG, aJ/ANG or AJ/DEG ---
	 ---------------------------------------------------------------------------
	   Coordinate                Previous        Force       Change         New 
	   ----------                --------       ------       ------       ------
	    1 R(1,2)          =      1.183631     0.000066     0.000664     1.184295
	    2 R(2,3)          =      1.507424     0.000332     0.000730     1.508154
	    3 R(2,4)          =      1.323297     0.000125     0.000830     1.324127
	    4 R(3,5)          =      1.523566     0.000449     0.001041     1.524608
	    5 R(3,6)          =      1.083306    -0.000031     0.000294     1.083601
	    6 R(3,7)          =      1.085509     0.000044     0.000625     1.086134
	    7 R(4,26)         =      1.413123     0.000053     0.000609     1.413731
	    8 R(5,8)          =      1.529326    -0.000651     0.000575     1.529901
	    9 R(5,9)          =      1.084468     0.000090     0.000599     1.085067
	   10 R(5,10)         =      1.083056     0.000477     0.000386     1.083442
	   11 R(8,11)         =      1.527876     0.008799     0.002491     1.530368
	   12 R(8,12)         =      1.085893    -0.003176     0.000069     1.085962
	   13 R(8,13)         =      1.087787     0.001634     0.000861     1.088648
	   14 R(11,14)        =      1.526364     0.072819     0.018948     1.545312
	   15 R(11,15)        =      1.087599    -0.009737    -0.000452     1.087147
	   16 R(11,16)        =      1.086064    -0.005501     0.001925     1.087989
	   17 R(14,17)        =      1.526032     0.008025     0.004707     1.530739
	   18 R(14,18)        =      1.087355    -0.009552    -0.000442     1.086913
	   19 R(14,19)        =      1.087596    -0.006883     0.000459     1.088055
	   20 R(17,20)        =      1.525050    -0.000615     0.004438     1.529488
	   21 R(17,21)        =      1.086610    -0.002097     0.002348     1.088959
	   22 R(17,22)        =      1.086672     0.001852     0.004051     1.090723
	   23 R(20,23)        =      1.083966     0.000546     0.002477     1.086444
	   24 R(20,24)        =      1.084946     0.000098     0.003638     1.088584
	   25 R(20,25)        =      1.084993    -0.000116     0.002973     1.087966
	   26 R(26,27)        =      1.079926     0.000027     0.000545     1.080471
	   27 R(26,28)        =      1.077917     0.000055     0.000690     1.078608
	   28 R(26,29)        =      1.079934     0.000035     0.000303     1.080236
	   29 B(1,2,3)        =    125.596148     0.000002    -0.001342   125.594807
	   30 B(1,2,4)        =    123.165306    -0.000005    -0.005850   123.159456
	   31 B(2,3,5)        =    113.457967     0.000003     0.008802   113.466769
	   32 B(2,3,6)        =    106.847136    -0.000000    -0.001156   106.845980
	   33 B(2,3,7)        =    107.100822    -0.000002    -0.003542   107.097280
	   34 B(2,4,26)       =    117.332296    -0.000000    -0.002419   117.329877
	   35 B(3,2,4)        =    111.238545     0.000003     0.007025   111.245570
	   36 B(3,5,8)        =    113.838604     0.000015     0.049290   113.887894
	   37 B(3,5,9)        =    109.280648     0.000001     0.019440   109.300088
	   38 B(3,5,10)       =    108.563808    -0.000007    -0.001117   108.562691
	   39 B(4,26,27)      =    110.683937    -0.000000    -0.003783   110.680154
	   40 B(4,26,28)      =    106.028674     0.000001     0.007806   106.036480
	   41 B(4,26,29)      =    110.684415    -0.000000    -0.000224   110.684191
	   42 B(5,3,6)        =    112.035171    -0.000002    -0.009256   112.025914
	   43 B(5,3,7)        =    111.082960     0.000000     0.022723   111.105683
	   44 B(5,8,11)       =    115.074487     0.000026     0.101189   115.175676
	   45 B(5,8,12)       =    108.010748     0.000009     0.010430   108.021178
	   46 B(5,8,13)       =    109.416272    -0.000029    -0.099107   109.317165
	   47 B(6,3,7)        =    105.876032     0.000000    -0.020104   105.855928
	   48 B(8,5,9)        =    109.792020    -0.000014    -0.094501   109.697519
	   49 B(8,5,10)       =    109.092446    -0.000001     0.024285   109.116730
	   50 B(8,11,14)      =    113.008884     0.000161     0.777597   113.786481
	   51 B(8,11,15)      =    109.119411    -0.000083     0.351915   109.471326
	   52 B(8,11,16)      =    110.150907    -0.000086    -0.782983   109.367924
	   53 B(9,5,10)       =    105.967685     0.000004     0.000368   105.968054
	   54 B(11,8,12)      =    108.577729    -0.000033    -0.243545   108.334184
	   55 B(11,8,13)      =    109.328824     0.000018     0.176081   109.504905
	   56 B(11,14,17)     =    113.469736     0.000123     0.501186   113.970922
	   57 B(11,14,18)     =    109.270187     0.000057     0.413141   109.683327
	   58 B(11,14,19)     =    109.281449     0.000005     0.705149   109.986598
	   59 B(12,8,13)      =    106.040578     0.000007     0.047630   106.088208
	   60 B(14,11,15)     =    109.241907     0.000047     1.004274   110.246181
	   61 B(14,11,16)     =    108.788065    -0.000028    -0.258624   108.529441
	   62 B(14,17,20)     =    113.158427     0.000035     0.035937   113.194364
	   63 B(14,17,21)     =    109.268737    -0.000036    -0.388368   108.880369
	   64 B(14,17,22)     =    109.292652     0.000012     0.338727   109.631378
	   65 B(15,11,16)     =    106.308687    -0.000021    -1.241875   105.066812
	   66 B(17,14,18)     =    109.199259    -0.000126    -1.277994   107.921265
	   67 B(17,14,19)     =    109.183125    -0.000062     0.165654   109.348778
	   68 B(17,20,23)     =    111.265146     0.000010    -0.057653   111.207493
	   69 B(17,20,24)     =    111.139538    -0.000017    -0.174437   110.965102
	   70 B(17,20,25)     =    111.145278     0.000006     0.233573   111.378851
	   71 B(18,14,19)     =    106.179070    -0.000005    -0.606027   105.573043
	   72 B(20,17,21)     =    109.331012     0.000008     0.230462   109.561474
	   73 B(20,17,22)     =    109.318482    -0.000028    -0.152534   109.165948
	   74 B(21,17,22)     =    106.237026     0.000007    -0.070590   106.166437
	   75 B(23,20,24)     =    107.735480     0.000004     0.222769   107.958249
	   76 B(23,20,25)     =    107.736584    -0.000005    -0.131707   107.604877
	   77 B(24,20,25)     =    107.646329     0.000003    -0.092222   107.554107
	   78 B(27,26,28)     =    110.191409    -0.000000     0.015832   110.207241
	   79 B(27,26,29)     =    109.038046    -0.000000    -0.013472   109.024575
	   80 B(28,26,29)     =    110.190647    -0.000000    -0.005394   110.185254
	   81 D(1,2,3,5)      =      0.166455    -0.000000    -0.084395     0.082060
	   82 D(1,2,3,6)      =    124.133806    -0.000000    -0.091232   124.042574
	   83 D(1,2,3,7)      =   -122.774223    -0.000000    -0.116377  -122.890600
	   84 D(1,2,4,26)     =      0.052756     0.000000     0.071092     0.123848
	   85 D(2,3,5,8)      =   -176.168177    -0.000001    -0.020156  -176.188333
	   86 D(2,3,5,9)      =     60.687212     0.000001     0.053345    60.740556
	   87 D(2,3,5,10)     =    -54.458233     0.000000     0.043108   -54.415124
	   88 D(2,4,26,27)    =    -60.549989     0.000000     0.027617   -60.522371
	   89 D(2,4,26,28)    =    179.956439     0.000000     0.006032   179.962471
	   90 D(2,4,26,29)    =     60.463520    -0.000000     0.007968    60.471488
	   91 D(3,2,4,26)     =   -179.936598    -0.000000    -0.080966  -180.017564
	   92 D(3,5,8,11)     =    -66.705081    -0.000003    -0.445263   -67.150344
	   93 D(3,5,8,12)     =    171.829243     0.000001    -0.206322   171.622921
	   94 D(3,5,8,13)     =     56.825611     0.000001    -0.216426    56.609186
	   95 D(4,2,3,5)      =   -179.844504     0.000000     0.072150  -179.772354
	   96 D(4,2,3,6)      =    -55.877153     0.000000     0.065313   -55.811841
	   97 D(4,2,3,7)      =     57.214818     0.000000     0.040168    57.254986
	   98 D(5,8,11,14)    =   -175.816486    -0.000012    -5.916474  -181.732960
	   99 D(5,8,11,15)    =    -54.070321     0.000014    -3.817056   -57.887377
	  100 D(5,8,11,16)    =     62.275916    -0.000015    -5.547155    56.728761
	  101 D(6,3,5,8)      =     62.736767    -0.000001    -0.018150    62.718618
	  102 D(6,3,5,9)      =    -60.407844     0.000001     0.055351   -60.352493
	  103 D(6,3,5,10)     =   -175.553289     0.000000     0.045115  -175.508174
	  104 D(7,3,5,8)      =    -55.448485    -0.000001    -0.001853   -55.450338
	  105 D(7,3,5,9)      =   -178.593096     0.000001     0.071648  -178.521449
	  106 D(7,3,5,10)     =     66.261459     0.000000     0.061411    66.322870
	  107 D(8,11,14,17)   =    -98.322784     0.000008     1.747710   -96.575073
	  108 D(8,11,14,18)   =    139.564372     0.000017     2.749156   142.313528
	  109 D(8,11,14,19)   =     23.777529     0.000010     2.845734    26.623263
	  110 D(9,5,8,11)     =     56.160171    -0.000003    -0.456417    55.703753
	  111 D(9,5,8,12)     =    -65.305505     0.000001    -0.217476   -65.522981
	  112 D(9,5,8,13)     =    179.690863     0.000002    -0.227580   179.463284
	  113 D(10,5,8,11)    =    171.878394    -0.000003    -0.494903   171.383491
	  114 D(10,5,8,12)    =     50.412718     0.000001    -0.255962    50.156756
	  115 D(10,5,8,13)    =    -64.590913     0.000001    -0.266066   -64.856979
	  116 D(11,14,17,20)  =   -179.925017    -0.000005    -3.276179  -183.201196
	  117 D(11,14,17,21)  =    -57.856471    -0.000003    -3.237086   -61.093556
	  118 D(11,14,17,22)  =     58.005203    -0.000004    -3.350980    54.654223
	  119 D(12,8,11,14)   =    -54.658968    -0.000010    -6.017351   -60.676320
	  120 D(12,8,11,15)   =     67.087197     0.000015    -3.917933    63.169264
	  121 D(12,8,11,16)   =   -176.566566    -0.000013    -5.648033  -182.214599
	  122 D(13,8,11,14)   =     60.606461    -0.000010    -5.999794    54.606667
	  123 D(13,8,11,15)   =   -177.647375     0.000015    -3.900375  -181.547750
	  124 D(13,8,11,16)   =    -61.301137    -0.000014    -5.630475   -66.931612
	  125 D(14,17,20,23)  =   -179.987156    -0.000003    -0.361205  -180.348361
	  126 D(14,17,20,24)  =     59.950244    -0.000003    -0.487050    59.463194
	  127 D(14,17,20,25)  =    -59.919293    -0.000002    -0.409549   -60.328842
	  128 *D(15,11,14,17) =    140.000014     0.000000     0.000000   140.000014
	  129 D(15,11,14,18)  =     17.887170     0.000008     1.001445    18.888615
	  130 D(15,11,14,19)  =    -97.899674     0.000002     1.098023   -96.801650
	  131 D(16,11,14,17)  =     24.347286     0.000003     1.080748    25.428034
	  132 D(16,11,14,18)  =    -97.765558     0.000012     2.082194   -95.683365
	  133 D(16,11,14,19)  =    146.447599     0.000005     2.178772   148.626370
	  134 D(18,14,17,20)  =    -57.772771     0.000010    -3.341758   -61.114529
	  135 D(18,14,17,21)  =     64.295775     0.000011    -3.302664    60.993111
	  136 D(18,14,17,22)  =   -179.842551     0.000010    -3.416559  -183.259110
	  137 D(19,14,17,20)  =     57.920046    -0.000016    -4.665687    53.254359
	  138 D(19,14,17,21)  =    179.988592    -0.000014    -4.626593   175.361999
	  139 D(19,14,17,22)  =    -64.149734    -0.000015    -4.740488   -68.890222
	  140 D(21,17,20,23)  =     57.979129     0.000001    -0.053877    57.925253
	  141 D(21,17,20,24)  =    -62.083471     0.000001    -0.179721   -62.263192
	  142 D(21,17,20,25)  =    178.046992     0.000002    -0.102220   177.944772
	  143 D(22,17,20,23)  =    -57.931821     0.000001    -0.012450   -57.944271
	  144 D(22,17,20,24)  =   -177.994421     0.000001    -0.138294  -178.132715
	  145 D(22,17,20,25)  =     62.136042     0.000002    -0.060793    62.075249
	 ---------------------------------------------------------------------------
	Successfully symmetrized geometry.

  ==> Convergence Check <==

  Measures of convergence in internal coordinates in au.
  Criteria marked as inactive (o), active & met (*), and active & unmet ( ).
  --------------------------------------------------------------------------------------------- ~
   Step     Total Energy     Delta E     MAX Force     RMS Force      MAX Disp      RMS Disp    ~
  --------------------------------------------------------------------------------------------- ~
    Convergence Criteria    1.00e-06 *    3.00e-04 *             o    1.20e-03 *             o  ~
  --------------------------------------------------------------------------------------------- ~
      1    -501.22059897   -5.01e+02      8.84e-03      8.75e-04 o    1.05e-01      2.99e-02 o  ~
  ---------------------------------------------------------------------------------------------

	Writing optimization data to binary file.
	Structure for next step:
	Cartesian Geometry (in Angstrom)
	    O     3.1247355084   0.9213720956  -0.9272817906
	    C     2.5809260322   0.0438574269  -0.3469422954
	    C     1.1188096448   0.0086969589   0.0211719603
	    O     3.2049518243  -1.0503218206   0.0613172363
	    C     0.3490476083   1.2446551277  -0.4308262318
	    H     0.7103465145  -0.9015886035  -0.4015907641
	    H     1.0637378548  -0.1138932067   1.0989597501
	    C    -1.1136175267   1.2618382608   0.0174059747
	    H     0.4012874046   1.3242935632  -1.5117053075
	    H     0.8494585319   2.1237240792  -0.0426605870
	    C    -2.0029500690   0.1928564932  -0.6216488995
	    H    -1.5267469962   2.2373415328  -0.2214055719
	    H    -1.1591617244   1.1720757797   1.1013903995
	    C    -3.4627397765   0.2121919966  -0.1150617581
	    H    -1.9785986748   0.3003682707  -1.7031922938
	    H    -1.5819707972  -0.7910635411  -0.4256950351
	    C    -3.7454604264  -0.7914598129   1.0056139945
	    H    -4.1386834031  -0.0059628811  -0.9377940854
	    H    -3.7261964450   1.2126058487   0.2220235946
	    C    -5.1733438236  -0.7037860447   1.5467211380
	    H    -3.5577563023  -1.7974488399   0.6333444457
	    H    -3.0420152517  -0.6344128245   1.8242578702
	    H    -5.3404469856  -1.4327597381   2.3347781231
	    H    -5.9007103745  -0.8891420485   0.7583073033
	    H    -5.3811045119   0.2809734402   1.9599462065
	    C     4.5870143487  -1.1519286152  -0.2183527211
	    H     4.7635906466  -1.1260630838  -1.2839837920
	    H     4.9046369813  -2.0987819376   0.1890528730
	    H     5.1311811782  -0.3439203527   0.2484609942
			--------------------------
			 OPTKING Finished Execution 
			--------------------------

    Structure for next step:
    Molecular point group: c1
    Full point group: C1

    Geometry (in Angstrom), charge = 0, multiplicity = 1:

    O            3.129584482033     0.919821115932    -0.929295989206
    C            2.585775005826     0.042306447291    -0.348956493959
    C            1.123658618435     0.007145979196     0.019157761677
    O            3.209800798008    -1.051872800254     0.059303037667
    C            0.353896581936     1.243104148056    -0.432840430408
    H            0.715195488190    -0.903139583168    -0.403604962720
    H            1.068586828505    -0.115444186353     1.096945551544
    C           -1.108768553009     1.260287281171     0.015391776085
    H            0.406136378257     1.322742583511    -1.513719506116
    H            0.854307505548     2.122173099533    -0.044674785559
    C           -1.998101095362     0.191305513528    -0.623663098108
    H           -1.521898022543     2.235790553164    -0.223419770515
    H           -1.154312750735     1.170524800072     1.099376200912
    C           -3.457890802864     0.210641016944    -0.117075956636
    H           -1.973749701120     0.298817291020    -1.705206492414
    H           -1.577121823526    -0.792614520752    -0.427709233714
    C           -3.740611452729    -0.793010792566     1.003599795917
    H           -4.133834429445    -0.007513860730    -0.939808283976
    H           -3.721347471378     1.211054869002     0.220009396034
    C           -5.168494849929    -0.705337024324     1.544706939455
    H           -3.552907328619    -1.798999819576     0.631330247138
    H           -3.037166278078    -0.635963804146     1.822243671576
    H           -5.335598011978    -1.434310717773     2.332763924519
    H           -5.895861400875    -0.890693028121     0.756293104727
    H           -5.376255538239     0.279422460500     1.957932007929
    C            4.591863322382    -1.153479594818    -0.220366919690
    H            4.768439620267    -1.127614063457    -1.285997990608
    H            4.909485954993    -2.100332917283     0.187038674435
    H            5.136030151899    -0.345471332317     0.246446795572

gradient() will perform analytic gradient computation.

*** tstart() called on cx1-27-3-2
*** at Sun Sep 11 00:56:10 2016


         ---------------------------------------------------------
                                   SCF
            by Justin Turney, Rob Parrish, and Andy Simmonett
                              RHF Reference
                        4 Threads,   2000 MiB Core
         ---------------------------------------------------------

  ==> Geometry <==

    Molecular point group: c1
    Full point group: C1

    Geometry (in Angstrom), charge = 0, multiplicity = 1:

       Center              X                  Y                   Z               Mass       
    ------------   -----------------  -----------------  -----------------  -----------------
           O          3.129584482033     0.919821115932    -0.929295989206    15.994914619560
           C          2.585775005826     0.042306447291    -0.348956493959    12.000000000000
           C          1.123658618435     0.007145979196     0.019157761677    12.000000000000
           O          3.209800798008    -1.051872800254     0.059303037667    15.994914619560
           C          0.353896581936     1.243104148056    -0.432840430408    12.000000000000
           H          0.715195488190    -0.903139583168    -0.403604962720     1.007825032070
           H          1.068586828505    -0.115444186353     1.096945551544     1.007825032070
           C         -1.108768553009     1.260287281171     0.015391776085    12.000000000000
           H          0.406136378257     1.322742583511    -1.513719506116     1.007825032070
           H          0.854307505548     2.122173099533    -0.044674785559     1.007825032070
           C         -1.998101095362     0.191305513528    -0.623663098108    12.000000000000
           H         -1.521898022543     2.235790553164    -0.223419770515     1.007825032070
           H         -1.154312750735     1.170524800072     1.099376200912     1.007825032070
           C         -3.457890802864     0.210641016944    -0.117075956636    12.000000000000
           H         -1.973749701120     0.298817291020    -1.705206492414     1.007825032070
           H         -1.577121823526    -0.792614520752    -0.427709233714     1.007825032070
           C         -3.740611452729    -0.793010792566     1.003599795917    12.000000000000
           H         -4.133834429445    -0.007513860730    -0.939808283976     1.007825032070
           H         -3.721347471378     1.211054869002     0.220009396034     1.007825032070
           C         -5.168494849929    -0.705337024324     1.544706939455    12.000000000000
           H         -3.552907328619    -1.798999819576     0.631330247138     1.007825032070
           H         -3.037166278078    -0.635963804146     1.822243671576     1.007825032070
           H         -5.335598011978    -1.434310717773     2.332763924519     1.007825032070
           H         -5.895861400875    -0.890693028121     0.756293104727     1.007825032070
           H         -5.376255538239     0.279422460500     1.957932007929     1.007825032070
           C          4.591863322382    -1.153479594818    -0.220366919690    12.000000000000
           H          4.768439620267    -1.127614063457    -1.285997990608     1.007825032070
           H          4.909485954993    -2.100332917283     0.187038674435     1.007825032070
           H          5.136030151899    -0.345471332317     0.246446795572     1.007825032070

  Running in c1 symmetry.

  Rotational constants: A =      0.09184  B =      0.01015  C =      0.00945 [cm^-1]
  Rotational constants: A =   2753.32198  B =    304.34593  C =    283.23512 [MHz]
  Nuclear repulsion =  615.115637951799272

  Charge       = 0
  Multiplicity = 1
  Electrons    = 88
  Nalpha       = 44
  Nbeta        = 44

  ==> Algorithm <==

  SCF Algorithm Type is DF.
  DIIS enabled.
  MOM disabled.
  Fractional occupation disabled.
  Guess Type is READ.
  Energy threshold   = 1.00e-08
  Density threshold  = 1.00e-08
  Integral threshold = 0.00e+00

  ==> Primary Basis <==

  Basis Set: CC-PVTZ
    Number of shells: 218
    Number of basis function: 582
    Number of Cartesian functions: 655
    Spherical Harmonics?: true
    Max angular momentum: 3

  ==> Pre-Iterations <==

   -------------------------------------------------------
    Irrep   Nso     Nmo     Nalpha   Nbeta   Ndocc  Nsocc
   -------------------------------------------------------
     A        582     582       0       0       0       0
   -------------------------------------------------------
    Total     582     582      44      44      44       0
   -------------------------------------------------------

  ==> Integral Setup <==

  ==> DFJK: Density-Fitted J/K Matrices <==

    J tasked:                  Yes
    K tasked:                  Yes
    wK tasked:                  No
    OpenMP threads:              4
    Integrals threads:           4
    Memory (MB):              1430
    Algorithm:                Core
    Integral Cache:           NONE
    Schwarz Cutoff:          1E-12
    Fitting Condition:       1E-12

   => Auxiliary Basis Set <=

  Basis Set: 
    Number of shells: 455
    Number of basis function: 1409
    Number of Cartesian functions: 1686
    Spherical Harmonics?: true
    Max angular momentum: 4

  Minimum eigenvalue in the overlap matrix is 2.0434970293E-04.
  Using Symmetric Orthogonalization.
  SCF Guess: Reading in previously saved MOs, projecting if necessary.

  Using orbitals from previous SCF, no projection.
  Recomputing DOCC and SOCC from number of alpha and beta electrons from previous calculation.
              A 
    DOCC [    44 ]

  ==> Iterations <==

                           Total Energy        Delta E     RMS |[F,P]|

   @DF-RHF iter   0:  -501.18644060627776   -5.01186e+02   2.87889e-04 
   @DF-RHF iter   1:  -501.21999080634350   -3.35502e-02   4.94056e-05 
   @DF-RHF iter   2:  -501.22068369931048   -6.92893e-04   1.65796e-05 DIIS
   @DF-RHF iter   3:  -501.22076898254045   -8.52832e-05   6.78800e-06 DIIS
   @DF-RHF iter   4:  -501.22077993750031   -1.09550e-05   1.41341e-06 DIIS
   @DF-RHF iter   5:  -501.22078069288682   -7.55387e-07   7.93023e-07 DIIS
   @DF-RHF iter   6:  -501.22078094487688   -2.51990e-07   3.08269e-07 DIIS
   @DF-RHF iter   7:  -501.22078100906333   -6.41865e-08   1.26845e-07 DIIS
   @DF-RHF iter   8:  -501.22078102079308   -1.17298e-08   3.91801e-08 DIIS
   @DF-RHF iter   9:  -501.22078102181649   -1.02341e-09   1.12103e-08 DIIS
   @DF-RHF iter  10:  -501.22078102188084   -6.43468e-11   3.88684e-09 DIIS

  ==> Post-Iterations <==

    Orbital Energies (a.u.)
    -----------------------

    Doubly Occupied:                                                      

       1A    -20.596119     2A    -20.534050     3A    -11.364667  
       4A    -11.278534     5A    -11.233416     6A    -11.217565  
       7A    -11.216459     8A    -11.216390     9A    -11.215100  
      10A    -11.213852    11A    -11.209158    12A     -1.471400  
      13A     -1.365194    14A     -1.097592    15A     -1.065913  
      16A     -1.018987    17A     -0.976759    18A     -0.928743  
      19A     -0.862637    20A     -0.807174    21A     -0.785837  
      22A     -0.765242    23A     -0.702640    24A     -0.685118  
      25A     -0.675676    26A     -0.634217    27A     -0.632924  
      28A     -0.614133    29A     -0.596078    30A     -0.580846  
      31A     -0.562083    32A     -0.555429    33A     -0.542284  
      34A     -0.526341    35A     -0.516071    36A     -0.511591  
      37A     -0.494738    38A     -0.480556    39A     -0.474646  
      40A     -0.461164    41A     -0.458190    42A     -0.449008  
      43A     -0.445790    44A     -0.438820  

    Virtual:                                                              

      45A      0.138884    46A      0.145794    47A      0.157614  
      48A      0.157837    49A      0.160784    50A      0.184307  
      51A      0.189305    52A      0.194259    53A      0.201077  
      54A      0.212156    55A      0.215605    56A      0.222266  
      57A      0.230364    58A      0.237205    59A      0.244847  
      60A      0.255531    61A      0.258462    62A      0.266629  
      63A      0.274893    64A      0.279954    65A      0.304840  
      66A      0.336488    67A      0.346467    68A      0.354892  
      69A      0.369117    70A      0.372321    71A      0.381453  
      72A      0.385406    73A      0.391072    74A      0.407808  
      75A      0.418669    76A      0.429823    77A      0.431661  
      78A      0.447149    79A      0.455420    80A      0.462748  
      81A      0.467417    82A      0.486773    83A      0.501961  
      84A      0.525130    85A      0.528142    86A      0.537390  
      87A      0.553212    88A      0.562930    89A      0.564493  
      90A      0.570489    91A      0.587609    92A      0.595607  
      93A      0.596642    94A      0.603330    95A      0.618759  
      96A      0.620356    97A      0.626356    98A      0.628672  
      99A      0.629887   100A      0.635485   101A      0.639207  
     102A      0.648446   103A      0.654614   104A      0.657180  
     105A      0.666933   106A      0.671534   107A      0.675640  
     108A      0.679574   109A      0.683057   110A      0.692356  
     111A      0.699507   112A      0.703479   113A      0.713750  
     114A      0.721875   115A      0.735254   116A      0.741403  
     117A      0.749722   118A      0.763862   119A      0.774695  
     120A      0.788519   121A      0.797334   122A      0.825873  
     123A      0.834754   124A      0.842675   125A      0.863103  
     126A      0.867897   127A      0.885525   128A      0.889097  
     129A      0.893082   130A      0.918004   131A      0.919371  
     132A      0.928825   133A      0.938950   134A      0.947987  
     135A      0.964698   136A      0.998909   137A      1.006334  
     138A      1.008980   139A      1.019135   140A      1.049837  
     141A      1.053818   142A      1.058330   143A      1.069279  
     144A      1.078609   145A      1.083806   146A      1.099077  
     147A      1.104026   148A      1.118235   149A      1.126909  
     150A      1.140371   151A      1.159932   152A      1.172272  
     153A      1.180076   154A      1.180544   155A      1.199855  
     156A      1.215210   157A      1.224142   158A      1.228645  
     159A      1.245949   160A      1.259285   161A      1.271437  
     162A      1.274259   163A      1.281681   164A      1.290600  
     165A      1.298207   166A      1.303871   167A      1.315666  
     168A      1.321361   169A      1.327829   170A      1.334455  
     171A      1.343014   172A      1.353193   173A      1.358789  
     174A      1.361782   175A      1.376111   176A      1.379724  
     177A      1.390837   178A      1.394934   179A      1.405189  
     180A      1.418567   181A      1.426852   182A      1.433534  
     183A      1.439815   184A      1.448544   185A      1.457176  
     186A      1.469937   187A      1.474163   188A      1.488898  
     189A      1.495698   190A      1.503486   191A      1.508907  
     192A      1.515483   193A      1.520382   194A      1.527328  
     195A      1.528439   196A      1.545595   197A      1.546889  
     198A      1.555597   199A      1.568627   200A      1.573284  
     201A      1.582962   202A      1.594786   203A      1.612708  
     204A      1.620046   205A      1.631610   206A      1.644416  
     207A      1.657927   208A      1.664233   209A      1.673656  
     210A      1.676250   211A      1.704364   212A      1.724392  
     213A      1.733940   214A      1.740660   215A      1.748848  
     216A      1.763836   217A      1.784825   218A      1.797660  
     219A      1.804636   220A      1.809517   221A      1.829681  
     222A      1.834846   223A      1.840708   224A      1.846224  
     225A      1.865543   226A      1.885971   227A      1.894324  
     228A      1.901424   229A      1.926645   230A      1.958416  
     231A      1.958982   232A      1.995984   233A      2.019447  
     234A      2.050186   235A      2.093340   236A      2.100812  
     237A      2.161697   238A      2.258974   239A      2.304823  
     240A      2.329970   241A      2.343034   242A      2.452684  
     243A      2.474514   244A      2.493836   245A      2.520521  
     246A      2.531805   247A      2.577576   248A      2.599277  
     249A      2.622485   250A      2.622979   251A      2.646685  
     252A      2.667862   253A      2.677522   254A      2.683375  
     255A      2.700074   256A      2.706429   257A      2.721071  
     258A      2.742982   259A      2.747212   260A      2.771011  
     261A      2.779209   262A      2.804782   263A      2.810720  
     264A      2.823376   265A      2.835228   266A      2.845603  
     267A      2.852632   268A      2.869689   269A      2.874679  
     270A      2.889760   271A      2.902155   272A      2.911535  
     273A      2.933271   274A      2.944327   275A      2.954809  
     276A      2.958301   277A      2.970922   278A      2.977395  
     279A      2.991584   280A      3.001289   281A      3.005518  
     282A      3.030855   283A      3.036025   284A      3.045927  
     285A      3.053328   286A      3.066404   287A      3.080010  
     288A      3.083459   289A      3.094195   290A      3.104731  
     291A      3.115872   292A      3.123894   293A      3.136297  
     294A      3.141830   295A      3.148033   296A      3.170763  
     297A      3.181489   298A      3.190858   299A      3.213589  
     300A      3.228860   301A      3.246805   302A      3.252269  
     303A      3.259256   304A      3.279124   305A      3.280511  
     306A      3.284848   307A      3.298109   308A      3.301559  
     309A      3.321333   310A      3.326248   311A      3.331460  
     312A      3.343508   313A      3.345372   314A      3.357659  
     315A      3.364730   316A      3.372329   317A      3.376815  
     318A      3.393102   319A      3.409535   320A      3.417242  
     321A      3.424118   322A      3.428140   323A      3.440538  
     324A      3.446223   325A      3.453072   326A      3.464410  
     327A      3.467097   328A      3.469355   329A      3.476982  
     330A      3.482628   331A      3.489022   332A      3.494400  
     333A      3.501029   334A      3.505994   335A      3.517555  
     336A      3.529891   337A      3.533672   338A      3.543953  
     339A      3.557839   340A      3.564423   341A      3.576724  
     342A      3.589198   343A      3.601093   344A      3.605091  
     345A      3.620846   346A      3.629226   347A      3.634385  
     348A      3.649092   349A      3.655211   350A      3.656866  
     351A      3.671913   352A      3.675425   353A      3.699638  
     354A      3.713678   355A      3.721464   356A      3.732755  
     357A      3.745749   358A      3.754984   359A      3.765951  
     360A      3.771730   361A      3.776319   362A      3.786075  
     363A      3.812066   364A      3.817415   365A      3.834080  
     366A      3.844642   367A      3.848842   368A      3.854917  
     369A      3.864310   370A      3.870502   371A      3.875535  
     372A      3.895698   373A      3.916625   374A      3.923926  
     375A      3.934665   376A      3.947944   377A      3.962449  
     378A      3.969150   379A      3.972096   380A      3.989635  
     381A      3.997618   382A      4.012393   383A      4.028523  
     384A      4.036245   385A      4.045223   386A      4.058645  
     387A      4.084948   388A      4.095874   389A      4.096626  
     390A      4.107009   391A      4.113974   392A      4.117443  
     393A      4.135153   394A      4.142837   395A      4.154099  
     396A      4.163921   397A      4.170884   398A      4.178886  
     399A      4.183241   400A      4.188322   401A      4.195052  
     402A      4.204955   403A      4.213229   404A      4.214367  
     405A      4.216841   406A      4.234795   407A      4.239410  
     408A      4.259664   409A      4.270575   410A      4.277333  
     411A      4.299933   412A      4.304088   413A      4.325459  
     414A      4.340504   415A      4.350577   416A      4.357282  
     417A      4.368001   418A      4.378955   419A      4.385162  
     420A      4.392315   421A      4.395717   422A      4.402973  
     423A      4.410926   424A      4.422441   425A      4.427341  
     426A      4.433528   427A      4.456197   428A      4.458647  
     429A      4.477337   430A      4.485754   431A      4.493180  
     432A      4.516765   433A      4.527306   434A      4.534286  
     435A      4.538095   436A      4.547912   437A      4.555366  
     438A      4.579158   439A      4.586148   440A      4.591383  
     441A      4.608688   442A      4.615517   443A      4.619889  
     444A      4.631902   445A      4.633954   446A      4.653634  
     447A      4.653735   448A      4.660922   449A      4.669351  
     450A      4.687195   451A      4.711109   452A      4.715629  
     453A      4.721000   454A      4.738248   455A      4.765820  
     456A      4.774690   457A      4.778203   458A      4.788833  
     459A      4.807806   460A      4.847284   461A      4.856508  
     462A      4.881110   463A      4.905256   464A      4.920882  
     465A      4.926550   466A      4.962503   467A      4.988166  
     468A      4.997656   469A      5.029701   470A      5.043693  
     471A      5.045597   472A      5.057477   473A      5.068717  
     474A      5.083825   475A      5.096501   476A      5.112837  
     477A      5.125158   478A      5.133704   479A      5.145784  
     480A      5.156371   481A      5.165830   482A      5.207918  
     483A      5.226792   484A      5.250737   485A      5.253900  
     486A      5.261862   487A      5.286999   488A      5.302277  
     489A      5.314433   490A      5.326305   491A      5.337503  
     492A      5.350128   493A      5.356045   494A      5.375547  
     495A      5.381145   496A      5.393718   497A      5.408958  
     498A      5.418719   499A      5.444519   500A      5.460112  
     501A      5.477710   502A      5.492505   503A      5.496628  
     504A      5.509835   505A      5.522356   506A      5.545120  
     507A      5.558613   508A      5.580933   509A      5.594011  
     510A      5.601598   511A      5.606502   512A      5.611246  
     513A      5.632927   514A      5.662575   515A      5.667193  
     516A      5.676748   517A      5.718833   518A      5.734531  
     519A      5.738914   520A      5.767387   521A      5.792400  
     522A      5.801116   523A      5.824605   524A      5.837296  
     525A      5.845407   526A      5.860684   527A      5.867001  
[...]
	    4 R(3,5)          =      1.523708    -0.000289    -0.000044     1.523664
	    5 R(3,6)          =      1.083258     0.000041    -0.000011     1.083247
	    6 R(3,7)          =      1.085500    -0.000084    -0.000019     1.085481
	    7 R(4,26)         =      1.413162    -0.000239    -0.000034     1.413128
	    8 R(5,8)          =      1.529313    -0.000541    -0.000056     1.529258
	    9 R(5,9)          =      1.084549    -0.000210    -0.000026     1.084523
	   10 R(5,10)         =      1.083108    -0.000151    -0.000018     1.083091
	   11 R(8,11)         =      1.528240    -0.000229    -0.000043     1.528198
	   12 R(8,12)         =      1.085666    -0.000159    -0.000025     1.085641
	   13 R(8,13)         =      1.087936    -0.000244    -0.000031     1.087905
	   14 R(11,14)        =      1.538024    -0.001320    -0.000285     1.537739
	   15 R(11,15)        =      1.085794    -0.000381    -0.000053     1.085741
	   16 R(11,16)        =      1.085958    -0.000247    -0.000085     1.085872
	   17 R(14,17)        =      1.527843    -0.000738    -0.000142     1.527701
	   18 R(14,18)        =      1.085964    -0.000306    -0.000047     1.085916
	   19 R(14,19)        =      1.086552    -0.000404    -0.000065     1.086487
	   20 R(17,20)        =      1.525006    -0.001619    -0.000275     1.524730
	   21 R(17,21)        =      1.086350    -0.000687    -0.000114     1.086235
	   22 R(17,22)        =      1.087166    -0.000689    -0.000130     1.087036
	   23 R(20,23)        =      1.084112    -0.000639    -0.000107     1.084005
	   24 R(20,24)        =      1.085198    -0.000680    -0.000126     1.085072
	   25 R(20,25)        =      1.085042    -0.000791    -0.000133     1.084908
	   26 R(26,27)        =      1.079946    -0.000111    -0.000016     1.079930
	   27 R(26,28)        =      1.077957    -0.000197    -0.000030     1.077927
	   28 R(26,29)        =      1.079945    -0.000026    -0.000006     1.079939
	   29 B(1,2,3)        =    125.595787     0.000003     0.003712   125.599499
	   30 B(1,2,4)        =    123.167684    -0.000006    -0.002099   123.165584
	   31 B(2,3,5)        =    113.447237     0.000001    -0.001338   113.445899
	   32 B(2,3,6)        =    106.836244    -0.000001     0.001073   106.837317
	   33 B(2,3,7)        =    107.091946     0.000002     0.001167   107.093114
	   34 B(2,4,26)       =    117.336936    -0.000003    -0.007234   117.329702
	   35 B(3,2,4)        =    111.236414     0.000003    -0.001498   111.234917
	   36 B(3,5,8)        =    113.904262    -0.000006    -0.003506   113.900756
	   37 B(3,5,9)        =    109.310525     0.000001     0.000719   109.311244
	   38 B(3,5,10)       =    108.511525     0.000003     0.001783   108.513308
	   39 B(4,26,27)      =    110.686995    -0.000002    -0.003811   110.683184
	   40 B(4,26,28)      =    106.030582     0.000001    -0.001103   106.029479
	   41 B(4,26,29)      =    110.684830     0.000000     0.000299   110.685129
	   42 B(5,3,6)        =    112.087423    -0.000000    -0.000608   112.086815
	   43 B(5,3,7)        =    111.071873    -0.000002    -0.000749   111.071124
	   44 B(5,8,11)       =    115.077695    -0.000010    -0.009727   115.067968
	   45 B(5,8,12)       =    108.058916     0.000003     0.001534   108.060450
	   46 B(5,8,13)       =    109.415568     0.000002    -0.000590   109.414979
	   47 B(6,3,7)        =    105.862861     0.000000     0.000716   105.863577
	   48 B(8,5,9)        =    109.768751     0.000002     0.002482   109.771233
	   49 B(8,5,10)       =    109.077240     0.000001    -0.003111   109.074129
	   50 B(8,11,14)      =    113.599653     0.000001    -0.002334   113.597319
	   51 B(8,11,15)      =    109.520164     0.000000     0.008065   109.528228
	   52 B(8,11,16)      =    109.850903     0.000000     0.011550   109.862453
	   53 B(9,5,10)       =    105.957049    -0.000001     0.002003   105.959053
	   54 B(11,8,12)      =    108.374191     0.000005     0.010093   108.384285
	   55 B(11,8,13)      =    109.486862     0.000002    -0.000083   109.486779
	   56 B(11,14,17)     =    113.758794    -0.000002    -0.009717   113.749077
	   57 B(11,14,18)     =    109.444004    -0.000001    -0.010323   109.433680
	   58 B(11,14,19)     =    109.750909     0.000000    -0.005583   109.745325
	   59 B(12,8,13)      =    106.029863    -0.000002    -0.000389   106.029474
	   60 B(14,11,15)     =    109.910128    -0.000001    -0.012118   109.898010
	   61 B(14,11,16)     =    108.457496    -0.000001    -0.010755   108.446741
	   62 B(14,17,20)     =    113.149856    -0.000002    -0.006787   113.143068
	   63 B(14,17,21)     =    108.894497     0.000003     0.008306   108.902804
	   64 B(14,17,22)     =    109.666978    -0.000000     0.003661   109.670640
	   65 B(15,11,16)     =    105.156232     0.000001     0.006124   105.162356
	   66 B(17,14,18)     =    108.102415     0.000001     0.005167   108.107583
	   67 B(17,14,19)     =    109.565787     0.000001     0.008087   109.573873
	   68 B(17,20,23)     =    111.279004    -0.000000    -0.000680   111.278324
	   69 B(17,20,24)     =    111.094624     0.000003     0.009899   111.104522
	   70 B(17,20,25)     =    111.180556    -0.000006    -0.020267   111.160289
	   71 B(18,14,19)     =    105.909803     0.000001     0.014210   105.924013
	   72 B(20,17,21)     =    109.412098    -0.000003    -0.020044   109.392055
	   73 B(20,17,22)     =    109.257484     0.000002     0.008317   109.265801
	   74 B(21,17,22)     =    106.224736     0.000000     0.007332   106.232068
	   75 B(23,20,24)     =    107.741879    -0.000001    -0.002590   107.739289
	   76 B(23,20,25)     =    107.742725     0.000003     0.008264   107.750989
	   77 B(24,20,25)     =    107.629227     0.000002     0.006052   107.635279
	   78 B(27,26,28)     =    110.189801     0.000000     0.002062   110.191863
	   79 B(27,26,29)     =    109.036967     0.000000     0.000132   109.037099
	   80 B(28,26,29)     =    110.187985     0.000000     0.002444   110.190429
	   81 D(1,2,3,5)      =      0.055423     0.000001     0.051605     0.107028
	   82 D(1,2,3,6)      =    124.074316     0.000001     0.050732   124.125047
	   83 D(1,2,3,7)      =   -122.857897     0.000001     0.052584  -122.805313
	   84 D(1,2,4,26)     =      0.115146    -0.000001    -0.055542     0.059604
	   85 D(2,3,5,8)      =   -176.318921    -0.000000     0.011524  -176.307397
	   86 D(2,3,5,9)      =     60.497694    -0.000000     0.010229    60.507923
	   87 D(2,3,5,10)     =    -54.622657    -0.000000     0.006498   -54.616160
	   88 D(2,4,26,27)    =    -60.542967     0.000000     0.000726   -60.542242
	   89 D(2,4,26,28)    =    179.962588     0.000000     0.000983   179.963571
	   90 D(2,4,26,29)    =     60.471499    -0.000000    -0.001453    60.470046
	   91 D(3,2,4,26)     =    179.997880     0.000001     0.056790   180.054670
	   92 D(3,5,8,11)     =    -68.439885     0.000001     0.244791   -68.195095
	   93 D(3,5,8,12)     =    170.318829     0.000000     0.237108   170.555937
	   94 D(3,5,8,13)     =     55.302187     0.000000     0.237048    55.539235
	   95 D(4,2,3,5)      =   -179.823859    -0.000001    -0.064033  -179.887892
	   96 D(4,2,3,6)      =    -55.804967    -0.000001    -0.064906   -55.869873
	   97 D(4,2,3,7)      =     57.262821    -0.000001    -0.063053    57.199767
	   98 D(5,8,11,14)    =   -179.628806    -0.000001    -0.332628  -179.961434
	   99 D(5,8,11,15)    =    -56.318718    -0.000001    -0.343979   -56.662697
	  100 D(5,8,11,16)    =     58.699654    -0.000000    -0.325603    58.374052
	  101 D(6,3,5,8)      =     62.568979    -0.000000     0.011554    62.580533
	  102 D(6,3,5,9)      =    -60.614406     0.000000     0.010258   -60.604147
	  103 D(6,3,5,10)     =   -175.734757    -0.000000     0.006527  -175.728230
	  104 D(7,3,5,8)      =    -55.626463    -0.000000     0.011547   -55.614915
	  105 D(7,3,5,9)      =   -178.809847     0.000000     0.010252  -178.799595
	  106 D(7,3,5,10)     =     66.069801     0.000000     0.006520    66.076322
	  107 D(8,11,14,17)   =    -96.903423     0.000000    -0.000322   -96.903745
	  108 D(8,11,14,18)   =    142.071176     0.000000     0.007104   142.078280
	  109 D(8,11,14,19)   =     26.245956     0.000000    -0.000961    26.244994
	  110 D(9,5,8,11)     =     54.493639     0.000000     0.245110    54.738750
	  111 D(9,5,8,12)     =    -66.747646     0.000000     0.237428   -66.510218
	  112 D(9,5,8,13)     =    178.235712    -0.000000     0.237368   178.473080
	  113 D(10,5,8,11)    =    170.177537     0.000001     0.247137   170.424674
	  114 D(10,5,8,12)    =     48.936252     0.000000     0.239455    49.175706
	  115 D(10,5,8,13)    =    -66.080390     0.000000     0.239394   -65.840996
	  116 D(11,14,17,20)  =    177.746824     0.000000     0.001617   177.748441
	  117 D(11,14,17,21)  =    -60.356153    -0.000000    -0.022567   -60.378720
	  118 D(11,14,17,22)  =     55.489022     0.000000    -0.007083    55.481939
	  119 D(12,8,11,14)   =    -58.559147    -0.000000    -0.329629   -58.888776
	  120 D(12,8,11,15)   =     64.750941    -0.000001    -0.340980    64.409962
	  121 D(12,8,11,16)   =    179.769314    -0.000000    -0.322604   179.446710
	  122 D(13,8,11,14)   =     56.666841    -0.000000    -0.324607    56.342234
	  123 D(13,8,11,15)   =    179.976929    -0.000000    -0.335958   179.640971
	  124 D(13,8,11,16)   =    -65.004698     0.000000    -0.317582   -65.322280
	  125 D(14,17,20,23)  =    179.215839     0.000000    -0.043067   179.172772
	  126 D(14,17,20,24)  =     59.166073    -0.000000    -0.045995    59.120078
	  127 D(14,17,20,25)  =    -60.675406    -0.000000    -0.046730   -60.722136
	  128 *D(15,11,14,17) =    140.000014    -0.000000     0.000000   140.000014
	  129 D(15,11,14,18)  =     18.974613     0.000000     0.007426    18.982039
	  130 D(15,11,14,19)  =    -96.850607    -0.000000    -0.000639   -96.851247
	  131 D(16,11,14,17)  =     25.540943     0.000000     0.005067    25.546011
	  132 D(16,11,14,18)  =    -95.484458     0.000000     0.012493   -95.471964
	  133 D(16,11,14,19)  =    148.690322     0.000000     0.004428   148.694750
	  134 D(18,14,17,20)  =    -60.480651     0.000000    -0.014208   -60.494859
	  135 D(18,14,17,21)  =     61.416373    -0.000001    -0.038393    61.377980
	  136 D(18,14,17,22)  =    177.261548    -0.000000    -0.022908   177.238640
	  137 D(19,14,17,20)  =     54.496385     0.000001     0.009697    54.506082
	  138 D(19,14,17,21)  =    176.393409    -0.000000    -0.014487   176.378921
	  139 D(19,14,17,22)  =    -67.761417     0.000000     0.000998   -67.760419
	  140 D(21,17,20,23)  =     57.609309    -0.000000    -0.034709    57.574600
	  141 D(21,17,20,24)  =    -62.440457    -0.000000    -0.037638   -62.478095
	  142 D(21,17,20,25)  =    177.718064    -0.000000    -0.038373   177.679692
	  143 D(22,17,20,23)  =    -58.298092     0.000000    -0.036952   -58.335043
	  144 D(22,17,20,24)  =   -178.347858    -0.000000    -0.039880  -178.387738
	  145 D(22,17,20,25)  =     61.810663    -0.000000    -0.040615    61.770049
	 ---------------------------------------------------------------------------
	Successfully symmetrized geometry.

  ==> Convergence Check <==

  Measures of convergence in internal coordinates in au.
  Criteria marked as inactive (o), active & met (*), and active & unmet ( ).
  ---------------------------------------------------------------------------------------------
   Step     Total Energy     Delta E     MAX Force     RMS Force      MAX Disp      RMS Disp   
  ---------------------------------------------------------------------------------------------
    Convergence Criteria    1.00e-06 *    3.00e-04 *             o    1.20e-03 *             o
  ---------------------------------------------------------------------------------------------
      6    -501.22094933    5.40e-07 *    1.97e-04 *    4.19e-05 o    6.00e-03      1.81e-03 o  ~
  ---------------------------------------------------------------------------------------------


  **** Optimization is complete! (in 6 steps) ****

  ==> Optimization Summary <==

  Measures of convergence in internal coordinates in au.
  --------------------------------------------------------------------------------------------------------------- ~
   Step         Total Energy             Delta E       MAX Force       RMS Force        MAX Disp        RMS Disp  ~
  --------------------------------------------------------------------------------------------------------------- ~
      1    -501.220598969525   -501.220598969525      0.00883858      0.00087500      0.10502259      0.02985945  ~
      2    -501.220781021881     -0.000182052355      0.00544839      0.00079183      0.03409434      0.01038134  ~
      3    -501.220935412760     -0.000154390880      0.00042052      0.00012740      0.03761490      0.00961261  ~
      4    -501.220711551864      0.000223860896      0.00201100      0.00051722      0.03172620      0.00757809  ~
      5    -501.220949873541     -0.000238321677      0.00018093      0.00003463      0.00967938      0.00296406  ~
      6    -501.220949333899      0.000000539642      0.00019652      0.00004193      0.00600356      0.00180777  ~
  --------------------------------------------------------------------------------------------------------------- ~

	Writing optimization data to binary file.
	Final energy is   -501.2209493338993
	Final (previous) structure:
	Cartesian Geometry (in Angstrom)
	    O     3.1177930526   0.9187807897  -0.9605089239
	    C     2.5914472104   0.0423322038  -0.3639434014
	    C     1.1368968319  -0.0013059343   0.0295975894
	    O     3.2308083429  -1.0426346290   0.0427050030
	    C     0.3505353117   1.2244751789  -0.4184911318
	    H     0.7289654964  -0.9183222624  -0.3779811264
	    H     1.1015825869  -0.1146703864   1.1085838441
	    C    -1.1046884641   1.2330992599   0.0516671388
	    H     0.3870863369   1.2984276393  -1.4998985870
	    H     0.8492875778   2.1093446782  -0.0424918265
	    C    -1.9990269136   0.1729871043  -0.5900801865
	    H    -1.5229084116   2.2110437831  -0.1660170816
	    H    -1.1356945943   1.1272468563   1.1339976929
	    C    -3.4561879561   0.2179777736  -0.1000045427
	    H    -1.9687995026   0.2784046558  -1.6703220552
	    H    -1.5994346853  -0.8167799120  -0.3901020770
	    C    -3.7609005576  -0.7785925972   1.0172692999
	    H    -4.1235757763   0.0081546601  -0.9305978308
	    H    -3.7009830168   1.2231211404   0.2321978766
	    C    -5.1940395993  -0.6846685452   1.5300388689
	    H    -3.5731883508  -1.7844475801   0.6523372917
	    H    -3.0731041227  -0.6223225893   1.8445816224
	    H    -5.3809765941  -1.4129251386   2.3110612322
	    H    -5.9069914586  -0.8651761792   0.7320595319
	    H    -5.4004669414   0.2989854528   1.9388516505
	    C     4.6081515227  -1.1357656659  -0.2594184114
	    H     4.7664698268  -1.1181641809  -1.3275518546
	    H     4.9398948516  -2.0759669209   0.1504100744
	    H     5.1535206460  -0.3196988622   0.1910138848
	Saving final (previous) structure.
			--------------------------
			 OPTKING Finished Execution 
			--------------------------

    Final optimized geometry and variables:
    Molecular point group: c1
    Full point group: C1

    Geometry (in Angstrom), charge = 0, multiplicity = 1:

    O            3.117793052629     0.918780789702    -0.960508923929
    C            2.591447210375     0.042332203817    -0.363943401438
    C            1.136896831898    -0.001305934345     0.029597589428
    O            3.230808342878    -1.042634628989     0.042705003049
    C            0.350535311715     1.224475178921    -0.418491131771
    H            0.728965496359    -0.918322262429    -0.377981126399
    H            1.101582586913    -0.114670386423     1.108583844107
    C           -1.104688464062     1.233099259872     0.051667138845
    H            0.387086336864     1.298427639333    -1.499898586993
    H            0.849287577842     2.109344678168    -0.042491826492
    C           -1.999026913594     0.172987104261    -0.590080186480
    H           -1.522908411564     2.211043783096    -0.166017081617
    H           -1.135694594341     1.127246856347     1.133997692936
    C           -3.456187956135     0.217977773608    -0.100004542706
    H           -1.968799502617     0.278404655832    -1.670322055178
    H           -1.599434685315    -0.816779912031    -0.390102076978
    C           -3.760900557650    -0.778592597181     1.017269299932
    H           -4.123575776318     0.008154660139    -0.930597830806
    H           -3.700983016811     1.223121140419     0.232197876642
    C           -5.194039599344    -0.684668545175     1.530038868871
    H           -3.573188350767    -1.784447580133     0.652337291697
    H           -3.073104122706    -0.622322589279     1.844581622391
    H           -5.380976594143    -1.412925138571     2.311061232240
    H           -5.906991458645    -0.865176179201     0.732059531942
    H           -5.400466941440     0.298985452804     1.938851650542
    C            4.608151522659    -1.135765665917    -0.259418411376
    H            4.766469826828    -1.118164180891    -1.327551854632
    H            4.939894851570    -2.075966920949     0.150410074375
    H            5.153520646001    -0.319698862202     0.191013884829

	Cleaning optimization helper files.


Properties will be evaluated at   0.000000,   0.000000,   0.000000 Bohr

Properties computed using the  density matrix

  Nuclear Dipole Moment: (a.u.)
     X:   -18.2120      Y:    -1.4009      Z:     3.6425

  Electronic Dipole Moment: (a.u.)
     X:    18.0275      Y:     0.7944      Z:    -3.2934

  Dipole Moment: (a.u.)
     X:    -0.1845      Y:    -0.6066      Z:     0.3490     Total:     0.7237

  Dipole Moment: (Debye)
     X:    -0.4689      Y:    -1.5418      Z:     0.8872     Total:     1.8396

  Quadrupole Moment: (Debye Ang)
    XX:   -68.1605     YY:   -72.0545     ZZ:   -71.0694
    XY:    -7.2582     XZ:     3.7747     YZ:     3.1091

  Traceless Quadrupole Moment: (Debye Ang)
    XX:     2.2676     YY:    -1.6264     ZZ:    -0.6413
    XY:    -7.2582     XZ:     3.7747     YZ:     3.1091

  Mulliken Charges: (a.u.)
   Center  Symbol    Alpha    Beta     Spin     Total
       1     O     4.19698  4.19698  0.00000 -0.39396
       2     C     2.80455  2.80455  0.00000  0.39091
       3     C     3.10189  3.10189  0.00000 -0.20377
       4     O     4.14727  4.14727  0.00000 -0.29454
       5     C     3.09283  3.09283  0.00000 -0.18566
       6     H     0.43925  0.43925  0.00000  0.12151
       7     H     0.43983  0.43983  0.00000  0.12035
       8     C     3.10187  3.10187  0.00000 -0.20374
       9     H     0.44616  0.44616  0.00000  0.10768
      10     H     0.43957  0.43957  0.00000  0.12085
      11     C     3.10331  3.10331  0.00000 -0.20662
      12     H     0.44449  0.44449  0.00000  0.11102
      13     H     0.45341  0.45341  0.00000  0.09319
      14     C     3.09408  3.09408  0.00000 -0.18817
      15     H     0.44505  0.44505  0.00000  0.10989
      16     H     0.45458  0.45458  0.00000  0.09084
      17     C     3.08215  3.08215  0.00000 -0.16429
      18     H     0.44753  0.44753  0.00000  0.10494
      19     H     0.45484  0.45484  0.00000  0.09031
      20     C     3.15051  3.15051  0.00000 -0.30102
      21     H     0.45453  0.45453  0.00000  0.09095
      22     H     0.45539  0.45539  0.00000  0.08922
      23     H     0.44848  0.44848  0.00000  0.10303
      24     H     0.45483  0.45483  0.00000  0.09035
      25     H     0.45463  0.45463  0.00000  0.09073
      26     C     3.03816  3.03816  0.00000 -0.07632
      27     H     0.45434  0.45434  0.00000  0.09132
      28     H     0.44528  0.44528  0.00000  0.10945
      29     H     0.45422  0.45422  0.00000  0.09156

   Total alpha = 44.00000, Total beta = 44.00000, Total charge = -0.00000


*** Psi4 exiting successfully. Buy a developer a beer!
