    -----------------------------------------------------------------------
          Psi4: An Open-Source Ab Initio Electronic Structure Package
                              Psi4 1.0.54 Driver

                          Git: Rev {master} 8d4cec3 dirty

    J. M. Turney, A. C. Simmonett, R. M. Parrish, E. G. Hohenstein,
    F. A. Evangelista, J. T. Fermann, B. J. Mintz, L. A. Burns, J. J. Wilke,
    M. L. Abrams, N. J. Russ, M. L. Leininger, C. L. Janssen, E. T. Seidl,
    W. D. Allen, H. F. Schaefer, R. A. King, E. F. Valeev, C. D. Sherrill,
    and T. D. Crawford, WIREs Comput. Mol. Sci. 2, 556-565 (2012)
    (doi: 10.1002/wcms.93)

                         Additional Contributions by
    A. E. DePrince, U. Bozkaya, A. Yu. Sokolov, D. G. A. Smith, R. Di Remigio,
    R. M. Richard, J. F. Gonthier, H. R. McAlexander, M. Saitow, and
    B. P. Pritchard
    -----------------------------------------------------------------------


    Psi4 started on: Sat Sep 10 15:52:52 2016

    Process ID:   5705
    PSI4DATADIR: /export131/home/mjharvey/miniconda3/share/psi4
    Memory level set to 256.000 MB

  ==> Input File <==

--------------------------------------------------------------------------
set {
	reference rhf
	basis cc-pvtz
}


set_num_threads( 4 )
memory 2 gb

molecule MOL {
0 1

H	 3.850603	 0.381655	 0.435640
N	 3.039876	 -0.199676	 0.455428
C	 1.860978	 0.530248	 0.016256
H	 2.930689	 -0.520896	 1.394706
C	 0.644130	 -0.381765	 -0.031064
H	 2.060005	 0.912993	 -0.979134
H	 1.638046	 1.393612	 0.644635
C	 -0.678115	 0.376691	 0.025731
H	 0.693998	 -0.977147	 -0.936845
H	 0.693309	 -1.082142	 0.800523
C	 -1.900706	 -0.535531	 -0.022488
H	 -0.725296	 1.079516	 -0.802982
H	 -0.715474	 0.974884	 0.933278
C	 -3.220513	 0.226854	 0.028039
H	 -1.865036	 -1.134397	 -0.928236
H	 -1.857948	 -1.236381	 0.806820
H	 -3.309098	 0.911849	 -0.808725
H	 -4.066838	 -0.449485	 -0.008086
H	 -3.301685	 0.809374	 0.939860

	symmetry c1
}
set optking {
	frozen_dihedral = ("
		6 3 5 9
	")
}

ee,wfn = optimize('scf', return_wfn=True)
oeprop( wfn, 'DIPOLE', 'QUADRUPOLE', 'MULLIKEN_CHARGES')
f=open( 'psi4out.xyz', 'w' )
f.write( "19  " )
f.write( str(ee) + "\n" )
f.write( MOL.save_string_xyz() )
f.close()
--------------------------------------------------------------------------

  Memory set to   2.000 GiB by Python script.
gradient() will perform analytic gradient computation.

*** tstart() called on cx1-28-12-4
*** at Sat Sep 10 15:52:53 2016


         ---------------------------------------------------------
                                   SCF
            by Justin Turney, Rob Parrish, and Andy Simmonett
                              RHF Reference
                        4 Threads,   2000 MiB Core
         ---------------------------------------------------------

  ==> Geometry <==

    Molecular point group: c1
    Full point group: C1

    Geometry (in Angstrom), charge = 0, multiplicity = 1:

       Center              X                  Y                   Z               Mass       
    ------------   -----------------  -----------------  -----------------  -----------------
           H          3.861726735588     0.371625212735     0.342898788071     1.007825032070
           N          3.050999735588    -0.209705787265     0.362686788071    14.003074004780
           C          1.872101735588     0.520218212735    -0.076485211929    12.000000000000
           H          2.941812735588    -0.530925787265     1.301964788071     1.007825032070
           C          0.655253735588    -0.391794787265    -0.123805211929    12.000000000000
           H          2.071128735588     0.902963212735    -1.071875211929     1.007825032070
           H          1.649169735588     1.383582212735     0.551893788071     1.007825032070
           C         -0.666991264412     0.366661212735    -0.067010211929    12.000000000000
           H          0.705121735588    -0.987176787265    -1.029586211929     1.007825032070
           H          0.704432735588    -1.092171787265     0.707781788071     1.007825032070
           C         -1.889582264412    -0.545560787265    -0.115229211929    12.000000000000
           H         -0.714172264412     1.069486212735    -0.895723211929     1.007825032070
           H         -0.704350264412     0.964854212735     0.840536788071     1.007825032070
           C         -3.209389264412     0.216824212735    -0.064702211929    12.000000000000
           H         -1.853912264412    -1.144426787265    -1.020977211929     1.007825032070
           H         -1.846824264412    -1.246410787265     0.714078788071     1.007825032070
           H         -3.297974264412     0.901819212735    -0.901466211929     1.007825032070
           H         -4.055714264412    -0.459514787265    -0.100827211929     1.007825032070
           H         -3.290561264412     0.799344212735     0.847118788071     1.007825032070

  Running in c1 symmetry.

  Rotational constants: A =      0.49568  B =      0.03838  C =      0.03726 [cm^-1]
  Rotational constants: A =  14860.01667  B =   1150.47706  C =   1117.03655 [MHz]
  Nuclear repulsion =  246.261874018764672

  Charge       = 0
  Multiplicity = 1
  Electrons    = 50
  Nalpha       = 25
  Nbeta        = 25

  ==> Algorithm <==

  SCF Algorithm Type is DF.
  DIIS enabled.
  MOM disabled.
  Fractional occupation disabled.
  Guess Type is SAD.
  Energy threshold   = 1.00e-08
  Density threshold  = 1.00e-08
  Integral threshold = 0.00e+00

  ==> Primary Basis <==

  Basis Set: CC-PVTZ
    Number of shells: 138
    Number of basis function: 362
    Number of Cartesian functions: 405
    Spherical Harmonics?: true
    Max angular momentum: 3

  ==> Pre-Iterations <==

   -------------------------------------------------------
    Irrep   Nso     Nmo     Nalpha   Nbeta   Ndocc  Nsocc
   -------------------------------------------------------
     A        362     362       0       0       0       0
   -------------------------------------------------------
    Total     362     362      25      25      25       0
   -------------------------------------------------------

  ==> Integral Setup <==

  ==> DFJK: Density-Fitted J/K Matrices <==

    J tasked:                  Yes
    K tasked:                  Yes
    wK tasked:                  No
    OpenMP threads:              4
    Integrals threads:           4
    Memory (MB):              1430
    Algorithm:                Core
    Integral Cache:           NONE
    Schwarz Cutoff:          1E-12
    Fitting Condition:       1E-12

   => Auxiliary Basis Set <=

  Basis Set: 
    Number of shells: 280
    Number of basis function: 864
    Number of Cartesian functions: 1031
    Spherical Harmonics?: true
    Max angular momentum: 4

  Minimum eigenvalue in the overlap matrix is 3.4397002993E-04.
  Using Symmetric Orthogonalization.
  SCF Guess: Superposition of Atomic Densities via on-the-fly atomic UHF.

  ==> Iterations <==

                           Total Energy        Delta E     RMS |[F,P]|

   @DF-RHF iter   0:  -254.40396338283421   -2.54404e+02   1.38059e-02 
   @DF-RHF iter   1:  -251.31945540361386    3.08451e+00   1.14254e-03 
   @DF-RHF iter   2:  -251.43123031480189   -1.11775e-01   4.21909e-04 DIIS
   @DF-RHF iter   3:  -251.44394240981336   -1.27121e-02   1.46258e-04 DIIS
   @DF-RHF iter   4:  -251.44611981651877   -2.17741e-03   2.82874e-05 DIIS
   @DF-RHF iter   5:  -251.44620798458351   -8.81681e-05   9.87832e-06 DIIS
   @DF-RHF iter   6:  -251.44621888276021   -1.08982e-05   2.24098e-06 DIIS
   @DF-RHF iter   7:  -251.44621959461830   -7.11858e-07   5.74446e-07 DIIS
   @DF-RHF iter   8:  -251.44621965878639   -6.41681e-08   1.67261e-07 DIIS
   @DF-RHF iter   9:  -251.44621966429855   -5.51216e-09   6.06333e-08 DIIS
   @DF-RHF iter  10:  -251.44621966499557   -6.97014e-10   1.60517e-08 DIIS
   @DF-RHF iter  11:  -251.44621966504820   -5.26370e-11   3.84038e-09 DIIS

  ==> Post-Iterations <==

    Orbital Energies (a.u.)
    -----------------------

    Doubly Occupied:                                                      

       1A    -15.526440     2A    -11.237570     3A    -11.211969  
       4A    -11.210673     5A    -11.207690     6A    -11.205675  
       7A     -1.178227     8A     -1.074451     9A     -0.999731  
      10A     -0.901353    11A     -0.813526    12A     -0.789696  
      13A     -0.668971    14A     -0.638733    15A     -0.620300  
      16A     -0.586305    17A     -0.569330    18A     -0.548989  
      19A     -0.528802    20A     -0.502424    21A     -0.481731  
      22A     -0.465957    23A     -0.461273    24A     -0.448807  
      25A     -0.383179  

    Virtual:                                                              

      26A      0.141647    27A      0.149747    28A      0.166676  
      29A      0.170862    30A      0.179365    31A      0.202120  
      32A      0.218283    33A      0.221106    34A      0.230328  
      35A      0.249582    36A      0.260411    37A      0.267120  
      38A      0.273948    39A      0.318513    40A      0.333592  
      41A      0.353443    42A      0.363011    43A      0.379838  
      44A      0.404131    45A      0.420253    46A      0.448693  
      47A      0.451841    48A      0.465333    49A      0.495231  
      50A      0.511461    51A      0.520662    52A      0.529568  
      53A      0.538424    54A      0.568860    55A      0.575175  
      56A      0.602792    57A      0.607631    58A      0.624920  
      59A      0.628979    60A      0.640277    61A      0.648608  
      62A      0.652996    63A      0.662996    64A      0.668358  
      65A      0.674091    66A      0.677849    67A      0.690867  
      68A      0.703336    69A      0.704258    70A      0.718811  
      71A      0.726317    72A      0.745077    73A      0.750481  
      74A      0.773676    75A      0.798002    76A      0.840027  
      77A      0.850207    78A      0.878075    79A      0.898874  
      80A      0.916497    81A      0.942661    82A      0.960625  
      83A      0.968550    84A      0.999244    85A      1.014525  
      86A      1.027162    87A      1.040565    88A      1.052137  
      89A      1.080687    90A      1.092093    91A      1.123447  
      92A      1.136054    93A      1.168969    94A      1.182638  
      95A      1.207446    96A      1.219386    97A      1.242150  
      98A      1.244942    99A      1.266468   100A      1.273933  
     101A      1.283105   102A      1.292688   103A      1.314528  
     104A      1.318975   105A      1.336805   106A      1.339776  
     107A      1.353906   108A      1.378707   109A      1.391293  
     110A      1.399677   111A      1.412992   112A      1.414588  
     113A      1.420683   114A      1.457286   115A      1.467648  
     116A      1.474280   117A      1.480804   118A      1.493514  
     119A      1.514419   120A      1.523294   121A      1.539025  
     122A      1.564501   123A      1.568978   124A      1.581679  
     125A      1.598904   126A      1.614953   127A      1.621182  
     128A      1.635083   129A      1.658969   130A      1.662128  
     131A      1.699615   132A      1.706088   133A      1.726786  
     134A      1.752290   135A      1.763392   136A      1.782195  
     137A      1.807930   138A      1.814699   139A      1.828909  
     140A      1.844422   141A      1.859779   142A      1.874647  
     143A      1.911402   144A      1.942288   145A      1.968333  
     146A      2.012285   147A      2.049377   148A      2.097272  
     149A      2.117891   150A      2.516431   151A      2.572630  
     152A      2.603065   153A      2.650766   154A      2.665564  
     155A      2.678108   156A      2.692797   157A      2.701587  
     158A      2.734105   159A      2.738318   160A      2.783189  
     161A      2.807804   162A      2.813460   163A      2.829989  
     164A      2.844847   165A      2.866151   166A      2.878542  
     167A      2.899784   168A      2.910248   169A      2.933175  
     170A      2.948269   171A      2.968520   172A      3.017147  
     173A      3.034331   174A      3.045343   175A      3.051202  
     176A      3.069418   177A      3.096014   178A      3.122817  
     179A      3.129097   180A      3.142136   181A      3.151972  
     182A      3.188203   183A      3.203775   184A      3.228797  
     185A      3.239640   186A      3.272047   187A      3.280259  
     188A      3.297612   189A      3.326172   190A      3.336822  
     191A      3.345809   192A      3.361873   193A      3.376938  
     194A      3.379467   195A      3.397827   196A      3.406149  
     197A      3.421964   198A      3.428905   199A      3.435695  
     200A      3.440175   201A      3.454318   202A      3.461847  
     203A      3.469021   204A      3.494682   205A      3.512912  
     206A      3.524089   207A      3.544407   208A      3.557310  
     209A      3.560154   210A      3.575486   211A      3.580812  
     212A      3.598578   213A      3.612042   214A      3.626034  
     215A      3.649791   216A      3.661168   217A      3.686328  
     218A      3.704617   219A      3.731997   220A      3.761584  
     221A      3.768758   222A      3.777169   223A      3.793400  
     224A      3.811402   225A      3.837034   226A      3.845179  
     227A      3.860922   228A      3.871617   229A      3.882282  
     230A      3.903561   231A      3.908740   232A      3.918089  
     233A      3.937989   234A      3.947098   235A      3.956725  
     236A      3.970940   237A      4.007951   238A      4.021801  
     239A      4.054557   240A      4.066758   241A      4.090319  
     242A      4.106637   243A      4.111786   244A      4.130643  
     245A      4.139041   246A      4.152808   247A      4.165561  
     248A      4.173961   249A      4.183620   250A      4.202054  
     251A      4.205875   252A      4.224352   253A      4.233675  
     254A      4.255009   255A      4.264166   256A      4.280815  
     257A      4.302623   258A      4.314522   259A      4.329579  
     260A      4.340893   261A      4.354410   262A      4.366219  
     263A      4.380026   264A      4.384658   265A      4.397531  
     266A      4.411873   267A      4.435644   268A      4.451269  
     269A      4.455707   270A      4.477288   271A      4.482785  
     272A      4.510342   273A      4.531693   274A      4.542157  
     275A      4.553823   276A      4.570624   277A      4.589250  
     278A      4.602030   279A      4.617819   280A      4.635723  
     281A      4.652991   282A      4.658492   283A      4.666904  
     284A      4.692915   285A      4.706260   286A      4.718838  
     287A      4.736179   288A      4.763875   289A      4.786053  
     290A      4.791430   291A      4.820302   292A      4.844403  
     293A      4.862370   294A      4.906397   295A      4.959092  
     296A      5.009526   297A      5.028092   298A      5.043263  
     299A      5.064451   300A      5.078158   301A      5.101094  
     302A      5.124882   303A      5.181466   304A      5.204727  
     305A      5.232947   306A      5.244721   307A      5.260284  
     308A      5.279798   309A      5.283336   310A      5.305432  
     311A      5.315235   312A      5.346001   313A      5.370043  
     314A      5.397825   315A      5.405823   316A      5.417431  
     317A      5.468722   318A      5.475676   319A      5.516834  
     320A      5.538055   321A      5.580052   322A      5.617391  
     323A      5.622026   324A      5.636180   325A      5.662681  
     326A      5.674362   327A      5.746879   328A      5.752696  
     329A      5.774850   330A      5.779799   331A      5.800041  
     332A      5.838228   333A      5.884533   334A      5.906268  
     335A      5.914735   336A      5.927533   337A      5.951398  
     338A      5.955339   339A      5.980322   340A      6.013491  
     341A      6.041646   342A      6.067553   343A      6.087364  
     344A      6.148401   345A      6.253132   346A      6.292639  
     347A      6.332327   348A      6.334675   349A      6.368828  
     350A      6.386483   351A      6.430091   352A      6.472786  
     353A      6.509111   354A      6.613821   355A      6.717218  
     356A      7.382352   357A     12.881789   358A     13.383041  
     359A     13.528568   360A     13.776701   361A     14.125127  
     362A     14.265178  

    Final Occupation by Irrep:
              A 
    DOCC [    25 ]

  Energy converged.

  @DF-RHF Final Energy:  -251.44621966504820

   => Energetics <=

    Nuclear Repulsion Energy =            246.2618740187646722
    One-Electron Energy =                -826.8925863168212800
    Two-Electron Energy =                 329.1844926330085173
    DFT Exchange-Correlation Energy =       0.0000000000000000
    Empirical Dispersion Energy =           0.0000000000000000
    PCM Polarization Energy =               0.0000000000000000
    EFP Energy =                            0.0000000000000000
    Total Energy =                       -251.4462196650480337


  Saving occupied orbitals to File 180.

*** tstop() called on cx1-28-12-4 at Sat Sep 10 15:53:02 2016
Module time:
	user time   =      31.81 seconds =       0.53 minutes
	system time =       0.88 seconds =       0.01 minutes
	total time  =          9 seconds =       0.15 minutes
Total time:
	user time   =      31.81 seconds =       0.53 minutes
	system time =       0.88 seconds =       0.01 minutes
	total time  =          9 seconds =       0.15 minutes


Properties will be evaluated at   0.000000,   0.000000,   0.000000 Bohr

Properties computed using the SCF density matrix

  Nuclear Dipole Moment: (a.u.)
     X:    -3.5995      Y:     0.8753      Z:     0.2669

  Electronic Dipole Moment: (a.u.)
     X:     3.5640      Y:    -0.5143      Z:     0.0339

  Dipole Moment: (a.u.)
     X:    -0.0355      Y:     0.3611      Z:     0.3008     Total:     0.4713

  Dipole Moment: (Debye)
     X:    -0.0903      Y:     0.9177      Z:     0.7646     Total:     1.1979


*** tstart() called on cx1-28-12-4
*** at Sat Sep 10 15:53:02 2016


         ------------------------------------------------------------
                                   SCF GRAD                          
                          Rob Parrish, Justin Turney,                
                       Andy Simmonett, and Alex Sokolov              
         ------------------------------------------------------------

  ==> Geometry <==

    Molecular point group: c1
    Full point group: C1

    Geometry (in Angstrom), charge = 0, multiplicity = 1:

       Center              X                  Y                   Z               Mass       
    ------------   -----------------  -----------------  -----------------  -----------------
           H          3.861726735588     0.371625212735     0.342898788071     1.007825032070
           N          3.050999735588    -0.209705787265     0.362686788071    14.003074004780
           C          1.872101735588     0.520218212735    -0.076485211929    12.000000000000
           H          2.941812735588    -0.530925787265     1.301964788071     1.007825032070
           C          0.655253735588    -0.391794787265    -0.123805211929    12.000000000000
           H          2.071128735588     0.902963212735    -1.071875211929     1.007825032070
           H          1.649169735588     1.383582212735     0.551893788071     1.007825032070
           C         -0.666991264412     0.366661212735    -0.067010211929    12.000000000000
           H          0.705121735588    -0.987176787265    -1.029586211929     1.007825032070
           H          0.704432735588    -1.092171787265     0.707781788071     1.007825032070
           C         -1.889582264412    -0.545560787265    -0.115229211929    12.000000000000
           H         -0.714172264412     1.069486212735    -0.895723211929     1.007825032070
           H         -0.704350264412     0.964854212735     0.840536788071     1.007825032070
           C         -3.209389264412     0.216824212735    -0.064702211929    12.000000000000
           H         -1.853912264412    -1.144426787265    -1.020977211929     1.007825032070
           H         -1.846824264412    -1.246410787265     0.714078788071     1.007825032070
           H         -3.297974264412     0.901819212735    -0.901466211929     1.007825032070
           H         -4.055714264412    -0.459514787265    -0.100827211929     1.007825032070
           H         -3.290561264412     0.799344212735     0.847118788071     1.007825032070

  Nuclear repulsion =  246.261874018764672

  ==> Basis Set <==

  Basis Set: CC-PVTZ
    Number of shells: 138
    Number of basis function: 362
    Number of Cartesian functions: 405
    Spherical Harmonics?: true
    Max angular momentum: 3

  ==> DFJKGrad: Density-Fitted SCF Gradients <==

    Gradient:                    1
    J tasked:                  Yes
    K tasked:                  Yes
    wK tasked:                  No
    OpenMP threads:              4
    Integrals threads:           4
    Memory (MB):              1430
    Schwarz Cutoff:          0E+00
    Fitting Condition:       1E-12

   => Auxiliary Basis Set <=

  Basis Set: 
    Number of shells: 280
    Number of basis function: 864
    Number of Cartesian functions: 1031
    Spherical Harmonics?: true
    Max angular momentum: 4


  -Total Gradient:
     Atom            X                  Y                   Z
    ------   -----------------  -----------------  -----------------
       1       -0.000231893665     0.000113002148     0.000275116470
       2       -0.000747066474    -0.000036764329     0.001515000055
       3       -0.001589763148    -0.001813202470    -0.001264334780
       4        0.000272318701    -0.000204905831     0.000203393649
       5        0.001436714027     0.001360638855    -0.000941971496
       6        0.000117852426    -0.001107224803    -0.000723610645
       7       -0.000997074250     0.000478606790    -0.000630617219
       8        0.000632324709     0.000792052805     0.001830296783
       9        0.000762104017     0.001754472299    -0.001144630487
      10        0.000500525757    -0.001035793220     0.000284466852
      11        0.000009815175    -0.000160003965     0.000461863192
      12        0.000230310317    -0.000521660419     0.000070869699
      13       -0.000423990764     0.000332945710     0.000097504218
      14        0.000003661012     0.000021363744     0.000014453378
      15        0.000110244042     0.000042327358    -0.000009478612
      16       -0.000103273023    -0.000014173245    -0.000001829934
      17       -0.000005961331     0.000004905709    -0.000000509905
      18        0.000020819220     0.000001239390    -0.000023541842
      19        0.000002333255    -0.000007826525    -0.000012439376


*** tstop() called on cx1-28-12-4 at Sat Sep 10 15:53:11 2016
Module time:
	user time   =      34.51 seconds =       0.58 minutes
	system time =       0.68 seconds =       0.01 minutes
	total time  =          9 seconds =       0.15 minutes
Total time:
	user time   =      66.42 seconds =       1.11 minutes
	system time =       1.56 seconds =       0.03 minutes
	total time  =         18 seconds =       0.30 minutes

			-----------------------------------------
			 OPTKING 2.0: for geometry optimizations 
			  - R.A. King,  Bethel University        
			-----------------------------------------

	Internal coordinates to be generated automatically.
	Detected frag 1 with atoms:  1 2 3 4 5 6 7 8 9 10 11 12 13 14 15 16 17 18 19
	---Fragment 1 Bond Connectivity---
	 1 : 2
	 2 : 1 3 4
	 3 : 2 5 6 7
	 4 : 2
	 5 : 3 8 9 10
	 6 : 3
	 7 : 3
	 8 : 5 11 12 13
	 9 : 5
	 10 : 5
	 11 : 8 14 15 16
	 12 : 8
	 13 : 8
	 14 : 11 17 18 19
	 15 : 11
	 16 : 11
	 17 : 14
	 18 : 14
	 19 : 14

	Assuming in current code that numbering for constraints corresponds to unified fragment.
	Frozen dihedral atom list: 
	     6     3     5     9
	---Fragment 1 Geometry and Gradient---
	 H           7.2976059303        0.7022698761        0.6479848008
	 N           5.7655539318       -0.3962865064        0.6853787015
	 C           3.5377595732        0.9830699514       -0.1445361038
	 H           5.5592204045       -1.0033043348        2.4603568841
	 C           1.2382501078       -0.7403848482       -0.2339579444
	 H           3.9138660962        1.7063531801       -2.0255505992
	 H           3.1164791469        2.6145914644        1.0429281139
	 C          -1.2604308228        0.6928892756       -0.1266309487
	 H           1.3324869706       -1.8654937727       -1.9456359707
	 H           1.3311849493       -2.0639055680        1.3375137413
	 C          -3.5707929853       -1.0309604768       -0.2177516531
	 H          -1.3495899914        2.0210360450       -1.6926715614
	 H          -1.3310291014        1.8233102202        1.5883843341
	 C          -6.0648667636        0.4097383810       -0.1222694607
	 H          -3.5033864541       -2.1626532071       -1.9293673185
	 H          -3.4899920753       -2.3553750370        1.3494133468
	 H          -6.2322681530        1.7041913334       -1.7035242586
	 H          -7.6641892330       -0.8683571019       -0.1905358173
	 H          -6.2182596132        1.5105416480        1.6008225115
	            -0.0002318937        0.0001130021        0.0002751165
	            -0.0007470665       -0.0000367643        0.0015150001
	            -0.0015897631       -0.0018132025       -0.0012643348
	             0.0002723187       -0.0002049058        0.0002033936
	             0.0014367140        0.0013606389       -0.0009419715
	             0.0001178524       -0.0011072248       -0.0007236106
	            -0.0009970742        0.0004786068       -0.0006306172
	             0.0006323247        0.0007920528        0.0018302968
	             0.0007621040        0.0017544723       -0.0011446305
	             0.0005005258       -0.0010357932        0.0002844669
	             0.0000098152       -0.0001600040        0.0004618632
	             0.0002303103       -0.0005216604        0.0000708697
	            -0.0004239908        0.0003329457        0.0000975042
	             0.0000036610        0.0000213637        0.0000144534
	             0.0001102440        0.0000423274       -0.0000094786
	            -0.0001032730       -0.0000141732       -0.0000018299
	            -0.0000059613        0.0000049057       -0.0000005099
	             0.0000208192        0.0000012394       -0.0000235418
	             0.0000023333       -0.0000078265       -0.0000124394

	Previous optimization step data not found.  Starting new optimization.

	---Fragment 1 Intrafragment Coordinates---
	 - Coordinate -           - BOHR/RAD -       - ANG/DEG -
	 R(1,2)           =         1.885579	       0.997805
	 R(2,3)           =         2.748536	       1.454463
	 R(2,4)           =         1.887218	       0.998673
	 R(3,5)           =         2.875072	       1.521422
	 R(3,6)           =         2.050076	       1.084853
	 R(3,7)           =         2.061410	       1.090851
	 R(5,8)           =         2.882568	       1.525389
	 R(5,9)           =         2.050510	       1.085083
	 R(5,10)          =         2.056664	       1.088340
	 R(8,11)          =         2.884048	       1.526173
	 R(8,12)          =         2.055336	       1.087637
	 R(8,13)          =         2.055265	       1.087599
	 R(11,14)         =         2.881863	       1.525016
	 R(11,15)         =         2.053022	       1.086413
	 R(11,16)         =         2.053438	       1.086633
	 R(14,17)         =         2.050365	       1.085007
	 R(14,18)         =         2.048419	       1.083977
	 R(14,19)         =         2.050449	       1.085051
	 B(1,2,3)         =         1.939278	     111.112436
	 B(1,2,4)         =         1.870126	     107.150348
	 B(2,3,5)         =         1.935673	     110.905896
	 B(2,3,6)         =         1.881158	     107.782441
	 B(2,3,7)         =         1.970239	     112.886390
	 B(3,2,4)         =         1.935627	     110.903252
	 B(3,5,8)         =         1.975861	     113.208506
	 B(3,5,9)         =         1.894543	     108.549311
	 B(3,5,10)        =         1.902712	     109.017390
	 B(5,3,6)         =         1.906767	     109.249674
	 B(5,3,7)         =         1.905936	     109.202111
	 B(5,8,11)        =         1.977979	     113.329830
	 B(5,8,12)        =         1.907666	     109.301222
	 B(5,8,13)        =         1.911682	     109.531336
	 B(6,3,7)         =         1.861682	     106.666494
	 B(8,5,9)         =         1.921695	     110.105005
	 B(8,5,10)        =         1.907837	     109.311008
	 B(8,11,14)       =         1.975156	     113.168080
	 B(8,11,15)       =         1.906592	     109.239700
	 B(8,11,16)       =         1.906971	     109.261398
	 B(9,5,10)        =         1.857351	     106.418373
	 B(11,8,12)       =         1.904367	     109.112183
	 B(11,8,13)       =         1.904558	     109.123153
	 B(11,14,17)      =         1.939836	     111.144402
	 B(11,14,18)      =         1.941932	     111.264499
	 B(11,14,19)      =         1.940106	     111.159890
	 B(12,8,13)       =         1.853439	     106.194255
	 B(14,11,15)      =         1.908805	     109.366464
	 B(14,11,16)      =         1.908375	     109.341813
	 B(15,11,16)      =         1.854021	     106.227590
	 B(17,14,18)      =         1.880174	     107.726035
	 B(17,14,19)      =         1.878677	     107.640275
	 B(18,14,19)      =         1.880280	     107.732117
	 D(1,2,3,5)       =         3.082657	     176.623217
	 D(1,2,3,6)       =         0.996168	      57.076202
	 D(1,2,3,7)       =        -1.055235	     -60.460535
	 D(2,3,5,8)       =         2.770925	     158.762321
	 D(2,3,5,9)       =        -1.372952	     -78.664328
	 D(2,3,5,10)      =         0.643449	      36.866902
	 D(3,5,8,11)      =         3.140931	     179.962092
	 D(3,5,8,12)      =         1.012888	      58.034209
	 D(3,5,8,13)      =        -1.011037	     -57.928138
	 D(4,2,3,5)       =        -1.122412	     -64.309460
	 D(4,2,3,6)       =         3.074284	     176.143525
	 D(4,2,3,7)       =         1.022881	      58.606788
	 D(5,8,11,14)     =        -3.136969	    -179.735059
	 D(5,8,11,15)     =        -1.005929	     -57.635481
	 D(5,8,11,16)     =         1.015455	      58.181279
	 D(6,3,5,8)       =        -1.441177	     -82.573336
	*D(6,3,5,9)       =         0.698132	      40.000015
	 D(6,3,5,10)      =         2.714532	     155.531245
	 D(7,3,5,8)       =         0.588901	      33.741521
	 D(7,3,5,9)       =         2.728209	     156.314871
	 D(7,3,5,10)      =        -1.538576	     -88.153898
	 D(8,11,14,17)    =         1.046154	      59.940184
	 D(8,11,14,18)    =         3.141482	     179.993666
	 D(8,11,14,19)    =        -1.046058	     -59.934718
	 D(9,5,8,11)      =         1.016781	      58.257262
	 D(9,5,8,12)      =        -1.111262	     -63.670621
	 D(9,5,8,13)      =        -3.135187	    -179.632968
	 D(10,5,8,11)     =        -1.017649	     -58.306983
	 D(10,5,8,12)     =         3.137493	     179.765134
	 D(10,5,8,13)     =         1.113569	      63.802787
	 D(12,8,11,14)    =        -1.007085	     -57.701707
	 D(12,8,11,15)    =         1.123955	      64.397871
	 D(12,8,11,16)    =        -3.137847	    -179.785369
	 D(13,8,11,14)    =         1.011035	      57.928039
	 D(13,8,11,15)    =        -3.141111	    -179.972383
	 D(13,8,11,16)    =        -1.119727	     -64.155624
	 D(15,11,14,17)   =        -1.083649	     -62.088516
	 D(15,11,14,18)   =         1.011680	      57.964966
	 D(15,11,14,19)   =         3.107325	     178.036582
	 D(16,11,14,17)   =        -3.107055	    -178.021117
	 D(16,11,14,18)   =        -1.011726	     -57.967636
	 D(16,11,14,19)   =         1.083919	      62.103980

	Current energy   :      -251.4462196650

	Generating empirical Hessian (Schlegel '84) for each fragment.
	Taking RFO optimization step.
	Going to follow RFO solution 1.
	Using RFO vector 1.
	Norm of target step-size    0.25740
	Projected energy change by RFO approximation:        -0.0015586658

	Back-transformation to cartesian coordinates...
	Could not converge backtransformation.
	Using first guess instead.

	Back-transformation to cartesian coordinates to adjust frozen coordinates...
	Successfully converged to displaced geometry.

	--- Internal Coordinate Step in ANG or DEG, aJ/ANG or AJ/DEG ---
	 ---------------------------------------------------------------------------
	   Coordinate                Previous        Force       Change         New 
	   ----------                --------       ------       ------       ------
	    1 R(1,2)          =      0.997805     0.001055     0.002206     1.000011
	    2 R(2,3)          =      1.454463    -0.000772     0.001540     1.456002
	    3 R(2,4)          =      0.998673    -0.001874     0.001559     1.000232
	    4 R(3,5)          =      1.521422     0.033780     0.008068     1.529490
	    5 R(3,6)          =      1.084853    -0.002430     0.000213     1.085066
	    6 R(3,7)          =      1.090851    -0.001807     0.000402     1.091253
	    7 R(5,8)          =      1.525389     0.000645     0.000484     1.525873
	    8 R(5,9)          =      1.085083    -0.000229     0.000649     1.085732
	    9 R(5,10)         =      1.088340    -0.007469    -0.000717     1.087623
	   10 R(8,11)         =      1.526173    -0.000192     0.000874     1.527047
	   11 R(8,12)         =      1.087637     0.003304     0.001059     1.088696
	   12 R(8,13)         =      1.087599    -0.002299    -0.000017     1.087582
	   13 R(11,14)        =      1.525016     0.000074     0.000085     1.525101
	   14 R(11,15)        =      1.086413     0.000097     0.000480     1.086892
	   15 R(11,16)        =      1.086633    -0.000030     0.000476     1.087109
	   16 R(14,17)        =      1.085007    -0.000033     0.000421     1.085428
	   17 R(14,18)        =      1.083977     0.000134     0.000564     1.084540
	   18 R(14,19)        =      1.085051     0.000122     0.000434     1.085485
	   19 B(1,2,3)        =    111.112436     0.000025     0.257457   111.369892
	   20 B(1,2,4)        =    107.150348     0.000014     0.091951   107.242298
	   21 B(2,3,5)        =    110.905896     0.000020    -0.142979   110.762917
	   22 B(2,3,6)        =    107.782441    -0.000078    -1.763889   106.018551
	   23 B(2,3,7)        =    112.886390    -0.000007     0.074694   112.961083
	   24 B(3,2,4)        =    110.903252    -0.000040    -0.197849   110.705403
	   25 B(3,5,8)        =    113.208506     0.000033    -0.164450   113.044056
	   26 B(3,5,9)        =    108.549311     0.000079     0.413041   108.962352
	   27 B(3,5,10)       =    109.017390    -0.000017     0.643003   109.660393
	   28 B(5,3,6)        =    109.249674     0.000028    -0.016143   109.233531
	   29 B(5,3,7)        =    109.202111     0.000038     0.938545   110.140656
	   30 B(5,8,11)       =    113.329830     0.000017     0.099763   113.429592
	   31 B(5,8,12)       =    109.301222     0.000023     0.190452   109.491674
	   32 B(5,8,13)       =    109.531336    -0.000042    -0.339116   109.192221
	   33 B(6,3,7)        =    106.666494    -0.000002     0.869870   107.536364
	   34 B(8,5,9)        =    110.105005    -0.000112    -1.776581   108.328424
	   35 B(8,5,10)       =    109.311008     0.000026     0.299191   109.610198
	   36 B(8,11,14)      =    113.168080     0.000002     0.013346   113.181426
	   37 B(8,11,15)      =    109.239700     0.000008     0.088576   109.328276
	   38 B(8,11,16)      =    109.261398    -0.000009    -0.072699   109.188699
	   39 B(9,5,10)       =    106.418373    -0.000010     0.629369   107.047742
	   40 B(11,8,12)      =    109.112183    -0.000024    -0.047517   109.064666
	   41 B(11,8,13)      =    109.123153     0.000024     0.112502   109.235655
	   42 B(11,14,17)     =    111.144402    -0.000001    -0.017452   111.126951
	   43 B(11,14,18)     =    111.264499     0.000002     0.014650   111.279149
	   44 B(11,14,19)     =    111.159890    -0.000000    -0.019902   111.139988
	   45 B(12,8,13)      =    106.194255     0.000000    -0.023369   106.170886
	   46 B(14,11,15)     =    109.366464    -0.000005    -0.019695   109.346768
	   47 B(14,11,16)     =    109.341813     0.000004    -0.017886   109.323927
	   48 B(15,11,16)     =    106.227590    -0.000000     0.008047   106.235637
	   49 B(17,14,18)     =    107.726035     0.000000     0.009501   107.735536
	   50 B(17,14,19)     =    107.640275     0.000000     0.017899   107.658173
	   51 B(18,14,19)     =    107.732117    -0.000001    -0.003328   107.728789
	   52 D(1,2,3,5)      =    176.623217    -0.000007    -1.975155   174.648062
	   53 D(1,2,3,6)      =     57.076202    -0.000007    -0.811949    56.264252
	   54 D(1,2,3,7)      =    -60.460535     0.000006    -0.797404   -61.257938
	   55 D(2,3,5,8)      =    158.762321     0.000030     4.327512   163.089833
	   56 D(2,3,5,9)      =    -78.664328     0.000015     2.251597   -76.412731
	   57 D(2,3,5,10)     =     36.866902     0.000020     3.588408    40.455311
	   58 D(3,5,8,11)     =    179.962092    -0.000002    -4.288474   175.673618
	   59 D(3,5,8,12)     =     58.034209    -0.000001    -4.434678    53.599531
	   60 D(3,5,8,13)     =    -57.928138     0.000001    -4.322994   -62.251132
	   61 D(4,2,3,5)      =    -64.309460    -0.000006    -1.821891   -66.131351
	   62 D(4,2,3,6)      =    176.143525    -0.000005    -0.658686   175.484839
	   63 D(4,2,3,7)      =     58.606788     0.000008    -0.644140    57.962648
	   64 D(5,8,11,14)    =   -179.735059    -0.000004    -0.726550  -180.461609
	   65 D(5,8,11,15)    =    -57.635481    -0.000004    -0.678505   -58.313986
	   66 D(5,8,11,16)    =     58.181279    -0.000004    -0.660087    57.521191
	   67 D(6,3,5,8)      =    -82.573336     0.000015     2.075915   -80.497421
	   68 *D(6,3,5,9)     =     40.000015     0.000000    -0.000000    40.000015
	   69 D(6,3,5,10)     =    155.531245     0.000005     1.336812   156.868057
	   70 D(7,3,5,8)      =     33.741521     0.000023     3.656936    37.398457
	   71 D(7,3,5,9)      =    156.314871     0.000008     1.581021   157.895892
	   72 D(7,3,5,10)     =    -88.153898     0.000013     2.917833   -85.236065
	   73 D(8,11,14,17)   =     59.940184     0.000001     0.187881    60.128065
	   74 D(8,11,14,18)   =    179.993666     0.000001     0.198000   180.191666
	   75 D(8,11,14,19)   =    -59.934718     0.000001     0.190226   -59.744492
	   76 D(9,5,8,11)     =     58.257262    -0.000012    -3.441649    54.815613
	   77 D(9,5,8,12)     =    -63.670621    -0.000011    -3.587853   -67.258473
	   78 D(9,5,8,13)     =   -179.632968    -0.000009    -3.476169  -183.109137
	   79 D(10,5,8,11)    =    -58.306983     0.000002    -3.356927   -61.663910
	   80 D(10,5,8,12)    =    179.765134     0.000003    -3.503130   176.262004
	   81 D(10,5,8,13)    =     63.802787     0.000005    -3.391447    60.411340
	   82 D(12,8,11,14)   =    -57.701707     0.000001    -0.448579   -58.150286
	   83 D(12,8,11,15)   =     64.397871     0.000002    -0.400534    63.997337
	   84 D(12,8,11,16)   =   -179.785369     0.000001    -0.382117  -180.167486
	   85 D(13,8,11,14)   =     57.928039     0.000002    -0.440732    57.487306
	   86 D(13,8,11,15)   =   -179.972383     0.000002    -0.392687  -180.365070
	   87 D(13,8,11,16)   =    -64.155624     0.000001    -0.374270   -64.529893
	   88 D(15,11,14,17)  =    -62.088516    -0.000001     0.079286   -62.009230
	   89 D(15,11,14,18)  =     57.964966    -0.000000     0.089405    58.054371
	   90 D(15,11,14,19)  =    178.036582    -0.000001     0.081631   178.118213
	   91 D(16,11,14,17)  =   -178.021117    -0.000000     0.090721  -177.930396
	   92 D(16,11,14,18)  =    -57.967636    -0.000000     0.100840   -57.866795
	   93 D(16,11,14,19)  =     62.103980    -0.000000     0.093067    62.197047
	 ---------------------------------------------------------------------------
	Successfully symmetrized geometry.

  ==> Convergence Check <==

  Measures of convergence in internal coordinates in au.
  Criteria marked as inactive (o), active & met (*), and active & unmet ( ).
  --------------------------------------------------------------------------------------------- ~
   Step     Total Energy     Delta E     MAX Force     RMS Force      MAX Disp      RMS Disp    ~
  --------------------------------------------------------------------------------------------- ~
    Convergence Criteria    1.00e-06 *    3.00e-04 *             o    1.20e-03 *             o  ~
  --------------------------------------------------------------------------------------------- ~
      1    -251.44621967   -2.51e+02      4.10e-03      6.14e-04 o    7.74e-02      2.67e-02 o  ~
  ---------------------------------------------------------------------------------------------

	Writing optimization data to binary file.
	Structure for next step:
	Cartesian Geometry (in Angstrom)
	    H     3.8868615560   0.3606435625   0.2308392042
	    N     3.0703752554  -0.2107407162   0.3138629630
	    C     1.8693313268   0.5226879360  -0.0596592190
	    H     3.0172032967  -0.5154363790   1.2650714785
	    C     0.6482435873  -0.3983260777  -0.0553034479
	    H     2.0407806848   0.8841977213  -1.0682641397
	    H     1.6867344711   1.3917630719   0.5745335609
	    C    -0.6739660884   0.3628965666  -0.0310080161
	    H     0.6697293426  -1.0169198386  -0.9473203753
	    H     0.6989618056  -1.0692030572   0.7992575331
	    C    -1.8985339860  -0.5437859639  -0.1321642639
	    H    -0.6947269168   1.0811069807  -0.8489332809
	    H    -0.7342692625   0.9455764184   0.8853339847
	    C    -3.2170326962   0.2218467129  -0.0961028150
	    H    -1.8430193161  -1.1221625801  -1.0507140910
	    H    -1.8782617472  -1.2637966173   0.6820714877
	    H    -3.2836909538   0.9251703782  -0.9201449956
	    H    -4.0648396445  -0.4508327908  -0.1664850010
	    H    -3.3176047387   0.7850047142   0.8264024066
			--------------------------
			 OPTKING Finished Execution 
			--------------------------

    Structure for next step:
    Molecular point group: c1
    Full point group: C1

    Geometry (in Angstrom), charge = 0, multiplicity = 1:

    H            3.888179568366     0.360927805088     0.228911775075
    N            3.071693267771    -0.210456473617     0.311935533862
    C            1.870649339241     0.522972178634    -0.061586648156
    H            3.018521309105    -0.515152136395     1.263144049362
    C            0.649561599724    -0.398041835071    -0.057230877089
    H            2.042098697192     0.884481963880    -1.070191568825
    H            1.688052483543     1.392047314533     0.572606131699
    C           -0.672648076031     0.363180809194    -0.032935445295
    H            0.671047355034    -1.016635595985    -0.949247804499
    H            0.700279818041    -1.068918814578     0.797330103976
    C           -1.897215973642    -0.543501721287    -0.134091693036
    H           -0.693408904365     1.081391223331    -0.850860710068
    H           -0.732951250103     0.945860660973     0.883406555518
    C           -3.215714683753     0.222130955516    -0.098030244109
    H           -1.841701303663    -1.121878337474    -1.052641520158
    H           -1.876943734750    -1.263512374670     0.680144058571
    H           -3.282372941386     0.925454620846    -0.922072424720
    H           -4.063521632126    -0.450548548167    -0.168412430147
    H           -3.316286726293     0.785288956809     0.824474977394

gradient() will perform analytic gradient computation.

*** tstart() called on cx1-28-12-4
*** at Sat Sep 10 15:53:13 2016


         ---------------------------------------------------------
                                   SCF
            by Justin Turney, Rob Parrish, and Andy Simmonett
                              RHF Reference
                        4 Threads,   2000 MiB Core
         ---------------------------------------------------------

  ==> Geometry <==

    Molecular point group: c1
    Full point group: C1

    Geometry (in Angstrom), charge = 0, multiplicity = 1:

       Center              X                  Y                   Z               Mass       
    ------------   -----------------  -----------------  -----------------  -----------------
           H          3.888179568366     0.360927805088     0.228911775075     1.007825032070
           N          3.071693267771    -0.210456473617     0.311935533862    14.003074004780
           C          1.870649339241     0.522972178634    -0.061586648156    12.000000000000
           H          3.018521309105    -0.515152136395     1.263144049362     1.007825032070
           C          0.649561599724    -0.398041835071    -0.057230877089    12.000000000000
           H          2.042098697192     0.884481963880    -1.070191568825     1.007825032070
           H          1.688052483543     1.392047314533     0.572606131699     1.007825032070
           C         -0.672648076031     0.363180809194    -0.032935445295    12.000000000000
           H          0.671047355034    -1.016635595985    -0.949247804499     1.007825032070
           H          0.700279818041    -1.068918814578     0.797330103976     1.007825032070
           C         -1.897215973642    -0.543501721287    -0.134091693036    12.000000000000
           H         -0.693408904365     1.081391223331    -0.850860710068     1.007825032070
           H         -0.732951250103     0.945860660973     0.883406555518     1.007825032070
           C         -3.215714683753     0.222130955516    -0.098030244109    12.000000000000
           H         -1.841701303663    -1.121878337474    -1.052641520158     1.007825032070
           H         -1.876943734750    -1.263512374670     0.680144058571     1.007825032070
           H         -3.282372941386     0.925454620846    -0.922072424720     1.007825032070
           H         -4.063521632126    -0.450548548167    -0.168412430147     1.007825032070
           H         -3.316286726293     0.785288956809     0.824474977394     1.007825032070

  Running in c1 symmetry.

  Rotational constants: A =      0.50606  B =      0.03814  C =      0.03698 [cm^-1]
  Rotational constants: A =  15171.24979  B =   1143.45526  C =   1108.64648 [MHz]
  Nuclear repulsion =  245.873960740057299

  Charge       = 0
  Multiplicity = 1
  Electrons    = 50
  Nalpha       = 25
  Nbeta        = 25

  ==> Algorithm <==

  SCF Algorithm Type is DF.
  DIIS enabled.
  MOM disabled.
  Fractional occupation disabled.
  Guess Type is READ.
  Energy threshold   = 1.00e-08
  Density threshold  = 1.00e-08
  Integral threshold = 0.00e+00

  ==> Primary Basis <==

  Basis Set: CC-PVTZ
    Number of shells: 138
    Number of basis function: 362
    Number of Cartesian functions: 405
    Spherical Harmonics?: true
    Max angular momentum: 3

  ==> Pre-Iterations <==

   -------------------------------------------------------
    Irrep   Nso     Nmo     Nalpha   Nbeta   Ndocc  Nsocc
   -------------------------------------------------------
     A        362     362       0       0       0       0
   -------------------------------------------------------
    Total     362     362      25      25      25       0
   -------------------------------------------------------

  ==> Integral Setup <==

  ==> DFJK: Density-Fitted J/K Matrices <==

    J tasked:                  Yes
    K tasked:                  Yes
    wK tasked:                  No
    OpenMP threads:              4
    Integrals threads:           4
    Memory (MB):              1430
    Algorithm:                Core
    Integral Cache:           NONE
    Schwarz Cutoff:          1E-12
    Fitting Condition:       1E-12

   => Auxiliary Basis Set <=

  Basis Set: 
    Number of shells: 280
    Number of basis function: 864
    Number of Cartesian functions: 1031
    Spherical Harmonics?: true
    Max angular momentum: 4

  Minimum eigenvalue in the overlap matrix is 3.4691906254E-04.
  Using Symmetric Orthogonalization.
  SCF Guess: Reading in previously saved MOs, projecting if necessary.

  Using orbitals from previous SCF, no projection.
  Recomputing DOCC and SOCC from number of alpha and beta electrons from previous calculation.
              A 
    DOCC [    25 ]

  ==> Iterations <==

                           Total Energy        Delta E     RMS |[F,P]|

   @DF-RHF iter   0:  -251.43114584287994   -2.51431e+02   2.61509e-04 
   @DF-RHF iter   1:  -251.44610399715546   -1.49582e-02   5.19933e-05 
   @DF-RHF iter   2:  -251.44638147479932   -2.77478e-04   2.01606e-05 DIIS
   @DF-RHF iter   3:  -251.44641927844734   -3.78036e-05   9.47788e-06 DIIS
   @DF-RHF iter   4:  -251.44642753095061   -8.25250e-06   1.28262e-06 DIIS
   @DF-RHF iter   5:  -251.44642783579494   -3.04844e-07   4.58316e-07 DIIS
   @DF-RHF iter   6:  -251.44642787374951   -3.79546e-08   1.56636e-07 DIIS
   @DF-RHF iter   7:  -251.44642787809371   -4.34420e-09   3.83940e-08 DIIS
   @DF-RHF iter   8:  -251.44642787839453   -3.00815e-10   9.20996e-09 DIIS

  ==> Post-Iterations <==

    Orbital Energies (a.u.)
    -----------------------

    Doubly Occupied:                                                      

       1A    -15.526517     2A    -11.238819     3A    -11.212126  
       4A    -11.210467     5A    -11.208536     6A    -11.205783  
       7A     -1.176904     8A     -1.073898     9A     -0.998562  
      10A     -0.900102    11A     -0.813818    12A     -0.788816  
      13A     -0.668462    14A     -0.638877    15A     -0.619371  
      16A     -0.585297    17A     -0.568927    18A     -0.549479  
      19A     -0.527498    20A     -0.501876    21A     -0.481444  
      22A     -0.464793    23A     -0.461418    24A     -0.448977  
      25A     -0.383494  

    Virtual:                                                              

      26A      0.141748    27A      0.149305    28A      0.166976  
      29A      0.171374    30A      0.178429    31A      0.202268  
      32A      0.217760    33A      0.221446    34A      0.230523  
      35A      0.249421    36A      0.259462    37A      0.267633  
      38A      0.272435    39A      0.319288    40A      0.333950  
      41A      0.351414    42A      0.362748    43A      0.379405  
      44A      0.404198    45A      0.423532    46A      0.444759  
      47A      0.453065    48A      0.464356    49A      0.497745  
      50A      0.511803    51A      0.518847    52A      0.526068  
      53A      0.539789    54A      0.569355    55A      0.577584  
      56A      0.602618    57A      0.608156    58A      0.624112  
      59A      0.628721    60A      0.639392    61A      0.648554  
      62A      0.654607    63A      0.662359    64A      0.666936  
      65A      0.674070    66A      0.675624    67A      0.691242  
      68A      0.702337    69A      0.705201    70A      0.719834  
      71A      0.724240    72A      0.743641    73A      0.746601  
      74A      0.773117    75A      0.800910    76A      0.840332  
      77A      0.853788    78A      0.879984    79A      0.897841  
      80A      0.915465    81A      0.945547    82A      0.958985  
      83A      0.969301    84A      0.995327    85A      1.017387  
      86A      1.025296    87A      1.031413    88A      1.048697  
      89A      1.080288    90A      1.092902    91A      1.121767  
      92A      1.138340    93A      1.168229    94A      1.182783  
      95A      1.206036    96A      1.218837    97A      1.243739  
      98A      1.244402    99A      1.267622   100A      1.274488  
     101A      1.284479   102A      1.292231   103A      1.312560  
     104A      1.315407   105A      1.336865   106A      1.346038  
     107A      1.352437   108A      1.380708   109A      1.387969  
     110A      1.397894   111A      1.410995   112A      1.413324  
     113A      1.419687   114A      1.455947   115A      1.464993  
     116A      1.471353   117A      1.483283   118A      1.495917  
     119A      1.514701   120A      1.524233   121A      1.536225  
     122A      1.565252   123A      1.568594   124A      1.580495  
     125A      1.598180   126A      1.609899   127A      1.620693  
     128A      1.629537   129A      1.661081   130A      1.661673  
     131A      1.699863   132A      1.709871   133A      1.729310  
     134A      1.747650   135A      1.766977   136A      1.783122  
     137A      1.806593   138A      1.814550   139A      1.826419  
     140A      1.842733   141A      1.863545   142A      1.874288  
     143A      1.911909   144A      1.943168   145A      1.963980  
     146A      2.008598   147A      2.041832   148A      2.096509  
     149A      2.113936   150A      2.515478   151A      2.571525  
     152A      2.600910   153A      2.648590   154A      2.666067  
     155A      2.672310   156A      2.703203   157A      2.707155  
     158A      2.728604   159A      2.745691   160A      2.774755  
     161A      2.800596   162A      2.815059   163A      2.831269  
     164A      2.843177   165A      2.862760   166A      2.884553  
     167A      2.900193   168A      2.905336   169A      2.933678  
     170A      2.948413   171A      2.980196   172A      3.018116  
     173A      3.035136   174A      3.044389   175A      3.049907  
     176A      3.065649   177A      3.092612   178A      3.123673  
     179A      3.128748   180A      3.141474   181A      3.149542  
     182A      3.187057   183A      3.200734   184A      3.229561  
     185A      3.239657   186A      3.271838   187A      3.278398  
     188A      3.296749   189A      3.328421   190A      3.333031  
     191A      3.343715   192A      3.359286   193A      3.376865  
     194A      3.384067   195A      3.395778   196A      3.405364  
     197A      3.421336   198A      3.430501   199A      3.435983  
     200A      3.443555   201A      3.454116   202A      3.459489  
     203A      3.468450   204A      3.493788   205A      3.512777  
     206A      3.524521   207A      3.541065   208A      3.557046  
     209A      3.560949   210A      3.572512   211A      3.576775  
     212A      3.593147   213A      3.611907   214A      3.623289  
     215A      3.646036   216A      3.652807   217A      3.682597  
     218A      3.703806   219A      3.732160   220A      3.760375  
     221A      3.768577   222A      3.776453   223A      3.793953  
     224A      3.807555   225A      3.836809   226A      3.846882  
     227A      3.858351   228A      3.869616   229A      3.879822  
     230A      3.903432   231A      3.910954   232A      3.913869  
     233A      3.935514   234A      3.944779   235A      3.955789  
     236A      3.973764   237A      4.008701   238A      4.024583  
     239A      4.047678   240A      4.067690   241A      4.089064  
     242A      4.107665   243A      4.109679   244A      4.127113  
     245A      4.134985   246A      4.151924   247A      4.161885  
     248A      4.173370   249A      4.180911   250A      4.201272  
     251A      4.202155   252A      4.223938   253A      4.236719  
     254A      4.251230   255A      4.266299   256A      4.284132  
     257A      4.305221   258A      4.308307   259A      4.328969  
     260A      4.335212   261A      4.351558   262A      4.363295  
     263A      4.371010   264A      4.385980   265A      4.398291  
     266A      4.412301   267A      4.436425   268A      4.448785  
     269A      4.449988   270A      4.475350   271A      4.481279  
     272A      4.506943   273A      4.529394   274A      4.544023  
     275A      4.550953   276A      4.564311   277A      4.585721  
     278A      4.597940   279A      4.616309   280A      4.630432  
     281A      4.651985   282A      4.658510   283A      4.665692  
     284A      4.686898   285A      4.703528   286A      4.712947  
     287A      4.732989   288A      4.760644   289A      4.782558  
     290A      4.786333   291A      4.811925   292A      4.847307  
     293A      4.857851   294A      4.911346   295A      4.958350  
     296A      5.005606   297A      5.030171   298A      5.048742  
     299A      5.060672   300A      5.075231   301A      5.098739  
     302A      5.126174   303A      5.181848   304A      5.195204  
     305A      5.231246   306A      5.243757   307A      5.260687  
     308A      5.277248   309A      5.288620   310A      5.301611  
     311A      5.309296   312A      5.341699   313A      5.356132  
     314A      5.396167   315A      5.405834   316A      5.416973  
     317A      5.465080   318A      5.476702   319A      5.510753  
     320A      5.529999   321A      5.575252   322A      5.610367  
     323A      5.618650   324A      5.635481   325A      5.654943  
     326A      5.674775   327A      5.743394   328A      5.750724  
     329A      5.765710   330A      5.778906   331A      5.807423  
     332A      5.833003   333A      5.883011   334A      5.901157  
     335A      5.909448   336A      5.926869   337A      5.941499  
     338A      5.954815   339A      5.972524   340A      6.009247  
     341A      6.031947   342A      6.069097   343A      6.078951  
     344A      6.141334   345A      6.256910   346A      6.289847  
     347A      6.327678   348A      6.333108   349A      6.360084  
     350A      6.379380   351A      6.424746   352A      6.469891  
     353A      6.505510   354A      6.607577   355A      6.717649  
     356A      7.376079   357A     12.884377   358A     13.374601  
     359A     13.495036   360A     13.748651   361A     14.094062  
     362A     14.251876  

    Final Occupation by Irrep:
              A 
    DOCC [    25 ]

  Energy converged.

  @DF-RHF Final Energy:  -251.44642787839453

   => Energetics <=

    Nuclear Repulsion Energy =            245.8739607400572993
    One-Electron Energy =                -826.1322621641661499
    Two-Electron Energy =                 328.8118735457142066
    DFT Exchange-Correlation Energy =       0.0000000000000000
    Empirical Dispersion Energy =           0.0000000000000000
    PCM Polarization Energy =               0.0000000000000000
    EFP Energy =                            0.0000000000000000
    Total Energy =                       -251.4464278783946156


  Saving occupied orbitals to File 180.

*** tstop() called on cx1-28-12-4 at Sat Sep 10 15:53:20 2016
Module time:
	user time   =      23.03 seconds =       0.38 minutes
	system time =       0.46 seconds =       0.01 minutes
	total time  =          7 seconds =       0.12 minutes
Total time:
	user time   =      91.54 seconds =       1.53 minutes
	system time =       2.10 seconds =       0.04 minutes
	total time  =         27 seconds =       0.45 minutes


Properties will be evaluated at   0.000000,   0.000000,   0.000000 Bohr

Properties computed using the SCF density matrix

  Nuclear Dipole Moment: (a.u.)
     X:    -3.5704      Y:     0.8807      Z:     0.2209

  Electronic Dipole Moment: (a.u.)
     X:     3.5602      Y:    -0.5152      Z:     0.0746

  Dipole Moment: (a.u.)
     X:    -0.0102      Y:     0.3655      Z:     0.2955     Total:     0.4701

  Dipole Moment: (Debye)
     X:    -0.0258      Y:     0.9291      Z:     0.7511     Total:     1.1950


*** tstart() called on cx1-28-12-4
*** at Sat Sep 10 15:53:20 2016


         ------------------------------------------------------------
                                   SCF GRAD                          
                          Rob Parrish, Justin Turney,                
                       Andy Simmonett, and Alex Sokolov              
         ------------------------------------------------------------

  ==> Geometry <==

    Molecular point group: c1
    Full point group: C1

    Geometry (in Angstrom), charge = 0, multiplicity = 1:

       Center              X                  Y                   Z               Mass       
    ------------   -----------------  -----------------  -----------------  -----------------
           H          3.888179568366     0.360927805088     0.228911775075     1.007825032070
           N          3.071693267771    -0.210456473617     0.311935533862    14.003074004780
           C          1.870649339241     0.522972178634    -0.061586648156    12.000000000000
           H          3.018521309105    -0.515152136395     1.263144049362     1.007825032070
           C          0.649561599724    -0.398041835071    -0.057230877089    12.000000000000
           H          2.042098697192     0.884481963880    -1.070191568825     1.007825032070
           H          1.688052483543     1.392047314533     0.572606131699     1.007825032070
           C         -0.672648076031     0.363180809194    -0.032935445295    12.000000000000
           H          0.671047355034    -1.016635595985    -0.949247804499     1.007825032070
           H          0.700279818041    -1.068918814578     0.797330103976     1.007825032070
           C         -1.897215973642    -0.543501721287    -0.134091693036    12.000000000000
           H         -0.693408904365     1.081391223331    -0.850860710068     1.007825032070
           H         -0.732951250103     0.945860660973     0.883406555518     1.007825032070
           C         -3.215714683753     0.222130955516    -0.098030244109    12.000000000000
           H         -1.841701303663    -1.121878337474    -1.052641520158     1.007825032070
           H         -1.876943734750    -1.263512374670     0.680144058571     1.007825032070
           H         -3.282372941386     0.925454620846    -0.922072424720     1.007825032070
           H         -4.063521632126    -0.450548548167    -0.168412430147     1.007825032070
           H         -3.316286726293     0.785288956809     0.824474977394     1.007825032070

  Nuclear repulsion =  245.873960740057299

  ==> Basis Set <==

  Basis Set: CC-PVTZ
    Number of shells: 138
    Number of basis function: 362
    Number of Cartesian functions: 405
    Spherical Harmonics?: true
    Max angular momentum: 3

  ==> DFJKGrad: Density-Fitted SCF Gradients <==

    Gradient:                    1
    J tasked:                  Yes
    K tasked:                  Yes
    wK tasked:                  No
    OpenMP threads:              4
    Integrals threads:           4
    Memory (MB):              1430
    Schwarz Cutoff:          0E+00
    Fitting Condition:       1E-12

   => Auxiliary Basis Set <=

  Basis Set: 
    Number of shells: 280
    Number of basis function: 864
    Number of Cartesian functions: 1031
    Spherical Harmonics?: true
    Max angular momentum: 4


  -Total Gradient:
     Atom            X                  Y                   Z
    ------   -----------------  -----------------  -----------------
       1        0.001978967202     0.000852663903    -0.000150540290
       2       -0.000616140844     0.000370139909    -0.002729834053
       3       -0.003326146927     0.004059080468     0.002189090161
       4       -0.000744573021    -0.000293941610     0.001385274200
       5        0.001668124235    -0.003347472722     0.003113129074
       6        0.003534472673    -0.003243115234    -0.001030484859
       7        0.000386104389     0.001236928396     0.000210865564
       8        0.000531330673    -0.000765951628    -0.000662257790
       9       -0.002972675177     0.002288273011    -0.002275731525
      10       -0.000111247552    -0.000908844341     0.000388468303
      11       -0.000466939382     0.000032277553    -0.000353972938
      12       -0.000225500449     0.000355796277    -0.000252346852
      13        0.000564643530    -0.000281569081     0.000191373690
      14        0.000175440934    -0.000131112584    -0.000049826999
      15       -0.000099131852    -0.000223371550    -0.000282850654
      16        0.000017998184    -0.000080758500     0.000254701054
      17        0.000009286141     0.000154255637    -0.000241194345
      18       -0.000311885109    -0.000221389632     0.000003004609
      19        0.000007872349     0.000148111732     0.000293133649


*** tstop() called on cx1-28-12-4 at Sat Sep 10 15:53:29 2016
Module time:
	user time   =      32.16 seconds =       0.54 minutes
	system time =       0.68 seconds =       0.01 minutes
	total time  =          9 seconds =       0.15 minutes
Total time:
	user time   =     123.79 seconds =       2.06 minutes
	system time =       2.78 seconds =       0.05 minutes
	total time  =         36 seconds =       0.60 minutes

			-----------------------------------------
			 OPTKING 2.0: for geometry optimizations 
			  - R.A. King,  Bethel University        
			-----------------------------------------

	Previous internal coordinate definitions found.
	---Fragment 1 Geometry and Gradient---
	 H           7.3475945397        0.6820547054        0.4325805635
	 N           5.8046590403       -0.3977050980        0.5894727301
	 C           3.5350149418        0.9882741927       -0.1163818985
	 H           5.7041786005       -0.9734964546        2.3869963197
	 C           1.2274935299       -0.7521900577       -0.1081506840
	 H           3.8590072740        1.6714286812       -2.0223689748
	 H           3.1899568918        2.6305881885        1.0820687709
	 C          -1.2711206475        0.6863122661       -0.0622389717
	 H           1.2680957232       -1.9211628534       -1.7938183827
	 H           1.3233370725       -2.0199638178        1.5067355340
	 C          -3.5852186051       -1.0270694060       -0.2533965765
	 H          -1.3103529274        2.0435332546       -1.6078937193
	 H          -1.3850771315        1.7874176091        1.6693964539
	 C          -6.0768200738        0.4197666716       -0.1852503141
	 H          -3.4803110825       -2.1200428122       -1.9892041892
	 H          -3.5469096255       -2.3876923536        1.2852860016
	 H          -6.2027859252        1.7488557818       -1.7424643574
	 H          -7.6789430198       -0.8514133656       -0.3182533704
	 H          -6.2668736908        1.4839810635        1.5580319107
	             0.0019789672        0.0008526639       -0.0001505403
	            -0.0006161408        0.0003701399       -0.0027298341
	            -0.0033261469        0.0040590805        0.0021890902
	            -0.0007445730       -0.0002939416        0.0013852742
	             0.0016681242       -0.0033474727        0.0031131291
	             0.0035344727       -0.0032431152       -0.0010304849
	             0.0003861044        0.0012369284        0.0002108656
	             0.0005313307       -0.0007659516       -0.0006622578
	            -0.0029726752        0.0022882730       -0.0022757315
	            -0.0001112476       -0.0009088443        0.0003884683
	            -0.0004669394        0.0000322776       -0.0003539729
	            -0.0002255004        0.0003557963       -0.0002523469
	             0.0005646435       -0.0002815691        0.0001913737
	             0.0001754409       -0.0001311126       -0.0000498270
	            -0.0000991319       -0.0002233716       -0.0002828507
	             0.0000179982       -0.0000807585        0.0002547011
	             0.0000092861        0.0001542556       -0.0002411943
	            -0.0003118851       -0.0002213896        0.0000030046
	             0.0000078723        0.0001481117        0.0002931336

	---Fragment 1 Intrafragment Coordinates---
	 - Coordinate -           - BOHR/RAD -       - ANG/DEG -
	 R(1,2)           =         1.889748	       1.000011
	 R(2,3)           =         2.751446	       1.456002
	 R(2,4)           =         1.890165	       1.000232
	 R(3,5)           =         2.890318	       1.529490
	 R(3,6)           =         2.050477	       1.085066
	 R(3,7)           =         2.062170	       1.091253
	 R(5,8)           =         2.883482	       1.525873
	 R(5,9)           =         2.051736	       1.085732
	 R(5,10)          =         2.055309	       1.087623
	 R(8,11)          =         2.885700	       1.527047
	 R(8,12)          =         2.057337	       1.088696
	 R(8,13)          =         2.055232	       1.087582
	 R(11,14)         =         2.882023	       1.525101
	 R(11,15)         =         2.053929	       1.086892
	 R(11,16)         =         2.054338	       1.087109
	 R(14,17)         =         2.051161	       1.085428
	 R(14,18)         =         2.049484	       1.084540
	 R(14,19)         =         2.051269	       1.085485
	 B(1,2,3)         =         1.943771	     111.369892
	 B(1,2,4)         =         1.871731	     107.242298
	 B(2,3,5)         =         1.933178	     110.762917
	 B(2,3,6)         =         1.850373	     106.018551
	 B(2,3,7)         =         1.971543	     112.961083
	 B(3,2,4)         =         1.932174	     110.705403
	 B(3,5,8)         =         1.972991	     113.044056
	 B(3,5,9)         =         1.901752	     108.962352
	 B(3,5,10)        =         1.913935	     109.660393
	 B(5,3,6)         =         1.906485	     109.233531
	 B(5,3,7)         =         1.922317	     110.140656
	 B(5,8,11)        =         1.979720	     113.429592
	 B(5,8,12)        =         1.910990	     109.491674
	 B(5,8,13)        =         1.905764	     109.192221
	 B(6,3,7)         =         1.876864	     107.536364
	 B(8,5,9)         =         1.890688	     108.328424
	 B(8,5,10)        =         1.913059	     109.610198
	 B(8,11,14)       =         1.975389	     113.181426
	 B(8,11,15)       =         1.908138	     109.328276
	 B(8,11,16)       =         1.905702	     109.188699
	 B(9,5,10)        =         1.868336	     107.047742
	 B(11,8,12)       =         1.903538	     109.064666
	 B(11,8,13)       =         1.906522	     109.235655
	 B(11,14,17)      =         1.939531	     111.126951
	 B(11,14,18)      =         1.942188	     111.279149
	 B(11,14,19)      =         1.939759	     111.139988
	 B(12,8,13)       =         1.853032	     106.170886
	 B(14,11,15)      =         1.908461	     109.346768
	 B(14,11,16)      =         1.908062	     109.323927
	 B(15,11,16)      =         1.854162	     106.235637
	 B(17,14,18)      =         1.880340	     107.735536
	 B(17,14,19)      =         1.878990	     107.658173
	 B(18,14,19)      =         1.880222	     107.728789
	 D(1,2,3,5)       =         3.048184	     174.648062
	 D(1,2,3,6)       =         0.981996	      56.264252
	 D(1,2,3,7)       =        -1.069153	     -61.257938
	 D(2,3,5,8)       =         2.846455	     163.089833
	 D(2,3,5,9)       =        -1.333654	     -76.412731
	 D(2,3,5,10)      =         0.706078	      40.455311
	 D(3,5,8,11)      =         3.066083	     175.673618
	 D(3,5,8,12)      =         0.935488	      53.599531
	 D(3,5,8,13)      =        -1.086487	     -62.251132
	 D(4,2,3,5)       =        -1.154210	     -66.131351
	 D(4,2,3,6)       =         3.062788	     175.484839
	 D(4,2,3,7)       =         1.011639	      57.962648
	 D(5,8,11,14)     =         3.133536	     179.538391
	 D(5,8,11,15)     =        -1.017771	     -58.313986
	 D(5,8,11,16)     =         1.003934	      57.521191
	 D(6,3,5,8)       =        -1.404945	     -80.497421
	*D(6,3,5,9)       =         0.698132	      40.000015
	 D(6,3,5,10)      =         2.737864	     156.868057
	 D(7,3,5,8)       =         0.652726	      37.398457
	 D(7,3,5,9)       =         2.755803	     157.895892
	 D(7,3,5,10)      =        -1.487650	     -85.236065
	 D(8,11,14,17)    =         1.049433	      60.128065
	 D(8,11,14,18)    =        -3.138247	    -179.808334
	 D(8,11,14,19)    =        -1.042738	     -59.744492
	 D(9,5,8,11)      =         0.956713	      54.815613
	 D(9,5,8,12)      =        -1.173882	     -67.258473
	 D(9,5,8,13)      =         3.087328	     176.890863
	 D(10,5,8,11)     =        -1.076238	     -61.663910
	 D(10,5,8,12)     =         3.076352	     176.262004
	 D(10,5,8,13)     =         1.054377	      60.411340
	 D(12,8,11,14)    =        -1.014914	     -58.150286
	 D(12,8,11,15)    =         1.116964	      63.997337
	 D(12,8,11,16)    =         3.138669	     179.832514
	 D(13,8,11,14)    =         1.003343	      57.487306
	 D(13,8,11,15)    =         3.135221	     179.634930
	 D(13,8,11,16)    =        -1.126259	     -64.529893
	 D(15,11,14,17)   =        -1.082265	     -62.009230
	 D(15,11,14,18)   =         1.013240	      58.054371
	 D(15,11,14,19)   =         3.108749	     178.118213
	 D(16,11,14,17)   =        -3.105471	    -177.930396
	 D(16,11,14,18)   =        -1.009966	     -57.866795
	 D(16,11,14,19)   =         1.085543	      62.197047

	Current energy   :      -251.4464278784

	Energy change for the previous step:
		Projected    :        -0.0015586658
		Actual       :        -0.0002082133
	Energy ratio indicates iffy step: Trust radius decreased to 1.250e-01.


	Performing BFGS update.
	Previous computed or guess Hessian on step 1.
	Steps to be used in Hessian update: 1
	Taking RFO optimization step.
	Going to follow RFO solution 1.
	Using RFO vector 1.
	Norm of target step-size    0.06187
	Projected energy change by RFO approximation:        -0.0000802699

	Back-transformation to cartesian coordinates...
	Successfully converged to displaced geometry.

	Back-transformation to cartesian coordinates to adjust frozen coordinates...
	Successfully converged to displaced geometry.

	--- Internal Coordinate Step in ANG or DEG, aJ/ANG or AJ/DEG ---
	 ---------------------------------------------------------------------------
	   Coordinate                Previous        Force       Change         New 
	   ----------                --------       ------       ------       ------
	    1 R(1,2)          =      1.000011    -0.017429    -0.002157     0.997854
	    2 R(2,3)          =      1.456002     0.002813    -0.000051     1.455951
	    3 R(2,4)          =      1.000232    -0.011917    -0.001587     0.998645
	    4 R(3,5)          =      1.529490    -0.022772    -0.003380     1.526110
	    5 R(3,6)          =      1.085066    -0.003591    -0.000642     1.084424
	    6 R(3,7)          =      1.091253    -0.008593    -0.001334     1.089919
	    7 R(5,8)          =      1.525873     0.005761     0.000819     1.526692
	    8 R(5,9)          =      1.085732    -0.004178    -0.000710     1.085022
	    9 R(5,10)         =      1.087623    -0.007091    -0.001152     1.086471
	   10 R(8,11)         =      1.527047    -0.006190    -0.001179     1.525868
	   11 R(8,12)         =      1.088696    -0.003531    -0.000546     1.088150
	   12 R(8,13)         =      1.087582     0.000172    -0.000090     1.087492
	   13 R(11,14)        =      1.525101    -0.000643    -0.000115     1.524986
	   14 R(11,15)        =      1.086892    -0.002907    -0.000490     1.086403
	   15 R(11,16)        =      1.087109    -0.002015    -0.000378     1.086731
	   16 R(14,17)        =      1.085428    -0.002327    -0.000405     1.085023
	   17 R(14,18)        =      1.084540    -0.003138    -0.000535     1.084006
	   18 R(14,19)        =      1.085485    -0.002679    -0.000446     1.085039
	   19 B(1,2,3)        =    111.369892    -0.000068    -0.262894   111.106999
	   20 B(1,2,4)        =    107.242298    -0.000014    -0.060815   107.181483
	   21 B(2,3,5)        =    110.762917    -0.000065    -0.199015   110.563902
	   22 B(2,3,6)        =    106.018551     0.000073     0.530979   106.549531
	   23 B(2,3,7)        =    112.961083     0.000018    -0.061879   112.899205
	   24 B(3,2,4)        =    110.705403     0.000088     0.288818   110.994221
	   25 B(3,5,8)        =    113.044056    -0.000053    -0.158985   112.885071
	   26 B(3,5,9)        =    108.962352    -0.000021    -0.098834   108.863518
	   27 B(3,5,10)       =    109.660393     0.000007    -0.166511   109.493882
	   28 B(5,3,6)        =    109.233531    -0.000022    -0.055187   109.178343
	   29 B(5,3,7)        =    110.140656    -0.000016    -0.309071   109.831585
	   30 B(5,8,11)       =    113.429592    -0.000028    -0.066838   113.362754
	   31 B(5,8,12)       =    109.491674    -0.000015    -0.107240   109.384433
	   32 B(5,8,13)       =    109.192221     0.000050     0.265347   109.457568
	   33 B(6,3,7)        =    107.536364     0.000017     0.133329   107.669693
	   34 B(8,5,9)        =    108.328424     0.000050     0.314815   108.643239
	   35 B(8,5,10)       =    109.610198     0.000002    -0.066256   109.543942
	   36 B(8,11,14)      =    113.181426    -0.000007    -0.014353   113.167073
	   37 B(8,11,15)      =    109.328276    -0.000008    -0.068192   109.260084
	   38 B(8,11,16)      =    109.188699     0.000008     0.049065   109.237764
	   39 B(9,5,10)       =    107.047742     0.000018     0.200245   107.247987
	   40 B(11,8,12)      =    109.064666     0.000026     0.025527   109.090193
	   41 B(11,8,13)      =    109.235655    -0.000022    -0.069032   109.166624
	   42 B(11,14,17)     =    111.126951     0.000004     0.015445   111.142396
	   43 B(11,14,18)     =    111.279149    -0.000004    -0.014257   111.264892
	   44 B(11,14,19)     =    111.139988     0.000005     0.021915   111.161903
	   45 B(12,8,13)      =    106.170886    -0.000009    -0.047383   106.123503
	   46 B(14,11,15)     =    109.346768     0.000008     0.012830   109.359598
	   47 B(14,11,16)     =    109.323927     0.000001     0.037008   109.360935
	   48 B(15,11,16)     =    106.235637    -0.000003    -0.016566   106.219071
	   49 B(17,14,18)     =    107.735536    -0.000001    -0.007328   107.728208
	   50 B(17,14,19)     =    107.658173    -0.000004    -0.016178   107.641995
	   51 B(18,14,19)     =    107.728789    -0.000000    -0.000986   107.727802
	   52 D(1,2,3,5)      =    174.648062     0.000003     0.057424   174.705487
	   53 D(1,2,3,6)      =     56.264252     0.000007    -0.081601    56.182651
	   54 D(1,2,3,7)      =    -61.257938    -0.000010    -0.545297   -61.803235
	   55 D(2,3,5,8)      =    163.089833    -0.000012    -0.723680   162.366154
	   56 D(2,3,5,9)      =    -76.412731    -0.000009    -0.497250   -76.909982
	   57 D(2,3,5,10)     =     40.455311    -0.000006    -0.407150    40.048161
	   58 D(3,5,8,11)     =    175.673618     0.000002     0.989518   176.663135
	   59 D(3,5,8,12)     =     53.599531     0.000002     1.080954    54.680486
	   60 D(3,5,8,13)     =    -62.251132    -0.000000     1.048755   -61.202377
	   61 D(4,2,3,5)      =    -66.131351     0.000002    -0.000712   -66.132063
	   62 D(4,2,3,6)      =    175.484839     0.000006    -0.139738   175.345101
	   63 D(4,2,3,7)      =     57.962648    -0.000011    -0.603434    57.359215
	   64 D(5,8,11,14)    =    179.538391     0.000004    -0.190387   179.348004
	   65 D(5,8,11,15)    =    -58.313986     0.000004    -0.233165   -58.547151
	   66 D(5,8,11,16)    =     57.521191     0.000003    -0.263586    57.257605
	   67 D(6,3,5,8)      =    -80.497421    -0.000003    -0.226429   -80.723850
	   68 *D(6,3,5,9)     =     40.000015    -0.000000    -0.000000    40.000015
	   69 D(6,3,5,10)     =    156.868057     0.000003     0.090100   156.958157
	   70 D(7,3,5,8)      =     37.398457    -0.000004    -0.278544    37.119913
	   71 D(7,3,5,9)      =    157.895892    -0.000001    -0.052115   157.843778
	   72 D(7,3,5,10)     =    -85.236065     0.000003     0.037985   -85.198080
	   73 D(8,11,14,17)   =     60.128065    -0.000001    -0.254398    59.873667
	   74 D(8,11,14,18)   =   -179.808334    -0.000001    -0.262853  -180.071187
	   75 D(8,11,14,19)   =    -59.744492    -0.000001    -0.258922   -60.003414
	   76 D(9,5,8,11)     =     54.815613     0.000008     0.998131    55.813744
	   77 D(9,5,8,12)     =    -67.258473     0.000007     1.089568   -66.168906
	   78 D(9,5,8,13)     =    176.890863     0.000005     1.057368   177.948231
	   79 D(10,5,8,11)    =    -61.663910    -0.000004     0.616971   -61.046939
	   80 D(10,5,8,12)    =    176.262004    -0.000004     0.708408   176.970411
	   81 D(10,5,8,13)    =     60.411340    -0.000006     0.676208    61.087549
	   82 D(12,8,11,14)   =    -58.150286    -0.000001    -0.355149   -58.505435
	   83 D(12,8,11,15)   =     63.997337    -0.000001    -0.397927    63.599410
	   84 D(12,8,11,16)   =    179.832514    -0.000001    -0.428348   179.404166
	   85 D(13,8,11,14)   =     57.487306    -0.000003    -0.435597    57.051709
[...]
	 R(8,11)          =         2.883599	       1.525935
	 R(8,12)          =         2.056299	       1.088146
	 R(8,13)          =         2.055107	       1.087516
	 R(11,14)         =         2.881870	       1.525020
	 R(11,15)         =         2.053060	       1.086433
	 R(11,16)         =         2.053615	       1.086726
	 R(14,17)         =         2.050409	       1.085030
	 R(14,18)         =         2.048472	       1.084005
	 R(14,19)         =         2.050427	       1.085039
	 B(1,2,3)         =         1.940158	     111.162877
	 B(1,2,4)         =         1.871280	     107.216422
	 B(2,3,5)         =         1.930994	     110.637833
	 B(2,3,6)         =         1.859000	     106.512869
	 B(2,3,7)         =         1.970025	     112.874117
	 B(3,2,4)         =         1.936795	     110.970151
	 B(3,5,8)         =         1.970354	     112.892942
	 B(3,5,9)         =         1.900143	     108.870159
	 B(3,5,10)        =         1.910673	     109.473482
	 B(5,3,6)         =         1.905917	     109.201011
	 B(5,3,7)         =         1.916440	     109.803919
	 B(5,8,11)        =         1.978732	     113.373016
	 B(5,8,12)        =         1.908494	     109.348656
	 B(5,8,13)        =         1.910250	     109.449235
	 B(6,3,7)         =         1.879053	     107.661832
	 B(8,5,9)         =         1.896368	     108.653907
	 B(8,5,10)        =         1.911373	     109.513613
	 B(8,11,14)       =         1.975409	     113.182597
	 B(8,11,15)       =         1.907273	     109.278685
	 B(8,11,16)       =         1.906575	     109.238685
	 B(9,5,10)        =         1.872307	     107.275284
	 B(11,8,12)       =         1.904288	     109.107691
	 B(11,8,13)       =         1.905526	     109.178597
	 B(11,14,17)      =         1.939680	     111.135501
	 B(11,14,18)      =         1.942064	     111.272086
	 B(11,14,19)      =         1.940107	     111.159952
	 B(12,8,13)       =         1.852277	     106.127650
	 B(14,11,15)      =         1.908550	     109.351875
	 B(14,11,16)      =         1.908393	     109.342860
	 B(15,11,16)      =         1.853682	     106.208164
	 B(17,14,18)      =         1.880236	     107.729579
	 B(17,14,19)      =         1.878675	     107.640142
	 B(18,14,19)      =         1.880243	     107.730016
	 D(1,2,3,5)       =         3.046248	     174.537173
	 D(1,2,3,6)       =         0.976838	      55.968689
	 D(1,2,3,7)       =        -1.081585	     -61.970244
	 D(2,3,5,8)       =         2.833211	     162.331008
	 D(2,3,5,9)       =        -1.342541	     -76.921921
	 D(2,3,5,10)      =         0.699202	      40.061305
	 D(3,5,8,11)      =         3.086702	     176.855009
	 D(3,5,8,12)      =         0.957643	      54.868906
	 D(3,5,8,13)      =        -1.064548	     -60.994107
	 D(4,2,3,5)       =        -1.156031	     -66.235674
	 D(4,2,3,6)       =         3.057744	     175.195843
	 D(4,2,3,7)       =         0.999322	      57.256909
	 D(5,8,11,14)     =         3.133265	     179.522839
	 D(5,8,11,15)     =        -1.018542	     -58.358168
	 D(5,8,11,16)     =         1.002594	      57.444402
	 D(6,3,5,8)       =        -1.409302	     -80.747056
	*D(6,3,5,9)       =         0.698132	      40.000015
	 D(6,3,5,10)      =         2.739874	     156.983241
	 D(7,3,5,8)       =         0.647245	      37.084423
	 D(7,3,5,9)       =         2.754679	     157.831494
	 D(7,3,5,10)      =        -1.486764	     -85.185280
	 D(8,11,14,17)    =         1.046067	      59.935216
	 D(8,11,14,18)    =         3.141458	     179.992289
	 D(8,11,14,19)    =        -1.046039	     -59.933610
	 D(9,5,8,11)      =         0.977118	      55.984752
	 D(9,5,8,12)      =        -1.151941	     -66.001350
	 D(9,5,8,13)      =         3.109053	     178.135636
	 D(10,5,8,11)     =        -1.062867	     -60.897796
	 D(10,5,8,12)     =         3.091259	     177.116101
	 D(10,5,8,13)     =         1.069068	      61.253088
	 D(12,8,11,14)    =        -1.018519	     -58.356835
	 D(12,8,11,15)    =         1.112860	      63.762158
	 D(12,8,11,16)    =         3.133996	     179.564729
	 D(13,8,11,14)    =         0.998703	      57.221488
	 D(13,8,11,15)    =         3.130082	     179.340481
	 D(13,8,11,16)    =        -1.131967	     -64.856949
	 D(15,11,14,17)   =        -1.084598	     -62.142880
	 D(15,11,14,18)   =         1.010793	      57.914193
	 D(15,11,14,19)   =         3.106482	     177.988293
	 D(16,11,14,17)   =        -3.107464	    -178.044588
	 D(16,11,14,18)   =        -1.012073	     -57.987515
	 D(16,11,14,19)   =         1.083615	      62.086585

	Current energy   :      -251.4464899007

	Energy change for the previous step:
		Projected    :         0.0000007064
		Actual       :        -0.0000001572

	Performing BFGS update.
	Previous computed or guess Hessian on step 1.
	Steps to be used in Hessian update: 4 3
	Taking RFO optimization step.
	Going to follow RFO solution 1.
	Rejecting RFO root 1 because normalization gives large value.
	Rejecting RFO root 2 because normalization gives large value.
	Rejecting RFO root 3 because normalization gives large value.
	Using RFO vector 4.
	Norm of target step-size    0.00345
	Projected energy change by RFO approximation:        -0.0000000279

	Back-transformation to cartesian coordinates...
	Successfully converged to displaced geometry.

	Back-transformation to cartesian coordinates to adjust frozen coordinates...
	Successfully converged to displaced geometry.

	--- Internal Coordinate Step in ANG or DEG, aJ/ANG or AJ/DEG ---
	 ---------------------------------------------------------------------------
	   Coordinate                Previous        Force       Change         New 
	   ----------                --------       ------       ------       ------
	    1 R(1,2)          =      0.997881    -0.000067    -0.000009     0.997872
	    2 R(2,3)          =      1.456328    -0.000033    -0.000022     1.456306
	    3 R(2,4)          =      0.998549    -0.000014     0.000004     0.998554
	    4 R(3,5)          =      1.526134    -0.000070    -0.000022     1.526112
	    5 R(3,6)          =      1.084215     0.000051     0.000016     1.084231
	    6 R(3,7)          =      1.089685     0.000096     0.000022     1.089707
	    7 R(5,8)          =      1.527101     0.000001    -0.000017     1.527084
	    8 R(5,9)          =      1.084835     0.000064     0.000013     1.084848
	    9 R(5,10)         =      1.086313     0.000033     0.000015     1.086328
	   10 R(8,11)         =      1.525935    -0.000084    -0.000022     1.525913
	   11 R(8,12)         =      1.088146    -0.000018    -0.000001     1.088145
	   12 R(8,13)         =      1.087516    -0.000038    -0.000007     1.087509
	   13 R(11,14)        =      1.525020     0.000024     0.000001     1.525021
	   14 R(11,15)        =      1.086433    -0.000036    -0.000006     1.086427
	   15 R(11,16)        =      1.086726     0.000011     0.000001     1.086728
	   16 R(14,17)        =      1.085030     0.000006     0.000000     1.085030
	   17 R(14,18)        =      1.084005     0.000003     0.000000     1.084005
	   18 R(14,19)        =      1.085039    -0.000022    -0.000003     1.085037
	   19 B(1,2,3)        =    111.162877    -0.000001    -0.008922   111.153955
	   20 B(1,2,4)        =    107.216422     0.000000    -0.002417   107.214005
	   21 B(2,3,5)        =    110.637833    -0.000001    -0.000658   110.637175
	   22 B(2,3,6)        =    106.512869     0.000000    -0.000680   106.512189
	   23 B(2,3,7)        =    112.874117     0.000000     0.004761   112.878879
	   24 B(3,2,4)        =    110.970151     0.000000     0.002378   110.972528
	   25 B(3,5,8)        =    112.892942    -0.000000     0.000489   112.893432
	   26 B(3,5,9)        =    108.870159     0.000000     0.002316   108.872475
	   27 B(3,5,10)       =    109.473482     0.000000    -0.000789   109.472693
	   28 B(5,3,6)        =    109.201011     0.000000    -0.001282   109.199729
	   29 B(5,3,7)        =    109.803919     0.000001    -0.002541   109.801378
	   30 B(5,8,11)       =    113.373016    -0.000000    -0.002139   113.370877
	   31 B(5,8,12)       =    109.348656    -0.000000     0.001462   109.350117
	   32 B(5,8,13)       =    109.449235     0.000000     0.000749   109.449985
	   33 B(6,3,7)        =    107.661832    -0.000000     0.000332   107.662164
	   34 B(8,5,9)        =    108.653907     0.000000    -0.002359   108.651547
	   35 B(8,5,10)       =    109.513613     0.000000     0.002355   109.515968
	   36 B(8,11,14)      =    113.182597     0.000000    -0.000617   113.181981
	   37 B(8,11,15)      =    109.278685    -0.000000    -0.003216   109.275468
	   38 B(8,11,16)      =    109.238685    -0.000000     0.001050   109.239735
	   39 B(9,5,10)       =    107.275284    -0.000000    -0.002170   107.273114
	   40 B(11,8,12)      =    109.107691     0.000000    -0.000468   109.107223
	   41 B(11,8,13)      =    109.178597     0.000000    -0.000453   109.178145
	   42 B(11,14,17)     =    111.135501     0.000000     0.002064   111.137566
	   43 B(11,14,18)     =    111.272086    -0.000000    -0.001132   111.270954
	   44 B(11,14,19)     =    111.159952    -0.000000    -0.001087   111.158865
	   45 B(12,8,13)      =    106.127650     0.000000     0.001053   106.128703
	   46 B(14,11,15)     =    109.351875    -0.000000    -0.002190   109.349685
	   47 B(14,11,16)     =    109.342860     0.000000     0.004184   109.347044
	   48 B(15,11,16)     =    106.208164     0.000000     0.000887   106.209051
	   49 B(17,14,18)     =    107.729579    -0.000000    -0.000021   107.729558
	   50 B(17,14,19)     =    107.640142    -0.000000     0.000004   107.640146
	   51 B(18,14,19)     =    107.730016     0.000000     0.000185   107.730200
	   52 D(1,2,3,5)      =    174.537173    -0.000000     0.005981   174.543153
	   53 D(1,2,3,6)      =     55.968689     0.000000     0.008275    55.976965
	   54 D(1,2,3,7)      =    -61.970244     0.000000     0.005638   -61.964606
	   55 D(2,3,5,8)      =    162.331008     0.000000     0.003036   162.334044
	   56 D(2,3,5,9)      =    -76.921921     0.000000     0.001978   -76.919943
	   57 D(2,3,5,10)     =     40.061305     0.000000     0.000249    40.061554
	   58 D(3,5,8,11)     =    176.855009    -0.000000    -0.034902   176.820107
	   59 D(3,5,8,12)     =     54.868906     0.000000    -0.033902    54.835004
	   60 D(3,5,8,13)     =    -60.994107    -0.000000    -0.036410   -61.030517
	   61 D(4,2,3,5)      =    -66.235674    -0.000000    -0.001343   -66.237017
	   62 D(4,2,3,6)      =    175.195843    -0.000000     0.000952   175.196794
	   63 D(4,2,3,7)      =     57.256909    -0.000000    -0.001685    57.255224
	   64 D(5,8,11,14)    =    179.522839     0.000000     0.040730   179.563570
	   65 D(5,8,11,15)    =    -58.358168     0.000000     0.035166   -58.323002
	   66 D(5,8,11,16)    =     57.444402     0.000000     0.035021    57.479424
	   67 D(6,3,5,8)      =    -80.747056    -0.000000     0.001058   -80.745998
	   68 *D(6,3,5,9)     =     40.000015    -0.000000    -0.000000    40.000015
	   69 D(6,3,5,10)     =    156.983241    -0.000000    -0.001729   156.981511
	   70 D(7,3,5,8)      =     37.084423     0.000000    -0.000781    37.083642
	   71 D(7,3,5,9)      =    157.831494     0.000000    -0.001839   157.829655
	   72 D(7,3,5,10)     =    -85.185280     0.000000    -0.003569   -85.188849
	   73 D(8,11,14,17)   =     59.935216    -0.000000    -0.043902    59.891314
	   74 D(8,11,14,18)   =    179.992289    -0.000000    -0.043300   179.948989
	   75 D(8,11,14,19)   =    -59.933610    -0.000000    -0.044560   -59.978171
	   76 D(9,5,8,11)     =     55.984752    -0.000000    -0.036506    55.948247
	   77 D(9,5,8,12)     =    -66.001350    -0.000000    -0.035506   -66.036856
	   78 D(9,5,8,13)     =    178.135636    -0.000000    -0.038013   178.097623
	   79 D(10,5,8,11)    =    -60.897796    -0.000000    -0.033877   -60.931673
	   80 D(10,5,8,12)    =    177.116101     0.000000    -0.032878   177.083224
	   81 D(10,5,8,13)    =     61.253088    -0.000000    -0.035385    61.217703
	   82 D(12,8,11,14)   =    -58.356835     0.000000     0.040812   -58.316023
	   83 D(12,8,11,15)   =     63.762158     0.000000     0.035248    63.797406
	   84 D(12,8,11,16)   =    179.564729    -0.000000     0.035103   179.599832
	   85 D(13,8,11,14)   =     57.221488     0.000000     0.041562    57.263050
	   86 D(13,8,11,15)   =    179.340481     0.000000     0.035997   179.376478
	   87 D(13,8,11,16)   =    -64.856949    -0.000000     0.035853   -64.821096
	   88 D(15,11,14,17)  =    -62.142880    -0.000000    -0.037761   -62.180642
	   89 D(15,11,14,18)  =     57.914193     0.000000    -0.037159    57.877034
	   90 D(15,11,14,19)  =    177.988293    -0.000000    -0.038419   177.949874
	   91 D(16,11,14,17)  =   -178.044588    -0.000000    -0.039943  -178.084531
	   92 D(16,11,14,18)  =    -57.987515    -0.000000    -0.039341   -58.026856
	   93 D(16,11,14,19)  =     62.086585    -0.000000    -0.040601    62.045984
	 ---------------------------------------------------------------------------
	Successfully symmetrized geometry.

  ==> Convergence Check <==

  Measures of convergence in internal coordinates in au.
  Criteria marked as inactive (o), active & met (*), and active & unmet ( ).
  ---------------------------------------------------------------------------------------------
   Step     Total Energy     Delta E     MAX Force     RMS Force      MAX Disp      RMS Disp   
  ---------------------------------------------------------------------------------------------
    Convergence Criteria    1.00e-06 *    3.00e-04 *             o    1.20e-03 *             o
  ---------------------------------------------------------------------------------------------
      5    -251.44648990   -1.57e-07 *    1.69e-05 *    4.22e-06 o    7.78e-04 *    3.58e-04 o  ~
  ---------------------------------------------------------------------------------------------


  **** Optimization is complete! (in 5 steps) ****

  ==> Optimization Summary <==

  Measures of convergence in internal coordinates in au.
  --------------------------------------------------------------------------------------------------------------- ~
   Step         Total Energy             Delta E       MAX Force       RMS Force        MAX Disp        RMS Disp  ~
  --------------------------------------------------------------------------------------------------------------- ~
      1    -251.446219665048   -251.446219665048      0.00410021      0.00061366      0.07739973      0.02671877  ~
      2    -251.446427878395     -0.000208213346      0.00276405      0.00054294      0.01901654      0.00641429  ~
      3    -251.446488640846     -0.000060762451      0.00035259      0.00007540      0.00603023      0.00219138  ~
      4    -251.446489743443     -0.000001102597      0.00010869      0.00002415      0.00287930      0.00092526  ~
      5    -251.446489900675     -0.000000157232      0.00001693      0.00000422      0.00077773      0.00035765  ~
  --------------------------------------------------------------------------------------------------------------- ~

	Writing optimization data to binary file.
	Final energy is   -251.4464899006752
	Final (previous) structure:
	Cartesian Geometry (in Angstrom)
	    H     3.8793705558   0.3671548652   0.2397091429
	    N     3.0665373360  -0.2065655471   0.3166046978
	    C     1.8676810638   0.5261225834  -0.0665424967
	    H     3.0099874668  -0.5133703120   1.2651688661
	    C     0.6525412361  -0.3971626968  -0.0745332565
	    H     2.0406573478   0.8965637636  -1.0707211080
	    H     1.6738424532   1.3859333111   0.5742105779
	    C    -0.6714455759   0.3631175588  -0.0418327828
	    H     0.6807270765  -1.0064475886  -0.9716642126
	    H     0.7046879235  -1.0717517445   0.7753413301
	    C    -1.8939306345  -0.5462093497  -0.1262872523
	    H    -0.6991106372   1.0744781649  -0.8647929188
	    H    -0.7275969368   0.9534624308   0.8697761582
	    C    -3.2137407799   0.2165441123  -0.0816374998
	    H    -1.8453692664  -1.1283507344  -1.0423053117
	    H    -1.8644229264  -1.2626161769   0.6903307286
	    H    -3.2886205244   0.9174812847  -0.9064826864
	    H    -4.0600693428  -0.4579458914  -0.1437426131
	    H    -3.3085262707   0.7816883539   0.8397404852
	Saving final (previous) structure.
			--------------------------
			 OPTKING Finished Execution 
			--------------------------

    Final optimized geometry and variables:
    Molecular point group: c1
    Full point group: C1

    Geometry (in Angstrom), charge = 0, multiplicity = 1:

    H            3.879370555760     0.367154865195     0.239709142866
    N            3.066537335973    -0.206565547087     0.316604697765
    C            1.867681063833     0.526122583439    -0.066542496721
    H            3.009987466775    -0.513370312050     1.265168866114
    C            0.652541236068    -0.397162696791    -0.074533256485
    H            2.040657347840     0.896563763551    -1.070721107973
    H            1.673842453243     1.385933311087     0.574210577945
    C           -0.671445575882     0.363117558836    -0.041832782819
    H            0.680727076498    -1.006447588642    -0.971664212646
    H            0.704687923509    -1.071751744533     0.775341330070
    C           -1.893930634469    -0.546209349677    -0.126287252331
    H           -0.699110637151     1.074478164945    -0.864792918788
    H           -0.727596936753     0.953462430779     0.869776158209
    C           -3.213740779883     0.216544112324    -0.081637499778
    H           -1.845369266416    -1.128350734379    -1.042305311739
    H           -1.864422926407    -1.262616176907     0.690330728585
    H           -3.288620524389     0.917481284654    -0.906482686398
    H           -4.060069342788    -0.457945891415    -0.143742613088
    H           -3.308526270660     0.781688353944     0.839740485184

	Cleaning optimization helper files.


Properties will be evaluated at   0.000000,   0.000000,   0.000000 Bohr

Properties computed using the  density matrix

  Nuclear Dipole Moment: (a.u.)
     X:    -3.5755      Y:     0.8783      Z:     0.2377

  Electronic Dipole Moment: (a.u.)
     X:     3.5630      Y:    -0.5125      Z:     0.0578

  Dipole Moment: (a.u.)
     X:    -0.0124      Y:     0.3658      Z:     0.2956     Total:     0.4705

  Dipole Moment: (Debye)
     X:    -0.0316      Y:     0.9299      Z:     0.7512     Total:     1.1959

  Quadrupole Moment: (Debye Ang)
    XX:   -41.2507     YY:   -42.2582     ZZ:   -38.9698
    XY:     4.0416     XZ:     2.6561     YZ:    -0.9312

  Traceless Quadrupole Moment: (Debye Ang)
    XX:    -0.4245     YY:    -1.4319     ZZ:     1.8564
    XY:     4.0416     XZ:     2.6561     YZ:    -0.9312

  Mulliken Charges: (a.u.)
   Center  Symbol    Alpha    Beta     Spin     Total
       1     H     0.42972  0.42972  0.00000  0.14056
       2     N     3.69101  3.69101  0.00000 -0.38201
       3     C     3.02924  3.02924  0.00000 -0.05848
       4     H     0.43075  0.43075  0.00000  0.13851
       5     C     3.07940  3.07940  0.00000 -0.15880
       6     H     0.45588  0.45588  0.00000  0.08823
       7     H     0.46720  0.46720  0.00000  0.06560
       8     C     3.09370  3.09370  0.00000 -0.18739
       9     H     0.45167  0.45167  0.00000  0.09667
      10     H     0.45734  0.45734  0.00000  0.08532
      11     C     3.08412  3.08412  0.00000 -0.16823
      12     H     0.45551  0.45551  0.00000  0.08898
      13     H     0.45671  0.45671  0.00000  0.08658
      14     C     3.14957  3.14957  0.00000 -0.29913
      15     H     0.45393  0.45393  0.00000  0.09215
      16     H     0.45474  0.45474  0.00000  0.09051
      17     H     0.45535  0.45535  0.00000  0.08930
      18     H     0.44854  0.44854  0.00000  0.10291
      19     H     0.45564  0.45564  0.00000  0.08872

   Total alpha = 25.00000, Total beta = 25.00000, Total charge = -0.00000


*** Psi4 exiting successfully. Buy a developer a beer!
