    -----------------------------------------------------------------------
          Psi4: An Open-Source Ab Initio Electronic Structure Package
                              Psi4 (no tag) Driver

                          Git: Rev {detached?}  

    J. M. Turney, A. C. Simmonett, R. M. Parrish, E. G. Hohenstein,
    F. A. Evangelista, J. T. Fermann, B. J. Mintz, L. A. Burns, J. J. Wilke,
    M. L. Abrams, N. J. Russ, M. L. Leininger, C. L. Janssen, E. T. Seidl,
    W. D. Allen, H. F. Schaefer, R. A. King, E. F. Valeev, C. D. Sherrill,
    and T. D. Crawford, WIREs Comput. Mol. Sci. 2, 556-565 (2012)
    (doi: 10.1002/wcms.93)

                         Additional Contributions by
    A. E. DePrince, M. Saitow, U. Bozkaya, A. Yu. Sokolov
    -----------------------------------------------------------------------


    Psi4 started on: Fri Sep  9 23:50:33 2016

    Process ID:   3119
    PSI4DATADIR: /export131/home/mjharvey/miniconda3/share
    Memory level set to 256.000 MB

  ==> Input File <==

--------------------------------------------------------------------------
set {
	reference rhf
	basis cc-pvtz
}


set_num_threads( 4 )
memory 2 gb

molecule MOL {
0 1

H	 -1.974766	 0.482924	 2.283599
O	 -1.574520	 1.314763	 2.108248
C	 -0.815951	 1.248900	 0.933355
C	 0.468726	 0.472382	 1.144110
H	 -1.379640	 0.805246	 0.118766
H	 -0.579962	 2.265412	 0.652833
O	 1.172093	 0.457955	 -0.054438
H	 0.240106	 -0.545049	 1.465766
H	 1.051357	 0.941187	 1.934260
C	 2.395478	 -0.199028	 -0.000366
H	 2.505946	 -0.901710	 -0.823354
H	 3.174616	 0.545641	 -0.071768
H	 2.513730	 -0.742241	 0.934223

	symmetry c1
}
set optking {
	frozen_dihedral = ("
		4 7 10 13
	")
}

ee = optimize('scf')
oeprop('DIPOLE', 'QUADRUPOLE', 'MULLIKEN_CHARGES')
f=open( 'psi4out.xyz', 'w' )
f.write( "13  " )
f.write( str(ee) + "\n" )
f.write( MOL.save_string_xyz() )
f.close()
--------------------------------------------------------------------------

  Memory set to   2.000 GiB by Python script.
gradient() will perform analytic gradient computation.

*** tstart() called on cx1-27-3-1
*** at Fri Sep  9 23:50:33 2016


         ---------------------------------------------------------
                                   SCF
            by Justin Turney, Rob Parrish, and Andy Simmonett
                              RHF Reference
                        4 Threads,   2000 MiB Core
         ---------------------------------------------------------

  ==> Geometry <==

    Molecular point group: c1
    Full point group: C1

    Geometry (in Angstrom), charge = 0, multiplicity = 1:

       Center              X                  Y                   Z               Mass       
    ------------   -----------------  -----------------  -----------------  -----------------
           H         -2.286880648186    -0.167880238043     1.437855513267     1.007825032070
           O         -1.886634648186     0.663958761957     1.262504513267    15.994914619560
           C         -1.128065648186     0.598095761957     0.087611513267    12.000000000000
           C          0.156611351814    -0.178422238043     0.298366513267    12.000000000000
           H         -1.691754648186     0.154441761957    -0.726977486733     1.007825032070
           H         -0.892076648186     1.614607761957    -0.192910486733     1.007825032070
           O          0.859978351814    -0.192849238043    -0.900181486733    15.994914619560
           H         -0.072008648186    -1.195853238043     0.620022513267     1.007825032070
           H          0.739242351814     0.290382761957     1.088516513267     1.007825032070
           C          2.083363351814    -0.849832238043    -0.846109486733    12.000000000000
           H          2.193831351814    -1.552514238043    -1.669097486733     1.007825032070
           H          2.862501351814    -0.105163238043    -0.917511486733     1.007825032070
           H          2.201615351814    -1.393045238043     0.088479513267     1.007825032070

  Running in c1 symmetry.

  Rotational constants: A =      0.77160  B =      0.07232  C =      0.06901 [cm^-1]
  Rotational constants: A =  23131.92900  B =   2168.19516  C =   2068.75331 [MHz]
  Nuclear repulsion =  190.536521456349988

  Charge       = 0
  Multiplicity = 1
  Electrons    = 42
  Nalpha       = 21
  Nbeta        = 21

  ==> Algorithm <==

  SCF Algorithm Type is DF.
  DIIS enabled.
  MOM disabled.
  Fractional occupation disabled.
  Guess Type is CORE.
  Energy threshold   = 1.00e-08
  Density threshold  = 1.00e-08
  Integral threshold = 0.00e+00

  ==> Primary Basis <==

  Basis Set: CC-PVTZ
    Number of shells: 98
    Number of basis function: 262
    Number of Cartesian functions: 295
    Spherical Harmonics?: true
    Max angular momentum: 3

  ==> Pre-Iterations <==

   -------------------------------------------------------
    Irrep   Nso     Nmo     Nalpha   Nbeta   Ndocc  Nsocc
   -------------------------------------------------------
     A        262     262       0       0       0       0
   -------------------------------------------------------
    Total     262     262      21      21      21       0
   -------------------------------------------------------

 OEINTS: Overlap, kinetic, potential, dipole, and quadrupole integrals
         stored in file 35.

  ==> Integral Setup <==

  ==> DFJK: Density-Fitted J/K Matrices <==

    J tasked:                  Yes
    K tasked:                  Yes
    wK tasked:                  No
    OpenMP threads:              4
    Integrals threads:           4
    Memory (MB):              1430
    Algorithm:                Core
    Integral Cache:           NONE
    Schwarz Cutoff:          1E-12
    Fitting Condition:       1E-12

   => Auxiliary Basis Set <=

  Basis Set: 
    Number of shells: 205
    Number of basis function: 635
    Number of Cartesian functions: 760
    Spherical Harmonics?: true
    Max angular momentum: 4

  Minimum eigenvalue in the overlap matrix is 7.9632551602E-04.
  Using Symmetric Orthogonalization.
  SCF Guess: Core (One-Electron) Hamiltonian.

  ==> Iterations <==

                           Total Energy        Delta E     RMS |[F,P]|

   @DF-RHF iter   1:  -202.43065415861031   -2.02431e+02   5.23731e-02 
   @DF-RHF iter   2:  -137.36074601251642    6.50699e+01   3.51257e-02 DIIS
   @DF-RHF iter   3:  -202.79227979108191   -6.54315e+01   3.26405e-02 DIIS
   @DF-RHF iter   4:  -243.10131463552869   -4.03090e+01   2.59454e-02 DIIS
   @DF-RHF iter   5:  -266.61074217727418   -2.35094e+01   7.25544e-03 DIIS
   @DF-RHF iter   6:  -267.86657827711099   -1.25584e+00   2.73795e-03 DIIS
   @DF-RHF iter   7:  -268.05224463188875   -1.85666e-01   3.83581e-04 DIIS
   @DF-RHF iter   8:  -268.05767438548185   -5.42975e-03   1.18708e-04 DIIS
   @DF-RHF iter   9:  -268.05830302142635   -6.28636e-04   3.31746e-05 DIIS
   @DF-RHF iter  10:  -268.05835131072979   -4.82893e-05   8.69258e-06 DIIS
   @DF-RHF iter  11:  -268.05835519226378   -3.88153e-06   2.73689e-06 DIIS
   @DF-RHF iter  12:  -268.05835563585197   -4.43588e-07   1.08825e-06 DIIS
   @DF-RHF iter  13:  -268.05835569433555   -5.84836e-08   2.33703e-07 DIIS
   @DF-RHF iter  14:  -268.05835569776639   -3.43084e-09   5.79521e-08 DIIS
   @DF-RHF iter  15:  -268.05835569804754   -2.81148e-10   1.35455e-08 DIIS
   @DF-RHF iter  16:  -268.05835569806186   -1.43245e-11   2.87381e-09 DIIS

  ==> Post-Iterations <==

    Orbital Energies (a.u.)
    -----------------------

    Doubly Occupied:                                                      

       1A    -20.553105     2A    -20.552722     3A    -11.269888  
       4A    -11.267152     5A    -11.266846     6A     -1.391005  
       7A     -1.369012     8A     -1.019120     9A     -0.913588  
      10A     -0.843787    11A     -0.711518    12A     -0.674265  
      13A     -0.662447    14A     -0.639840    15A     -0.597747  
      16A     -0.568671    17A     -0.551128    18A     -0.491340  
      19A     -0.484327    20A     -0.441669    21A     -0.419205  

    Virtual:                                                              

      22A      0.137479    23A      0.151932    24A      0.182178  
      25A      0.193810    26A      0.204553    27A      0.222277  
      28A      0.229827    29A      0.250840    30A      0.267351  
      31A      0.327250    32A      0.343090    33A      0.369199  
      34A      0.409177    35A      0.416917    36A      0.452205  
      37A      0.463617    38A      0.516835    39A      0.544534  
      40A      0.566048    41A      0.577516    42A      0.594548  
      43A      0.597781    44A      0.626655    45A      0.629641  
      46A      0.635212    47A      0.647324    48A      0.670290  
      49A      0.674234    50A      0.681546    51A      0.710944  
      52A      0.739785    53A      0.756658    54A      0.768330  
      55A      0.790606    56A      0.808695    57A      0.831197  
      58A      0.901503    59A      0.912724    60A      0.931586  
      61A      0.960036    62A      0.985663    63A      1.007161  
      64A      1.028743    65A      1.081292    66A      1.102620  
      67A      1.138444    68A      1.140991    69A      1.192094  
      70A      1.199115    71A      1.203398    72A      1.239263  
      73A      1.242833    74A      1.282394    75A      1.289481  
      76A      1.296496    77A      1.310354    78A      1.328959  
      79A      1.347215    80A      1.384060    81A      1.398445  
      82A      1.415222    83A      1.449703    84A      1.466451  
      85A      1.492921    86A      1.513156    87A      1.535418  
      88A      1.545610    89A      1.553053    90A      1.576789  
      91A      1.580842    92A      1.592708    93A      1.622948  
      94A      1.634499    95A      1.702941    96A      1.735322  
      97A      1.788173    98A      1.829142    99A      1.885180  
     100A      2.029078   101A      2.114972   102A      2.195716  
     103A      2.217841   104A      2.231759   105A      2.298976  
     106A      2.318422   107A      2.344200   108A      2.400877  
     109A      2.429589   110A      2.483320   111A      2.510789  
     112A      2.560037   113A      2.601543   114A      2.641976  
     115A      2.654322   116A      2.728051   117A      2.765740  
     118A      2.823740   119A      2.835902   120A      2.894531  
     121A      2.917743   122A      2.960804   123A      3.014444  
     124A      3.059508   125A      3.085736   126A      3.112860  
     127A      3.126698   128A      3.151643   129A      3.157371  
     130A      3.204171   131A      3.211470   132A      3.259752  
     133A      3.270214   134A      3.274019   135A      3.286888  
     136A      3.315127   137A      3.326769   138A      3.335208  
     139A      3.374173   140A      3.392308   141A      3.409366  
     142A      3.419647   143A      3.435930   144A      3.456928  
     145A      3.481144   146A      3.492112   147A      3.530025  
     148A      3.537188   149A      3.594031   150A      3.614661  
     151A      3.648257   152A      3.660968   153A      3.695707  
     154A      3.712240   155A      3.731585   156A      3.744268  
     157A      3.759958   158A      3.768108   159A      3.798332  
     160A      3.816987   161A      3.825604   162A      3.837349  
     163A      3.880494   164A      3.915967   165A      3.933375  
     166A      3.957609   167A      4.015798   168A      4.046638  
     169A      4.069546   170A      4.080774   171A      4.127860  
     172A      4.135642   173A      4.141161   174A      4.159071  
     175A      4.171798   176A      4.188452   177A      4.248020  
     178A      4.267198   179A      4.273599   180A      4.297869  
     181A      4.312340   182A      4.334648   183A      4.343387  
     184A      4.355221   185A      4.381383   186A      4.426748  
     187A      4.437818   188A      4.469561   189A      4.485976  
     190A      4.526202   191A      4.560553   192A      4.576371  
     193A      4.593036   194A      4.623230   195A      4.631400  
     196A      4.678716   197A      4.731316   198A      4.736623  
     199A      4.776472   200A      4.810542   201A      4.858742  
     202A      5.011861   203A      5.024273   204A      5.035257  
     205A      5.069272   206A      5.106817   207A      5.139051  
     208A      5.181078   209A      5.206051   210A      5.255680  
     211A      5.277371   212A      5.286161   213A      5.364857  
     214A      5.385819   215A      5.400923   216A      5.442648  
     217A      5.456523   218A      5.487909   219A      5.516149  
     220A      5.535896   221A      5.564225   222A      5.608035  
     223A      5.651207   224A      5.713108   225A      5.769634  
     226A      5.808899   227A      5.824473   228A      5.924542  
     229A      5.956085   230A      6.004452   231A      6.037911  
     232A      6.065449   233A      6.151231   234A      6.217106  
     235A      6.258563   236A      6.305872   237A      6.348351  
     238A      6.417629   239A      6.532769   240A      6.626876  
     241A      6.705547   242A      6.732055   243A      6.852661  
     244A      6.946927   245A      7.073834   246A      7.170424  
     247A      7.237432   248A      7.284678   249A      7.314492  
     250A      7.341467   251A      7.420982   252A      7.517111  
     253A      7.587348   254A      7.680499   255A      7.830610  
     256A      7.909055   257A      8.028751   258A     11.514221  
     259A     12.707666   260A     13.352625   261A     13.919071  
     262A     14.218174  

    Final Occupation by Irrep:
              A 
    DOCC [    21 ]

  Energy converged.

  @DF-RHF Final Energy:  -268.05835569806186

   => Energetics <=

    Nuclear Repulsion Energy =            190.5365214563499876
    One-Electron Energy =                -743.8129905747198336
    Two-Electron Energy =                 285.2181134203079296
    DFT Exchange-Correlation Energy =       0.0000000000000000
    Empirical Dispersion Energy =           0.0000000000000000
    PCM Polarization Energy =               0.0000000000000000
    EFP Energy =                            0.0000000000000000
    Total Energy =                       -268.0583556980619164

    Alert: EFP and PCM quantities not currently incorporated into SCF psivars.

Properties will be evaluated at   0.000000,   0.000000,   0.000000 Bohr
  ==> Properties <==


Properties computed using the SCF density matrix

  Nuclear Dipole Moment: (a.u.)
     X:     2.8585      Y:    -2.2055      Z:    -0.2529

  Electronic Dipole Moment: (a.u.)
     X:    -2.5880      Y:     1.4348      Z:     0.3184

  Dipole Moment: (a.u.)
     X:     0.2705      Y:    -0.7707      Z:     0.0655     Total:     0.8194

  Dipole Moment: (Debye)
     X:     0.6876      Y:    -1.9590      Z:     0.1664     Total:     2.0828


  Saving occupied orbitals to File 180.

*** tstop() called on cx1-27-3-1 at Fri Sep  9 23:50:40 2016
Module time:
	user time   =      21.80 seconds =       0.36 minutes
	system time =       0.32 seconds =       0.01 minutes
	total time  =          7 seconds =       0.12 minutes
Total time:
	user time   =      21.80 seconds =       0.36 minutes
	system time =       0.32 seconds =       0.01 minutes
	total time  =          7 seconds =       0.12 minutes

*** tstart() called on cx1-27-3-1
*** at Fri Sep  9 23:50:40 2016


         ------------------------------------------------------------
                                   SCF GRAD                          
                          Rob Parrish, Justin Turney,                
                       Andy Simmonett, and Alex Sokolov              
         ------------------------------------------------------------

  ==> Geometry <==

    Molecular point group: c1
    Full point group: C1

    Geometry (in Angstrom), charge = 0, multiplicity = 1:

       Center              X                  Y                   Z               Mass       
    ------------   -----------------  -----------------  -----------------  -----------------
           H         -2.286880648186    -0.167880238043     1.437855513267     1.007825032070
           O         -1.886634648186     0.663958761957     1.262504513267    15.994914619560
           C         -1.128065648186     0.598095761957     0.087611513267    12.000000000000
           C          0.156611351814    -0.178422238043     0.298366513267    12.000000000000
           H         -1.691754648186     0.154441761957    -0.726977486733     1.007825032070
           H         -0.892076648186     1.614607761957    -0.192910486733     1.007825032070
           O          0.859978351814    -0.192849238043    -0.900181486733    15.994914619560
           H         -0.072008648186    -1.195853238043     0.620022513267     1.007825032070
           H          0.739242351814     0.290382761957     1.088516513267     1.007825032070
           C          2.083363351814    -0.849832238043    -0.846109486733    12.000000000000
           H          2.193831351814    -1.552514238043    -1.669097486733     1.007825032070
           H          2.862501351814    -0.105163238043    -0.917511486733     1.007825032070
           H          2.201615351814    -1.393045238043     0.088479513267     1.007825032070

  Nuclear repulsion =  190.536521456349988

  ==> Basis Set <==

  Basis Set: CC-PVTZ
    Number of shells: 98
    Number of basis function: 262
    Number of Cartesian functions: 295
    Spherical Harmonics?: true
    Max angular momentum: 3

  ==> DFJKGrad: Density-Fitted SCF Gradients <==

    Gradient:                    1
    J tasked:                  Yes
    K tasked:                  Yes
    wK tasked:                  No
    OpenMP threads:              4
    Integrals threads:           4
    Memory (MB):              1430
    Schwarz Cutoff:          0E+00
    Fitting Condition:       1E-12

   => Auxiliary Basis Set <=

  Basis Set: 
    Number of shells: 205
    Number of basis function: 635
    Number of Cartesian functions: 760
    Spherical Harmonics?: true
    Max angular momentum: 4


  -Total Gradient:
     Atom            X                  Y                   Z
    ------   -----------------  -----------------  -----------------
       1       -0.000009066057     0.000005173405     0.000022388959
       2        0.000064489256    -0.000015077587    -0.000134793734
       3       -0.000273674908     0.000034848416    -0.000101112242
       4        0.002048570022    -0.001679339303    -0.000584017817
       5       -0.000031347697     0.000015046545     0.000037571625
       6        0.000023201590    -0.000030309571     0.000044903060
       7        0.006913095158     0.004997773784     0.001008157140
       8        0.000292820571    -0.000524419353     0.000129712894
       9        0.000552493189    -0.000201035373    -0.000089663449
      10       -0.005613384011    -0.001150652977    -0.000838048629
      11        0.003544043836    -0.003150260138    -0.001506153878
      12       -0.006522546011     0.001547586700    -0.000492855698
      13       -0.000988694941     0.000150665451     0.002503911768


*** tstop() called on cx1-27-3-1 at Fri Sep  9 23:50:52 2016
Module time:
	user time   =      45.42 seconds =       0.76 minutes
	system time =       0.52 seconds =       0.01 minutes
	total time  =         12 seconds =       0.20 minutes
Total time:
	user time   =      67.24 seconds =       1.12 minutes
	system time =       0.84 seconds =       0.01 minutes
	total time  =         19 seconds =       0.32 minutes
CURRENT ENERGY: -268.0583556981

			-----------------------------------------
			 OPTKING 2.0: for geometry optimizations 
			  - R.A. King,  Bethel University        
			-----------------------------------------

	Internal coordinates to be generated automatically.
	Detected frag with atoms:  1 2 3 4 5 6 7 8 9 10 11 12 13
	---Fragment 1 Bond Connectivity---
	 1 : 2
	 2 : 1 3
	 3 : 2 4 5 6
	 4 : 3 7 8 9
	 5 : 3
	 6 : 3
	 7 : 4 10
	 8 : 4
	 9 : 4
	 10 : 7 11 12 13
	 11 : 10
	 12 : 10
	 13 : 10

	Assuming in current code that numbering for constraints corresponds to unified fragment.
	Frozen dihedral atom list: 
	     4     7    10    13
	---Fragment 1 Geometry and Gradient---
	 H          -4.3215781237       -0.3172476730        2.7171531387
	 O          -3.5652227979        1.2547002236        2.3857877716
	 C          -2.1317351350        1.1302371913        0.1655617662
	 C           0.2959525642       -0.3371691659        0.5638309973
	 H          -3.1969529691        0.2918526336       -1.3737883547
	 H          -1.6857805546        3.0511664821       -0.3645479881
	 O           1.6251235651       -0.3644322448       -1.7010964798
	 H          -0.1360766243       -2.2598351150        1.1716727463
	 H           1.3969655908        0.5487438938        2.0569981012
	 C           3.9369861702       -1.6059501888       -1.5989152084
	 H           4.1457404367       -2.9338267273       -3.1541371390
	 H           5.4093436099       -0.1987297191       -1.7338454337
	 H           4.1604500649       -2.6324739906        0.1672020484
	            -0.0000090661        0.0000051734        0.0000223890
	             0.0000644893       -0.0000150776       -0.0001347937
	            -0.0002736749        0.0000348484       -0.0001011122
	             0.0020485700       -0.0016793393       -0.0005840178
	            -0.0000313477        0.0000150465        0.0000375716
	             0.0000232016       -0.0000303096        0.0000449031
	             0.0069130952        0.0049977738        0.0010081571
	             0.0002928206       -0.0005244194        0.0001297129
	             0.0005524932       -0.0002010354       -0.0000896634
	            -0.0056133840       -0.0011506530       -0.0008380486
	             0.0035440438       -0.0031502601       -0.0015061539
	            -0.0065225460        0.0015475867       -0.0004928557
	            -0.0009886949        0.0001506655        0.0025039118

	Previous optimization step data not found.  Starting new optimization.

	---Fragment 1 Intrafragment Coordinates---
	 - Coordinate -           - BOHR/RAD -       - ANG/DEG -
	 R(1,2)           =         1.775640	       0.939628
	 R(2,3)           =         2.645710	       1.400050
	 R(3,4)           =         2.864536	       1.515847
	 R(3,5)           =         2.051140	       1.085417
	 R(3,6)           =         2.042024	       1.080593
	 R(4,7)           =         2.626278	       1.389766
	 R(4,8)           =         2.062223	       1.091282
	 R(4,9)           =         2.055874	       1.087922
	 R(7,10)          =         2.626122	       1.389684
	 R(10,11)         =         2.055614	       1.087784
	 R(10,12)         =         2.041155	       1.080133
	 R(10,13)         =         2.054959	       1.087438
	 B(1,2,3)         =         1.923836	     110.227698
	 B(2,3,4)         =         1.946161	     111.506793
	 B(2,3,5)         =         1.947266	     111.570100
	 B(2,3,6)         =         1.867034	     106.973175
	 B(3,4,7)         =         1.890553	     108.320702
	 B(3,4,8)         =         1.918811	     109.939783
	 B(3,4,9)         =         1.911455	     109.518300
	 B(4,3,5)         =         1.912497	     109.577990
	 B(4,3,6)         =         1.910172	     109.444780
	 B(4,7,10)        =         2.000820	     114.638539
	 B(5,3,6)         =         1.878731	     107.643379
	 B(7,4,8)         =         1.928949	     110.520638
	 B(7,4,9)         =         1.938843	     111.087528
	 B(7,10,11)       =         1.944808	     111.429268
	 B(7,10,12)       =         1.882324	     107.849249
	 B(7,10,13)       =         1.944783	     111.427887
	 B(8,4,9)         =         1.875359	     107.450147
	 B(11,10,12)      =         1.898726	     108.788991
	 B(11,10,13)      =         1.892833	     108.451363
	 B(12,10,13)      =         1.899444	     108.830148
	 D(1,2,3,4)       =        -1.286090	     -73.687506
	 D(1,2,3,5)       =         0.858790	      49.205067
	 D(1,2,3,6)       =         2.909181	     166.683794
	 D(2,3,4,7)       =        -3.132841	    -179.498566
	 D(2,3,4,8)       =         1.040949	      59.641982
	 D(2,3,4,9)       =        -1.015795	     -58.200740
	 D(3,4,7,10)      =         3.117099	     178.596598
	 D(4,7,10,11)     =         2.291343	     131.284274
	 D(4,7,10,12)     =        -1.909088	    -109.382685
	*D(4,7,10,13)     =         0.174533	       9.999988
	 D(5,3,4,7)       =         0.985714	      56.477263
	 D(5,3,4,8)       =        -1.123681	     -64.382189
	 D(5,3,4,9)       =         3.102761	     177.775089
	 D(6,3,4,7)       =        -1.070643	     -61.343342
	 D(6,3,4,8)       =         3.103147	     177.797206
	 D(6,3,4,9)       =         1.046403	      59.954484
	 D(8,4,7,10)      =        -1.062989	     -60.904772
	 D(9,4,7,10)      =         1.017043	      58.272290

	Current energy   :      -268.0583556981

	Generating empirical Hessian (Schlegel '84) for each fragment.
	Taking RFO optimization step.
	Going to follow RFO solution 1.
	Using RFO vector 1.
	Norm of target step-size    0.10247
	Projected energy change by RFO approximation:        -0.0019015318

	Back-transformation to cartesian coordinates...
	Successfully converged to displaced geometry.

	Back-transformation to cartesian coordinates to adjust frozen coordinates...
	Successfully converged to displaced geometry.

	--- Internal Coordinate Step in ANG or DEG, aJ/ANG or AJ/DEG ---
	 ---------------------------------------------------------------------------
	   Coordinate                Previous        Force       Change         New 
	   ----------                --------       ------       ------       ------
	    1 R(1,2)          =      0.939628    -0.000029    -0.000003     0.939625
	    2 R(2,3)          =      1.400050     0.001028     0.000144     1.400194
	    3 R(3,4)          =      1.515847    -0.001772    -0.000368     1.515479
	    4 R(3,5)          =      1.085417     0.000149     0.000027     1.085444
	    5 R(3,6)          =      1.080593     0.000289     0.000051     1.080644
	    6 R(4,7)          =      1.389766     0.016123     0.002179     1.391946
	    7 R(4,8)          =      1.091282    -0.003838    -0.000708     1.090574
	    8 R(4,9)          =      1.087922    -0.001187    -0.000217     1.087705
	    9 R(7,10)         =      1.389684     0.059456     0.008034     1.397718
	   10 R(10,11)        =      1.087784    -0.029119    -0.005309     1.082475
	   11 R(10,12)        =      1.080133     0.029704     0.005279     1.085412
	   12 R(10,13)        =      1.087438    -0.016224    -0.002954     1.084483
	   13 B(1,2,3)        =    110.227698    -0.000003    -0.015263   110.212434
	   14 B(2,3,4)        =    111.506793    -0.000001    -0.000702   111.506091
	   15 B(2,3,5)        =    111.570100     0.000003     0.010325   111.580425
	   16 B(2,3,6)        =    106.973175     0.000000     0.012771   106.985947
	   17 B(3,4,7)        =    108.320702    -0.000024    -0.089159   108.231544
	   18 B(3,4,8)        =    109.939783    -0.000016    -0.154030   109.785753
	   19 B(3,4,9)        =    109.518300    -0.000035    -0.236752   109.281548
	   20 B(4,3,5)        =    109.577990    -0.000004    -0.027647   109.550343
	   21 B(4,3,6)        =    109.444780     0.000003     0.021170   109.465950
	   22 B(4,7,10)       =    114.638539     0.000653     1.953393   116.591932
	   23 B(5,3,6)        =    107.643379    -0.000001    -0.014850   107.628529
	   24 B(7,4,8)        =    110.520638     0.000021     0.130020   110.650658
	   25 B(7,4,9)        =    111.087528     0.000038     0.247802   111.335331
	   26 B(7,10,11)      =    111.429268    -0.000537    -2.847377   108.581890
	   27 B(7,10,12)      =    107.849249     0.000674     3.514072   111.363321
	   28 B(7,10,13)      =    111.427887     0.000161     0.682579   112.110466
	   29 B(8,4,9)        =    107.450147     0.000015     0.094735   107.544881
	   30 B(11,10,12)     =    108.788991    -0.000082    -0.311881   108.477110
	   31 B(11,10,13)     =    108.451363     0.000092    -0.268612   108.182751
	   32 B(12,10,13)     =    108.830148    -0.000315    -0.813341   108.016807
	   33 D(1,2,3,4)      =    -73.687506     0.000001     0.004949   -73.682557
	   34 D(1,2,3,5)      =     49.205067    -0.000000    -0.023929    49.181137
	   35 D(1,2,3,6)      =    166.683794    -0.000000    -0.028468   166.655326
	   36 D(2,3,4,7)      =   -179.498566    -0.000001    -0.048757  -179.547323
	   37 D(2,3,4,8)      =     59.641982    -0.000001    -0.059894    59.582087
	   38 D(2,3,4,9)      =    -58.200740     0.000002     0.056218   -58.144521
	   39 D(3,4,7,10)     =    178.596598    -0.000002    -0.446107   178.150491
	   40 D(4,7,10,11)    =    131.284274    -0.000033    -1.817090   129.467183
	   41 D(4,7,10,12)    =   -109.382685    -0.000031    -1.774951  -111.157636
	   42 *D(4,7,10,13)   =      9.999988    -0.000000     0.000000     9.999988
	   43 D(5,3,4,7)      =     56.477263    -0.000001    -0.041707    56.435556
	   44 D(5,3,4,8)      =    -64.382189    -0.000001    -0.052845   -64.435034
	   45 D(5,3,4,9)      =    177.775089     0.000002     0.063268   177.838357
	   46 D(6,3,4,7)      =    -61.343342    -0.000000    -0.019925   -61.363267
	   47 D(6,3,4,8)      =    177.797206    -0.000001    -0.031063   177.766143
	   48 D(6,3,4,9)      =     59.954484     0.000002     0.085050    60.039534
	   49 D(8,4,7,10)     =    -60.904772    -0.000007    -0.612739   -61.517511
	   50 D(9,4,7,10)     =     58.272290     0.000006    -0.247696    58.024594
	 ---------------------------------------------------------------------------

  ==> Convergence Check <==

  Measures of convergence in internal coordinates in au.
  Criteria marked as inactive (o), active & met (*), and active & unmet ( ).
  --------------------------------------------------------------------------------------------- ~
   Step     Total Energy     Delta E     MAX Force     RMS Force      MAX Disp      RMS Disp    ~
  --------------------------------------------------------------------------------------------- ~
    Convergence Criteria    1.00e-06 *    3.00e-04 *             o    1.20e-03 *             o  ~
  --------------------------------------------------------------------------------------------- ~
      1    -268.05835570   -2.68e+02      8.86e-03      2.53e-03 o    6.13e-02      1.45e-02 o  ~
  ---------------------------------------------------------------------------------------------

	Writing optimization data to binary file.
	Structure for next step:
	Cartesian Geometry (in Angstrom)
	    H    -2.3095953961  -0.1639350826   1.4270189266
	    O    -1.9067064598   0.6672215149   1.2545237191
	    C    -1.1338749884   0.5976205530   0.0890066479
	    C     0.1471648923  -0.1792040349   0.3173885691
	    H    -1.6876804608   0.1518242305  -0.7312086725
	    H    -0.8939914604   1.6131858859  -0.1918392825
	    O     0.8641068326  -0.1972067436  -0.8755839281
	    H    -0.0889241721  -1.1939975746   0.6395800475
	    H     0.7167503613   0.2936744960   1.1142958828
	    C     2.1049403771  -0.8400934878  -0.8501956263
	    H     2.1475954248  -1.5402693382  -1.6746270081
	    H     2.9197901960  -0.1312650226  -0.9583683115
	    H     2.2601476670  -1.3916286672   0.0705776803
			--------------------------
			 OPTKING Finished Execution 
			--------------------------

    Structure for next step:
    Molecular point group: c1
    Full point group: C1

    Geometry (in Angstrom), charge = 0, multiplicity = 1:

    H           -2.307367021908    -0.164945234752     1.421383880693
    O           -1.904478116387     0.666211299258     1.248888686356
    C           -1.131646704044     0.596610342668     0.083371704098
    C            0.149393078896    -0.180214185924     0.311753607880
    H           -1.685452134160     0.150814054252    -0.736843553599
    H           -0.891763194304     1.612175597993    -0.197474204832
    O            0.866334964387    -0.198216893231    -0.881218798152
    H           -0.086695967491    -1.195007648132     0.633945061707
    H            0.718978504348     0.292664308889     1.108660860716
    C            2.107168414121    -0.841103588367    -0.855830498314
    H            2.149823458617    -1.541279385244    -1.680261817181
    H            2.922018170835    -0.132275177230    -0.964003175273
    H            2.262375692184    -1.392638725582     0.064942737903

gradient() will perform analytic gradient computation.

*** tstart() called on cx1-27-3-1
*** at Fri Sep  9 23:50:53 2016


         ---------------------------------------------------------
                                   SCF
            by Justin Turney, Rob Parrish, and Andy Simmonett
                              RHF Reference
                        4 Threads,   2000 MiB Core
         ---------------------------------------------------------

  ==> Geometry <==

    Molecular point group: c1
    Full point group: C1

    Geometry (in Angstrom), charge = 0, multiplicity = 1:

       Center              X                  Y                   Z               Mass       
    ------------   -----------------  -----------------  -----------------  -----------------
           H         -2.307367021908    -0.164945234752     1.421383880693     1.007825032070
           O         -1.904478116387     0.666211299258     1.248888686356    15.994914619560
           C         -1.131646704044     0.596610342668     0.083371704098    12.000000000000
           C          0.149393078896    -0.180214185924     0.311753607880    12.000000000000
           H         -1.685452134160     0.150814054252    -0.736843553599     1.007825032070
           H         -0.891763194304     1.612175597993    -0.197474204832     1.007825032070
           O          0.866334964387    -0.198216893231    -0.881218798152    15.994914619560
           H         -0.086695967491    -1.195007648132     0.633945061707     1.007825032070
           H          0.718978504349     0.292664308889     1.108660860716     1.007825032070
           C          2.107168414121    -0.841103588367    -0.855830498314    12.000000000000
           H          2.149823458617    -1.541279385244    -1.680261817181     1.007825032070
           H          2.922018170835    -0.132275177230    -0.964003175273     1.007825032070
           H          2.262375692184    -1.392638725582     0.064942737903     1.007825032070

  Running in c1 symmetry.

  Rotational constants: A =      0.78183  B =      0.07156  C =      0.06839 [cm^-1]
  Rotational constants: A =  23438.79438  B =   2145.26082  C =   2050.29479 [MHz]
  Nuclear repulsion =  190.021814190126435

  Charge       = 0
  Multiplicity = 1
  Electrons    = 42
  Nalpha       = 21
  Nbeta        = 21

  ==> Algorithm <==

  SCF Algorithm Type is DF.
  DIIS enabled.
  MOM disabled.
  Fractional occupation disabled.
  Guess Type is READ.
  Energy threshold   = 1.00e-08
  Density threshold  = 1.00e-08
  Integral threshold = 0.00e+00

  ==> Primary Basis <==

  Basis Set: CC-PVTZ
    Number of shells: 98
    Number of basis function: 262
    Number of Cartesian functions: 295
    Spherical Harmonics?: true
    Max angular momentum: 3

  ==> Pre-Iterations <==

   -------------------------------------------------------
    Irrep   Nso     Nmo     Nalpha   Nbeta   Ndocc  Nsocc
   -------------------------------------------------------
     A        262     262       0       0       0       0
   -------------------------------------------------------
    Total     262     262      21      21      21       0
   -------------------------------------------------------

 OEINTS: Overlap, kinetic, potential, dipole, and quadrupole integrals
         stored in file 35.

  ==> Integral Setup <==

  ==> DFJK: Density-Fitted J/K Matrices <==

    J tasked:                  Yes
    K tasked:                  Yes
    wK tasked:                  No
    OpenMP threads:              4
    Integrals threads:           4
    Memory (MB):              1430
    Algorithm:                Core
    Integral Cache:           NONE
    Schwarz Cutoff:          1E-12
    Fitting Condition:       1E-12

   => Auxiliary Basis Set <=

  Basis Set: 
    Number of shells: 205
    Number of basis function: 635
    Number of Cartesian functions: 760
    Spherical Harmonics?: true
    Max angular momentum: 4

  Minimum eigenvalue in the overlap matrix is 8.0706060191E-04.
  Using Symmetric Orthogonalization.
  SCF Guess: Reading in previously saved MOs, projecting if necessary.

  Using orbitals from previous SCF, no projection.
  Recomputing DOCC and SOCC from number of alpha and beta electrons from previous calculation.
              A 
    DOCC [    21 ]

  ==> Iterations <==

                           Total Energy        Delta E     RMS |[F,P]|

   @DF-RHF iter   0:  -268.05324687198481   -2.68053e+02   2.35711e-04 
   @DF-RHF iter   1:  -268.05871615270632   -5.46928e-03   4.03535e-05 
   @DF-RHF iter   2:  -268.05880679272263   -9.06400e-05   1.54004e-05 DIIS
   @DF-RHF iter   3:  -268.05882056505948   -1.37723e-05   7.98228e-06 DIIS
   @DF-RHF iter   4:  -268.05882332698900   -2.76193e-06   1.61041e-06 DIIS
   @DF-RHF iter   5:  -268.05882352213030   -1.95141e-07   5.99603e-07 DIIS
   @DF-RHF iter   6:  -268.05882355207336   -2.99431e-08   1.85795e-07 DIIS
   @DF-RHF iter   7:  -268.05882355439473   -2.32137e-09   4.82425e-08 DIIS
   @DF-RHF iter   8:  -268.05882355455969   -1.64960e-10   1.42448e-08 DIIS
   @DF-RHF iter   9:  -268.05882355456970   -1.00044e-11   4.49891e-09 DIIS

  ==> Post-Iterations <==

    Orbital Energies (a.u.)
    -----------------------

    Doubly Occupied:                                                      

       1A    -20.552831     2A    -20.552656     3A    -11.269818  
       4A    -11.267655     5A    -11.266992     6A     -1.386585  
       7A     -1.368334     8A     -1.019306     9A     -0.914628  
      10A     -0.842199    11A     -0.710952    12A     -0.673544  
      13A     -0.660466    14A     -0.637013    15A     -0.598765  
      16A     -0.569717    17A     -0.550417    18A     -0.490843  
      19A     -0.483266    20A     -0.441137    21A     -0.419447  

    Virtual:                                                              

      22A      0.137506    23A      0.151571    24A      0.182605  
      25A      0.193368    26A      0.204858    27A      0.221724  
      28A      0.229257    29A      0.251207    30A      0.266151  
      31A      0.327707    32A      0.344400    33A      0.371058  
      34A      0.405808    35A      0.415295    36A      0.452400  
      37A      0.459265    38A      0.513564    39A      0.544695  
      40A      0.565804    41A      0.575819    42A      0.594342  
      43A      0.598015    44A      0.626176    45A      0.629862  
      46A      0.634065    47A      0.648449    48A      0.671546  
      49A      0.673525    50A      0.680990    51A      0.711472  
      52A      0.739263    53A      0.752548    54A      0.771789  
      55A      0.780215    56A      0.808630    57A      0.832557  
      58A      0.900885    59A      0.916914    60A      0.932102  
      61A      0.965358    62A      0.987152    63A      1.009101  
      64A      1.025227    65A      1.080940    66A      1.100137  
      67A      1.137798    68A      1.143349    69A      1.192428  
      70A      1.198937    71A      1.203354    72A      1.235248  
      73A      1.247494    74A      1.282688    75A      1.290241  
      76A      1.293712    77A      1.311269    78A      1.320797  
      79A      1.342646    80A      1.380774    81A      1.390782  
      82A      1.408302    83A      1.450805    84A      1.472022  
      85A      1.493842    86A      1.513944    87A      1.533571  
      88A      1.541429    89A      1.548558    90A      1.568743  
      91A      1.580437    92A      1.596484    93A      1.619308  
      94A      1.636967    95A      1.701708    96A      1.733873  
      97A      1.790918    98A      1.826515    99A      1.886784  
     100A      2.030230   101A      2.112667   102A      2.189995  
     103A      2.221271   104A      2.230132   105A      2.298888  
     106A      2.313727   107A      2.342557   108A      2.404152  
     109A      2.428600   110A      2.477063   111A      2.502426  
     112A      2.553025   113A      2.600999   114A      2.633264  
     115A      2.655105   116A      2.727510   117A      2.763990  
     118A      2.820902   119A      2.828484   120A      2.893868  
     121A      2.919886   122A      2.961008   123A      3.016032  
     124A      3.056894   125A      3.086422   126A      3.112445  
     127A      3.129644   128A      3.151582   129A      3.159477  
     130A      3.205311   131A      3.208116   132A      3.247920  
     133A      3.262448   134A      3.273578   135A      3.290891  
     136A      3.314842   137A      3.329695   138A      3.332122  
     139A      3.368568   140A      3.389318   141A      3.414415  
     142A      3.421687   143A      3.436903   144A      3.460390  
     145A      3.481146   146A      3.490977   147A      3.525618  
     148A      3.537822   149A      3.589598   150A      3.616896  
     151A      3.643955   152A      3.657776   153A      3.693027  
     154A      3.715457   155A      3.734657   156A      3.748934  
     157A      3.752000   158A      3.774693   159A      3.791803  
     160A      3.815243   161A      3.819709   162A      3.834118  
     163A      3.877788   164A      3.912849   165A      3.933341  
     166A      3.935958   167A      4.019130   168A      4.037317  
     169A      4.062848   170A      4.080165   171A      4.120814  
     172A      4.126212   173A      4.137537   174A      4.161324  
     175A      4.169877   176A      4.187387   177A      4.243472  
     178A      4.266957   179A      4.276398   180A      4.296734  
     181A      4.311089   182A      4.332648   183A      4.340625  
     184A      4.355565   185A      4.373408   186A      4.426352  
     187A      4.434868   188A      4.462881   189A      4.492215  
     190A      4.528178   191A      4.561596   192A      4.577738  
     193A      4.599344   194A      4.624087   195A      4.636831  
     196A      4.675436   197A      4.722005   198A      4.736446  
     199A      4.774992   200A      4.804680   201A      4.854566  
     202A      5.002670   203A      5.023080   204A      5.031994  
     205A      5.065095   206A      5.108034   207A      5.134344  
     208A      5.180727   209A      5.205743   210A      5.254921  
     211A      5.271342   212A      5.286387   213A      5.362722  
     214A      5.391661   215A      5.395081   216A      5.430133  
     217A      5.452419   218A      5.484452   219A      5.493854  
     220A      5.533420   221A      5.561317   222A      5.608487  
     223A      5.647957   224A      5.712315   225A      5.768206  
     226A      5.808163   227A      5.822648   228A      5.921018  
     229A      5.944500   230A      5.986991   231A      6.036442  
     232A      6.046461   233A      6.151149   234A      6.215014  
     235A      6.266277   236A      6.294723   237A      6.348720  
     238A      6.417554   239A      6.522871   240A      6.638817  
     241A      6.704447   242A      6.740406   243A      6.836722  
     244A      6.937672   245A      7.073382   246A      7.170556  
     247A      7.237040   248A      7.283557   249A      7.303873  
     250A      7.328256   251A      7.419434   252A      7.517294  
     253A      7.592552   254A      7.680270   255A      7.831770  
     256A      7.913395   257A      8.028484   258A     11.458204  
     259A     12.701736   260A     13.336033   261A     13.893117  
     262A     14.170521  

    Final Occupation by Irrep:
              A 
    DOCC [    21 ]

  Energy converged.

  @DF-RHF Final Energy:  -268.05882355456970

   => Energetics <=

    Nuclear Repulsion Energy =            190.0218141901264346
    One-Electron Energy =                -742.8081299951466008
    Two-Electron Energy =                 284.7274922504503820
    DFT Exchange-Correlation Energy =       0.0000000000000000
    Empirical Dispersion Energy =           0.0000000000000000
    PCM Polarization Energy =               0.0000000000000000
    EFP Energy =                            0.0000000000000000
    Total Energy =                       -268.0588235545698126

    Alert: EFP and PCM quantities not currently incorporated into SCF psivars.

Properties will be evaluated at   0.000000,   0.000000,   0.000000 Bohr
  ==> Properties <==


Properties computed using the SCF density matrix

  Nuclear Dipole Moment: (a.u.)
     X:     2.8842      Y:    -2.2200      Z:    -0.3260

  Electronic Dipole Moment: (a.u.)
     X:    -2.5972      Y:     1.4494      Z:     0.3865

  Dipole Moment: (a.u.)
     X:     0.2870      Y:    -0.7706      Z:     0.0604     Total:     0.8245

  Dipole Moment: (Debye)
     X:     0.7294      Y:    -1.9586      Z:     0.1536     Total:     2.0957


  Saving occupied orbitals to File 180.

*** tstop() called on cx1-27-3-1 at Fri Sep  9 23:50:59 2016
Module time:
	user time   =      18.03 seconds =       0.30 minutes
	system time =       0.23 seconds =       0.00 minutes
	total time  =          6 seconds =       0.10 minutes
Total time:
	user time   =      86.23 seconds =       1.44 minutes
	system time =       1.10 seconds =       0.02 minutes
	total time  =         26 seconds =       0.43 minutes

*** tstart() called on cx1-27-3-1
*** at Fri Sep  9 23:50:59 2016


         ------------------------------------------------------------
                                   SCF GRAD                          
                          Rob Parrish, Justin Turney,                
                       Andy Simmonett, and Alex Sokolov              
         ------------------------------------------------------------

  ==> Geometry <==

    Molecular point group: c1
    Full point group: C1

    Geometry (in Angstrom), charge = 0, multiplicity = 1:

       Center              X                  Y                   Z               Mass       
    ------------   -----------------  -----------------  -----------------  -----------------
           H         -2.307367021908    -0.164945234752     1.421383880693     1.007825032070
           O         -1.904478116387     0.666211299258     1.248888686356    15.994914619560
           C         -1.131646704044     0.596610342668     0.083371704098    12.000000000000
           C          0.149393078896    -0.180214185924     0.311753607880    12.000000000000
           H         -1.685452134160     0.150814054252    -0.736843553599     1.007825032070
           H         -0.891763194304     1.612175597993    -0.197474204832     1.007825032070
           O          0.866334964387    -0.198216893231    -0.881218798152    15.994914619560
           H         -0.086695967491    -1.195007648132     0.633945061707     1.007825032070
           H          0.718978504348     0.292664308889     1.108660860716     1.007825032070
           C          2.107168414121    -0.841103588367    -0.855830498314    12.000000000000
           H          2.149823458617    -1.541279385244    -1.680261817181     1.007825032070
           H          2.922018170835    -0.132275177230    -0.964003175273     1.007825032070
           H          2.262375692184    -1.392638725582     0.064942737903     1.007825032070

  Nuclear repulsion =  190.021814190126435

  ==> Basis Set <==

  Basis Set: CC-PVTZ
    Number of shells: 98
    Number of basis function: 262
    Number of Cartesian functions: 295
    Spherical Harmonics?: true
    Max angular momentum: 3

  ==> DFJKGrad: Density-Fitted SCF Gradients <==

    Gradient:                    1
    J tasked:                  Yes
    K tasked:                  Yes
    wK tasked:                  No
    OpenMP threads:              4
    Integrals threads:           4
    Memory (MB):              1430
    Schwarz Cutoff:          0E+00
    Fitting Condition:       1E-12

   => Auxiliary Basis Set <=

  Basis Set: 
    Number of shells: 205
    Number of basis function: 635
    Number of Cartesian functions: 760
    Spherical Harmonics?: true
    Max angular momentum: 4


  -Total Gradient:
     Atom            X                  Y                   Z
    ------   -----------------  -----------------  -----------------
       1        0.000009100999     0.000009707854    -0.000004907673
       2       -0.000153253005     0.000105941431     0.000031319053
       3        0.000021154296    -0.000149576027     0.000622309659
       4       -0.001926509299    -0.000740982287    -0.000560627603
       5        0.000070596859    -0.000042759017     0.000007648269
       6        0.000004326353     0.000036640974    -0.000022696672
       7       -0.001260862147     0.000181193845    -0.000412747188
       8       -0.000157796407     0.000110058522     0.000095600979
       9        0.000025327935     0.000126169539     0.000090976865
      10        0.001230694095     0.001570626557     0.000658207316
      11       -0.001018287750     0.000084231221     0.000411057659
      12        0.002221464084    -0.001549149625    -0.000428543317
      13        0.000934043983     0.000257897014    -0.000487597347


*** tstop() called on cx1-27-3-1 at Fri Sep  9 23:51:10 2016
Module time:
	user time   =      43.23 seconds =       0.72 minutes
	system time =       0.37 seconds =       0.01 minutes
	total time  =         11 seconds =       0.18 minutes
Total time:
	user time   =     129.48 seconds =       2.16 minutes
	system time =       1.47 seconds =       0.02 minutes
	total time  =         37 seconds =       0.62 minutes
CURRENT ENERGY: -268.0588235546

			-----------------------------------------
			 OPTKING 2.0: for geometry optimizations 
			  - R.A. King,  Bethel University        
			-----------------------------------------

	Previous internal coordinate definitions found.
	---Fragment 1 Geometry and Gradient---
	 H          -4.3602917595       -0.3117013206        2.6860262642
	 O          -3.5989420660        1.2589569022        2.3600575877
	 C          -2.1385023498        1.1274301557        0.1575496880
	 C           0.2823120053       -0.3405554567        0.5891289398
	 H          -3.1850429436        0.2849972595       -1.3924325191
	 H          -1.6851882126        3.0465703583       -0.3731721654
	 O           1.6371358220       -0.3745756431       -1.6652621917
	 H          -0.1638316354       -2.2582371817        1.1979825499
	 H           1.3586724687        0.5530553927        2.0950654010
	 C           3.9819712186       -1.5894554314       -1.6172852580
	 H           4.0625775708       -2.9125959324       -3.1752346660
	 H           5.5218140982       -0.2499638591       -1.8217019925
	 H           4.2752704679       -2.6317057934        0.1227239890
	             0.0000091010        0.0000097079       -0.0000049077
	            -0.0001532530        0.0001059414        0.0000313191
	             0.0000211543       -0.0001495760        0.0006223097
	            -0.0019265093       -0.0007409823       -0.0005606276
	             0.0000705969       -0.0000427590        0.0000076483
	             0.0000043264        0.0000366410       -0.0000226967
	            -0.0012608621        0.0001811938       -0.0004127472
	            -0.0001577964        0.0001100585        0.0000956010
	             0.0000253279        0.0001261695        0.0000909769
	             0.0012306941        0.0015706266        0.0006582073
	            -0.0010182877        0.0000842312        0.0004110577
	             0.0022214641       -0.0015491496       -0.0004285433
	             0.0009340440        0.0002578970       -0.0004875973

	---Fragment 1 Intrafragment Coordinates---
	 - Coordinate -           - BOHR/RAD -       - ANG/DEG -
	 R(1,2)           =         1.775634	       0.939625
	 R(2,3)           =         2.645983	       1.400194
	 R(3,4)           =         2.863841	       1.515479
	 R(3,5)           =         2.051191	       1.085444
	 R(3,6)           =         2.042121	       1.080644
	 R(4,7)           =         2.630396	       1.391946
	 R(4,8)           =         2.060886	       1.090574
	 R(4,9)           =         2.055465	       1.087705
	 R(7,10)          =         2.641304	       1.397718
	 R(10,11)         =         2.045582	       1.082475
	 R(10,12)         =         2.051131	       1.085412
	 R(10,13)         =         2.049376	       1.084483
	 B(1,2,3)         =         1.923570	     110.212434
	 B(2,3,4)         =         1.946148	     111.506091
	 B(2,3,5)         =         1.947446	     111.580425
	 B(2,3,6)         =         1.867257	     106.985947
	 B(3,4,7)         =         1.888997	     108.231544
	 B(3,4,8)         =         1.916123	     109.785753
	 B(3,4,9)         =         1.907323	     109.281548
	 B(4,3,5)         =         1.912014	     109.550343
	 B(4,3,6)         =         1.910541	     109.465950
	 B(4,7,10)        =         2.034913	     116.591932
	 B(5,3,6)         =         1.878472	     107.628529
	 B(7,4,8)         =         1.931218	     110.650658
	 B(7,4,9)         =         1.943168	     111.335331
	 B(7,10,11)       =         1.895111	     108.581890
	 B(7,10,12)       =         1.943657	     111.363321
	 B(7,10,13)       =         1.956697	     112.110466
	 B(8,4,9)         =         1.877012	     107.544881
	 B(11,10,12)      =         1.893283	     108.477110
	 B(11,10,13)      =         1.888145	     108.182751
	 B(12,10,13)      =         1.885249	     108.016807
	 D(1,2,3,4)       =        -1.286003	     -73.682557
	 D(1,2,3,5)       =         0.858373	      49.181137
	 D(1,2,3,6)       =         2.908684	     166.655326
	 D(2,3,4,7)       =        -3.133692	    -179.547323
	 D(2,3,4,8)       =         1.039904	      59.582087
	 D(2,3,4,9)       =        -1.014813	     -58.144521
	 D(3,4,7,10)      =         3.109313	     178.150491
	 D(4,7,10,11)     =         2.259629	     129.467183
	 D(4,7,10,12)     =        -1.940067	    -111.157636
	*D(4,7,10,13)     =         0.174533	       9.999988
	 D(5,3,4,7)       =         0.984986	      56.435556
	 D(5,3,4,8)       =        -1.124603	     -64.435034
	 D(5,3,4,9)       =         3.103865	     177.838357
	 D(6,3,4,7)       =        -1.070991	     -61.363267
	 D(6,3,4,8)       =         3.102604	     177.766143
	 D(6,3,4,9)       =         1.047888	      60.039534
	 D(8,4,7,10)      =        -1.073683	     -61.517511
	 D(9,4,7,10)      =         1.012720	      58.024594

	Current energy   :      -268.0588235546

	Energy change for the previous step:
		Projected    :        -0.0019015318
		Actual       :        -0.0004678565
	Energy ratio indicates iffy step: Trust radius decreased to 1.250e-01.


	Performing BFGS update.
	Previous computed or guess Hessian on step 1.
	Steps to be used in Hessian update: 1
	Taking RFO optimization step.
	Going to follow RFO solution 1.
	Using RFO vector 1.
	Norm of target step-size    0.03952
	Projected energy change by RFO approximation:        -0.0003551089

	Back-transformation to cartesian coordinates...
	Successfully converged to displaced geometry.

	Back-transformation to cartesian coordinates to adjust frozen coordinates...
	Successfully converged to displaced geometry.

	--- Internal Coordinate Step in ANG or DEG, aJ/ANG or AJ/DEG ---
	 ---------------------------------------------------------------------------
	   Coordinate                Previous        Force       Change         New 
	   ----------                --------       ------       ------       ------
	    1 R(1,2)          =      0.939625     0.000110     0.000008     0.939634
	    2 R(2,3)          =      1.400194    -0.000884    -0.000086     1.400108
	    3 R(3,4)          =      1.515479     0.000621     0.000085     1.515565
	    4 R(3,5)          =      1.085444     0.000200     0.000027     1.085470
	    5 R(3,6)          =      1.080644    -0.000340    -0.000043     1.080601
	    6 R(4,7)          =      1.391946    -0.010716    -0.000998     1.390947
	    7 R(4,8)          =      1.090574     0.000330     0.000030     1.090604
	    8 R(4,9)          =      1.087705    -0.001110    -0.000150     1.087555
	    9 R(7,10)         =      1.397718    -0.023278    -0.002104     1.395614
	   10 R(10,11)        =      1.082475     0.003359     0.000335     1.082811
	   11 R(10,12)        =      1.085412    -0.005757    -0.000631     1.084781
	   12 R(10,13)        =      1.084483     0.003390     0.000385     1.084869
	   13 B(1,2,3)        =    110.212434     0.000001     0.001612   110.214047
	   14 B(2,3,4)        =    111.506091    -0.000023    -0.061558   111.444533
	   15 B(2,3,5)        =    111.580425     0.000003    -0.004521   111.575904
	   16 B(2,3,6)        =    106.985947     0.000008     0.012218   106.998165
	   17 B(3,4,7)        =    108.231544    -0.000060    -0.163892   108.067652
	   18 B(3,4,8)        =    109.785753     0.000024     0.052790   109.838543
	   19 B(3,4,9)        =    109.281548     0.000023     0.090173   109.371721
	   20 B(4,3,5)        =    109.550343     0.000013     0.041872   109.592215
	   21 B(4,3,6)        =    109.465950     0.000003     0.007270   109.473220
	   22 B(4,7,10)       =    116.591932    -0.000156    -0.296786   116.295146
	   23 B(5,3,6)        =    107.628529    -0.000003     0.006322   107.634851
	   24 B(7,4,8)        =    110.650658     0.000005    -0.062720   110.587938
	   25 B(7,4,9)        =    111.335331     0.000020     0.063701   111.399032
	   26 B(7,10,11)      =    108.581890     0.000179     0.755162   109.337052
	   27 B(7,10,12)      =    111.363321    -0.000310    -1.192207   110.171114
	   28 B(7,10,13)      =    112.110466    -0.000066    -0.179626   111.930840
	   29 B(8,4,9)        =    107.544881    -0.000009     0.024785   107.569666
	   30 B(11,10,12)     =    108.477110     0.000062     0.177587   108.654698
	   31 B(11,10,13)     =    108.182751     0.000028     0.500355   108.683106
	   32 B(12,10,13)     =    108.016807     0.000118    -0.024953   107.991854
	   33 D(1,2,3,4)      =    -73.682557    -0.000000    -0.018622   -73.701179
	   34 D(1,2,3,5)      =     49.181137    -0.000000    -0.012247    49.168890
	   35 D(1,2,3,6)      =    166.655326     0.000000     0.000291   166.655617
	   36 D(2,3,4,7)      =   -179.547323    -0.000002    -0.214930  -179.762252
	   37 D(2,3,4,8)      =     59.582087     0.000002    -0.069208    59.512879
	   38 D(2,3,4,9)      =    -58.144521    -0.000001    -0.183623   -58.328144
	   39 D(3,4,7,10)     =    178.150491     0.000002     0.383660   178.534151
	   40 D(4,7,10,11)    =    129.467183     0.000026     1.014101   130.481284
	   41 D(4,7,10,12)    =   -111.157636     0.000026     0.982780  -110.174856
	   42 *D(4,7,10,13)   =      9.999988    -0.000000     0.000000     9.999988
	   43 D(5,3,4,7)      =     56.435556    -0.000001    -0.196321    56.239235
	   44 D(5,3,4,8)      =    -64.435034     0.000003    -0.050600   -64.485634
	   45 D(5,3,4,9)      =    177.838357    -0.000001    -0.165014   177.673343
	   46 D(6,3,4,7)      =    -61.363267    -0.000002    -0.232859   -61.596126
	   47 D(6,3,4,8)      =    177.766143     0.000002    -0.087138   177.679005
	   48 D(6,3,4,9)      =     60.039534    -0.000002    -0.201553    59.837982
	   49 D(8,4,7,10)     =    -61.517511     0.000000     0.307931   -61.209581
	   50 D(9,4,7,10)     =     58.024594     0.000001     0.339193    58.363787
	 ---------------------------------------------------------------------------

  ==> Convergence Check <==

  Measures of convergence in internal coordinates in au.
  Criteria marked as inactive (o), active & met (*), and active & unmet ( ).
  ---------------------------------------------------------------------------------------------
   Step     Total Energy     Delta E     MAX Force     RMS Force      MAX Disp      RMS Disp   
  ---------------------------------------------------------------------------------------------
    Convergence Criteria    1.00e-06 *    3.00e-04 *             o    1.20e-03 *             o
  ---------------------------------------------------------------------------------------------
      2    -268.05882355   -4.68e-04      4.08e-03      9.65e-04 o    2.08e-02      5.59e-03 o  ~
  ---------------------------------------------------------------------------------------------

	Writing optimization data to binary file.
	Structure for next step:
	Cartesian Geometry (in Angstrom)
	    H    -2.3024879405  -0.1665154585   1.4213386959
	    O    -1.9009128685   0.6651622485   1.2482468296
	    C    -1.1289641290   0.5963193087   0.0822035776
	    C     0.1532322580  -0.1784985656   0.3114777576
	    H    -1.6827982995   0.1492669200  -0.7373435343
	    H    -0.8906477364   1.6120237468  -0.1993090305
	    O     0.8646222532  -0.1987088006  -0.8836166818
	    H    -0.0804512683  -1.1931736845   0.6358887473
	    H     0.7247443745   0.2965980823   1.1054763906
	    C     2.1000738282  -0.8473075345  -0.8568052784
	    H     2.1593537321  -1.5401958893  -1.6867873599
	    H     2.9039205531  -0.1248626547  -0.9498261777
	    H     2.2490046302  -1.3973131318   0.0663705223
			--------------------------
			 OPTKING Finished Execution 
			--------------------------

    Structure for next step:
    Molecular point group: c1
    Full point group: C1

    Geometry (in Angstrom), charge = 0, multiplicity = 1:

    H           -2.302770039741    -0.165520997430     1.422287199973
    O           -1.901194998435     0.666156646053     1.249195346854
    C           -1.129246317945     0.597313711506     0.083152183839
    C            0.152949971183    -0.177504103656     0.312426346347
    H           -1.683080446150     0.150261356918    -0.736394865446
    H           -0.890929943467     1.613018072052    -0.198360402731
    O            0.864339912050    -0.197714337155    -0.882668001808
    H           -0.080733537224    -1.192179145096     0.636837311333
    H            0.724462044073     0.297592507997     1.106424918700
    C            2.099791392704    -0.846313021537    -0.855856600382
    H            2.159071292061    -1.539201323380    -1.685838618566
    H            2.903638056200    -0.123868196871    -0.948877492581
    H            2.248722183362    -1.396318576815     0.067319129781

gradient() will perform analytic gradient computation.

*** tstart() called on cx1-27-3-1
*** at Fri Sep  9 23:51:11 2016


         ---------------------------------------------------------
                                   SCF
            by Justin Turney, Rob Parrish, and Andy Simmonett
                              RHF Reference
                        4 Threads,   2000 MiB Core
         ---------------------------------------------------------

  ==> Geometry <==

    Molecular point group: c1
    Full point group: C1

    Geometry (in Angstrom), charge = 0, multiplicity = 1:

       Center              X                  Y                   Z               Mass       
    ------------   -----------------  -----------------  -----------------  -----------------
           H         -2.302770039741    -0.165520997430     1.422287199973     1.007825032070
           O         -1.901194998435     0.666156646053     1.249195346854    15.994914619560
           C         -1.129246317945     0.597313711506     0.083152183839    12.000000000000
           C          0.152949971183    -0.177504103656     0.312426346347    12.000000000000
           H         -1.683080446150     0.150261356918    -0.736394865446     1.007825032070
           H         -0.890929943467     1.613018072052    -0.198360402731     1.007825032070
           O          0.864339912050    -0.197714337155    -0.882668001808    15.994914619560
           H         -0.080733537224    -1.192179145096     0.636837311333     1.007825032070
           H          0.724462044073     0.297592507997     1.106424918700     1.007825032070
           C          2.099791392704    -0.846313021537    -0.855856600382    12.000000000000
           H          2.159071292061    -1.539201323380    -1.685838618566     1.007825032070
           H          2.903638056200    -0.123868196871    -0.948877492581     1.007825032070
           H          2.248722183362    -1.396318576815     0.067319129781     1.007825032070

  Running in c1 symmetry.

  Rotational constants: A =      0.78022  B =      0.07178  C =      0.06858 [cm^-1]
  Rotational constants: A =  23390.30038  B =   2151.90613  C =   2056.00926 [MHz]
  Nuclear repulsion =  190.184040668079632

  Charge       = 0
  Multiplicity = 1
  Electrons    = 42
  Nalpha       = 21
  Nbeta        = 21

  ==> Algorithm <==

  SCF Algorithm Type is DF.
  DIIS enabled.
  MOM disabled.
  Fractional occupation disabled.
  Guess Type is READ.
  Energy threshold   = 1.00e-08
  Density threshold  = 1.00e-08
  Integral threshold = 0.00e+00

  ==> Primary Basis <==

  Basis Set: CC-PVTZ
    Number of shells: 98
    Number of basis function: 262
    Number of Cartesian functions: 295
    Spherical Harmonics?: true
    Max angular momentum: 3

  ==> Pre-Iterations <==

   -------------------------------------------------------
    Irrep   Nso     Nmo     Nalpha   Nbeta   Ndocc  Nsocc
   -------------------------------------------------------
     A        262     262       0       0       0       0
   -------------------------------------------------------
    Total     262     262      21      21      21       0
   -------------------------------------------------------

 OEINTS: Overlap, kinetic, potential, dipole, and quadrupole integrals
         stored in file 35.

  ==> Integral Setup <==

  ==> DFJK: Density-Fitted J/K Matrices <==

    J tasked:                  Yes
    K tasked:                  Yes
    wK tasked:                  No
    OpenMP threads:              4
    Integrals threads:           4
    Memory (MB):              1430
    Algorithm:                Core
    Integral Cache:           NONE
    Schwarz Cutoff:          1E-12
    Fitting Condition:       1E-12

   => Auxiliary Basis Set <=

  Basis Set: 
    Number of shells: 205
    Number of basis function: 635
    Number of Cartesian functions: 760
    Spherical Harmonics?: true
    Max angular momentum: 4

  Minimum eigenvalue in the overlap matrix is 8.0531722433E-04.
  Using Symmetric Orthogonalization.
  SCF Guess: Reading in previously saved MOs, projecting if necessary.

  Using orbitals from previous SCF, no projection.
  Recomputing DOCC and SOCC from number of alpha and beta electrons from previous calculation.
              A 
    DOCC [    21 ]

  ==> Iterations <==

                           Total Energy        Delta E     RMS |[F,P]|

   @DF-RHF iter   0:  -268.06089831807981   -2.68061e+02   6.55132e-05 
   @DF-RHF iter   1:  -268.05892204989971    1.97627e-03   1.08676e-05 
   @DF-RHF iter   2:  -268.05892880504734   -6.75515e-06   3.76478e-06 DIIS
   @DF-RHF iter   3:  -268.05892995458453   -1.14954e-06   1.33659e-06 DIIS
   @DF-RHF iter   4:  -268.05893007204270   -1.17458e-07   4.31537e-07 DIIS
   @DF-RHF iter   5:  -268.05893008520820   -1.31655e-08   1.53016e-07 DIIS
   @DF-RHF iter   6:  -268.05893008690691   -1.69871e-09   4.64356e-08 DIIS
   @DF-RHF iter   7:  -268.05893008702515   -1.18234e-10   1.34758e-08 DIIS
   @DF-RHF iter   8:  -268.05893008703606   -1.09139e-11   2.46277e-09 DIIS

  ==> Post-Iterations <==

    Orbital Energies (a.u.)
    -----------------------

    Doubly Occupied:                                                      

       1A    -20.552632     2A    -20.552481     3A    -11.269707  
       4A    -11.267391     5A    -11.266894     6A     -1.387657  
       7A     -1.368401     8A     -1.019385     9A     -0.914230  
      10A     -0.842453    11A     -0.711035    12A     -0.673644  
      13A     -0.661005    14A     -0.637856    15A     -0.598443  
      16A     -0.569322    17A     -0.551035    18A     -0.490817  
      19A     -0.483406    20A     -0.441130    21A     -0.419291  

    Virtual:                                                              

      22A      0.137549    23A      0.151690    24A      0.182532  
      25A      0.193403    26A      0.204907    27A      0.221874  
      28A      0.229280    29A      0.251221    30A      0.266407  
      31A      0.327500    32A      0.343985    33A      0.370902  
      34A      0.406355    35A      0.415615    36A      0.452613  
      37A      0.459807    38A      0.514369    39A      0.544693  
      40A      0.565858    41A      0.576468    42A      0.594464  
      43A      0.598105    44A      0.626488    45A      0.629859  
      46A      0.634264    47A      0.648177    48A      0.671516  
      49A      0.673945    50A      0.681200    51A      0.711255  
      52A      0.739572    53A      0.754122    54A      0.770404  
      55A      0.783447    56A      0.808724    57A      0.832439  
      58A      0.900902    59A      0.916168    60A      0.932124  
      61A      0.964164    62A      0.986756    63A      1.009156  
      64A      1.026502    65A      1.079942    66A      1.100751  
      67A      1.138077    68A      1.143179    69A      1.192693  
      70A      1.198499    71A      1.202682    72A      1.236594  
      73A      1.246737    74A      1.281977    75A      1.289904  
      76A      1.295080    77A      1.310688    78A      1.323171  
      79A      1.343431    80A      1.381877    81A      1.392181  
      82A      1.409480    83A      1.451548    84A      1.471430  
      85A      1.493628    86A      1.512982    87A      1.534147  
      88A      1.542896    89A      1.552601    90A      1.570161  
      91A      1.579922    92A      1.594999    93A      1.619432  
      94A      1.635697    95A      1.702295    96A      1.734605  
      97A      1.790586    98A      1.826936    99A      1.886035  
     100A      2.030569   101A      2.113097   102A      2.190764  
     103A      2.219307   104A      2.230493   105A      2.298806  
     106A      2.314418   107A      2.342923   108A      2.402829  
     109A      2.429208   110A      2.478469   111A      2.504459  
     112A      2.555836   113A      2.600732   114A      2.636320  
     115A      2.655489   116A      2.727793   117A      2.764409  
     118A      2.821909   119A      2.829800   120A      2.893826  
     121A      2.920575   122A      2.960559   123A      3.016484  
     124A      3.057664   125A      3.085633   126A      3.112677  
     127A      3.128355   128A      3.151460   129A      3.158443  
     130A      3.205340   131A      3.209129   132A      3.251065  
     133A      3.264445   134A      3.273626   135A      3.290250  
     136A      3.315718   137A      3.328798   138A      3.332930  
     139A      3.370791   140A      3.390372   141A      3.412789  
     142A      3.421216   143A      3.437857   144A      3.458413  
     145A      3.481576   146A      3.491313   147A      3.527373  
     148A      3.537560   149A      3.591009   150A      3.615618  
     151A      3.644900   152A      3.659444   153A      3.694767  
     154A      3.714944   155A      3.733522   156A      3.748967  
     157A      3.753508   158A      3.772099   159A      3.794062  
     160A      3.816335   161A      3.820628   162A      3.834475  
     163A      3.878395   164A      3.913664   165A      3.935537  
     166A      3.940631   167A      4.018860   168A      4.042172  
     169A      4.065807   170A      4.081387   171A      4.124355  
     172A      4.127961   173A      4.137503   174A      4.160955  
     175A      4.170124   176A      4.187779   177A      4.243784  
     178A      4.267008   179A      4.275033   180A      4.297565  
     181A      4.310219   182A      4.333976   183A      4.338294  
     184A      4.356033   185A      4.376717   186A      4.425902  
     187A      4.434836   188A      4.463781   189A      4.490413  
     190A      4.527491   191A      4.561385   192A      4.577586  
     193A      4.597462   194A      4.624541   195A      4.635979  
     196A      4.676453   197A      4.723250   198A      4.736384  
     199A      4.775661   200A      4.806969   201A      4.857054  
     202A      5.003657   203A      5.023967   204A      5.032660  
     205A      5.066957   206A      5.108823   207A      5.137240  
     208A      5.181004   209A      5.206756   210A      5.257176  
     211A      5.273178   212A      5.286579   213A      5.363844  
     214A      5.390041   215A      5.395629   216A      5.431295  
     217A      5.455164   218A      5.487027   219A      5.502932  
     220A      5.534155   221A      5.563628   222A      5.607378  
     223A      5.647125   224A      5.712480   225A      5.767656  
     226A      5.808577   227A      5.823327   228A      5.922193  
     229A      5.949220   230A      5.990161   231A      6.037232  
     232A      6.050616   233A      6.150826   234A      6.214165  
     235A      6.262851   236A      6.297079   237A      6.347728  
     238A      6.417673   239A      6.523989   240A      6.638592  
     241A      6.705791   242A      6.739678   243A      6.842104  
     244A      6.940934   245A      7.073692   246A      7.170697  
     247A      7.237261   248A      7.283790   249A      7.305606  
     250A      7.331252   251A      7.420133   252A      7.517645  
     253A      7.592420   254A      7.680839   255A      7.832537  
     256A      7.913387   257A      8.028839   258A     11.471941  
     259A     12.703510   260A     13.340372   261A     13.902477  
     262A     14.188213  

    Final Occupation by Irrep:
              A 
    DOCC [    21 ]

  Energy converged.

  @DF-RHF Final Energy:  -268.05893008703606

   => Energetics <=

    Nuclear Repulsion Energy =            190.1840406680796320
    One-Electron Energy =                -743.1295101162334049
    Two-Electron Energy =                 284.8865393611176842
    DFT Exchange-Correlation Energy =       0.0000000000000000
    Empirical Dispersion Energy =           0.0000000000000000
    PCM Polarization Energy =               0.0000000000000000
    EFP Energy =                            0.0000000000000000
    Total Energy =                       -268.0589300870360603

    Alert: EFP and PCM quantities not currently incorporated into SCF psivars.

Properties will be evaluated at   0.000000,   0.000000,   0.000000 Bohr
  ==> Properties <==


Properties computed using the SCF density matrix

  Nuclear Dipole Moment: (a.u.)
     X:     2.8809      Y:    -2.2066      Z:    -0.3138

  Electronic Dipole Moment: (a.u.)
     X:    -2.5953      Y:     1.4354      Z:     0.3733

  Dipole Moment: (a.u.)
     X:     0.2856      Y:    -0.7712      Z:     0.0595     Total:     0.8245

  Dipole Moment: (Debye)
     X:     0.7259      Y:    -1.9601      Z:     0.1511     Total:     2.0957


  Saving occupied orbitals to File 180.

*** tstop() called on cx1-27-3-1 at Fri Sep  9 23:51:17 2016
Module time:
	user time   =      18.80 seconds =       0.31 minutes
	system time =       0.25 seconds =       0.00 minutes
	total time  =          6 seconds =       0.10 minutes
Total time:
	user time   =     148.85 seconds =       2.48 minutes
	system time =       1.72 seconds =       0.03 minutes
	total time  =         44 seconds =       0.73 minutes

*** tstart() called on cx1-27-3-1
*** at Fri Sep  9 23:51:17 2016


         ------------------------------------------------------------
                                   SCF GRAD                          
                          Rob Parrish, Justin Turney,                
                       Andy Simmonett, and Alex Sokolov              
         ------------------------------------------------------------

  ==> Geometry <==

    Molecular point group: c1
    Full point group: C1

    Geometry (in Angstrom), charge = 0, multiplicity = 1:

       Center              X                  Y                   Z               Mass       
    ------------   -----------------  -----------------  -----------------  -----------------
           H         -2.302770039741    -0.165520997430     1.422287199973     1.007825032070
           O         -1.901194998435     0.666156646053     1.249195346854    15.994914619560
           C         -1.129246317945     0.597313711506     0.083152183839    12.000000000000
           C          0.152949971183    -0.177504103656     0.312426346347    12.000000000000
           H         -1.683080446150     0.150261356918    -0.736394865446     1.007825032070
           H         -0.890929943467     1.613018072052    -0.198360402731     1.007825032070
           O          0.864339912050    -0.197714337155    -0.882668001808    15.994914619560
           H         -0.080733537224    -1.192179145096     0.636837311333     1.007825032070
           H          0.724462044073     0.297592507997     1.106424918700     1.007825032070
           C          2.099791392704    -0.846313021537    -0.855856600382    12.000000000000
           H          2.159071292061    -1.539201323380    -1.685838618566     1.007825032070
           H          2.903638056200    -0.123868196871    -0.948877492581     1.007825032070
           H          2.248722183362    -1.396318576815     0.067319129781     1.007825032070

  Nuclear repulsion =  190.184040668079604

  ==> Basis Set <==

  Basis Set: CC-PVTZ
    Number of shells: 98
    Number of basis function: 262
    Number of Cartesian functions: 295
    Spherical Harmonics?: true
    Max angular momentum: 3

  ==> DFJKGrad: Density-Fitted SCF Gradients <==

    Gradient:                    1
    J tasked:                  Yes
    K tasked:                  Yes
    wK tasked:                  No
    OpenMP threads:              4
    Integrals threads:           4
    Memory (MB):              1430
    Schwarz Cutoff:          0E+00
    Fitting Condition:       1E-12

   => Auxiliary Basis Set <=

  Basis Set: 
    Number of shells: 205
    Number of basis function: 635
    Number of Cartesian functions: 760
    Spherical Harmonics?: true
    Max angular momentum: 4


  -Total Gradient:
     Atom            X                  Y                   Z
    ------   -----------------  -----------------  -----------------
       1       -0.000006790738    -0.000012305847     0.000012013709
       2        0.000126337655    -0.000076065840    -0.000090645140
       3        0.000044360596     0.000019639779    -0.000041117740
       4       -0.000615546548    -0.000795836201     0.000061787146
       5       -0.000062405584     0.000013108972    -0.000015891637
       6       -0.000000567182     0.000006942565    -0.000009551994
       7        0.000742621354     0.001707162216     0.000431952306
       8       -0.000015750137    -0.000003494769    -0.000065238739
       9       -0.000041753482     0.000000367059     0.000032041183
      10       -0.000901194125    -0.001669453197    -0.000629870726
      11        0.000087027159    -0.000141899254    -0.000050656329
      12       -0.000026571456    -0.000059538972    -0.000058141557
      13        0.000670232488     0.001011373489     0.000423319522


*** tstop() called on cx1-27-3-1 at Fri Sep  9 23:51:29 2016
Module time:
	user time   =      45.05 seconds =       0.75 minutes
	system time =       0.36 seconds =       0.01 minutes
	total time  =         12 seconds =       0.20 minutes
Total time:
	user time   =     193.92 seconds =       3.23 minutes
	system time =       2.08 seconds =       0.03 minutes
	total time  =         56 seconds =       0.93 minutes
CURRENT ENERGY: -268.0589300870

			-----------------------------------------
			 OPTKING 2.0: for geometry optimizations 
			  - R.A. King,  Bethel University        
			-----------------------------------------

	Previous internal coordinate definitions found.
	---Fragment 1 Geometry and Gradient---
[...]
Total time:
	user time   =     210.50 seconds =       3.51 minutes
	system time =       2.31 seconds =       0.04 minutes
	total time  =         61 seconds =       1.02 minutes

*** tstart() called on cx1-27-3-1
*** at Fri Sep  9 23:51:34 2016


         ------------------------------------------------------------
                                   SCF GRAD                          
                          Rob Parrish, Justin Turney,                
                       Andy Simmonett, and Alex Sokolov              
         ------------------------------------------------------------

  ==> Geometry <==

    Molecular point group: c1
    Full point group: C1

    Geometry (in Angstrom), charge = 0, multiplicity = 1:

       Center              X                  Y                   Z               Mass       
    ------------   -----------------  -----------------  -----------------  -----------------
           H         -2.302788118007    -0.164576137614     1.424068108922     1.007825032070
           O         -1.900999983818     0.666758633625     1.249902561537    15.994914619560
           C         -1.129730284181     0.596316831860     0.083318166810    12.000000000000
           C          0.153094617623    -0.178074710041     0.311496522258    12.000000000000
           H         -1.683924900432     0.148295398955    -0.735380518587     1.007825032070
           H         -0.891801809816     1.611738127115    -0.199491222548     1.007825032070
           O          0.864860912684    -0.196773779779    -0.883174509000    15.994914619560
           H         -0.079631080941    -1.192982594776     0.635919971563     1.007825032070
           H          0.724694766438     0.297052242546     1.105407557574     1.007825032070
           C          2.099458957734    -0.846459115867    -0.855584215750    12.000000000000
           H          2.158797509727    -1.537843084647    -1.686518373601     1.007825032070
           H          2.904382673708    -0.124678109252    -0.945620266242     1.007825032070
           H          2.245285355729    -1.397300144902     0.067678238041     1.007825032070

  Nuclear repulsion =  190.187339327015650

  ==> Basis Set <==

  Basis Set: CC-PVTZ
    Number of shells: 98
    Number of basis function: 262
    Number of Cartesian functions: 295
    Spherical Harmonics?: true
    Max angular momentum: 3

  ==> DFJKGrad: Density-Fitted SCF Gradients <==

    Gradient:                    1
    J tasked:                  Yes
    K tasked:                  Yes
    wK tasked:                  No
    OpenMP threads:              4
    Integrals threads:           4
    Memory (MB):              1430
    Schwarz Cutoff:          0E+00
    Fitting Condition:       1E-12

   => Auxiliary Basis Set <=

  Basis Set: 
    Number of shells: 205
    Number of basis function: 635
    Number of Cartesian functions: 760
    Spherical Harmonics?: true
    Max angular momentum: 4


  -Total Gradient:
     Atom            X                  Y                   Z
    ------   -----------------  -----------------  -----------------
       1        0.000004808199     0.000005448676    -0.000005473183
       2       -0.000033124744     0.000032748453     0.000042288372
       3       -0.000000910429    -0.000028281869     0.000012378864
       4       -0.000553188566    -0.001016431949    -0.000274246895
       5        0.000026869295     0.000006408118    -0.000006066348
       6       -0.000016239774     0.000005742738     0.000002330258
       7        0.001016030425     0.001643263326     0.000563017712
       8       -0.000003717015     0.000010207363     0.000016708402
       9        0.000007878439    -0.000005101842    -0.000049606888
      10       -0.000950135576    -0.001757937330    -0.000878444461
      11       -0.000036715301    -0.000008231834     0.000000877263
      12        0.000015260511    -0.000005055313    -0.000006297212
      13        0.000523184530     0.001117221462     0.000582534121


*** tstop() called on cx1-27-3-1 at Fri Sep  9 23:51:46 2016
Module time:
	user time   =      44.30 seconds =       0.74 minutes
	system time =       0.42 seconds =       0.01 minutes
	total time  =         12 seconds =       0.20 minutes
Total time:
	user time   =     254.82 seconds =       4.25 minutes
	system time =       2.73 seconds =       0.05 minutes
	total time  =         73 seconds =       1.22 minutes
CURRENT ENERGY: -268.0589309343

			-----------------------------------------
			 OPTKING 2.0: for geometry optimizations 
			  - R.A. King,  Bethel University        
			-----------------------------------------

	Previous internal coordinate definitions found.
	---Fragment 1 Geometry and Gradient---
	 H          -4.3516388851       -0.3110038281        2.6910987204
	 O          -3.5923693480        1.2599912143        2.3619735341
	 C          -2.1348808411        1.1268755006        0.1574485172
	 C           0.2893068997       -0.3365124332        0.5886431184
	 H          -3.1821568902        0.2802376908       -1.3896677836
	 H          -1.6852611854        3.0457436582       -0.3769837765
	 O           1.6343502680       -0.3718485539       -1.6689579496
	 H          -0.1504809346       -2.2544103854        1.2017145887
	 H           1.3694746385        0.5613473856        2.0889175490
	 C           3.9674024573       -1.5995759117       -1.6168198514
	 H           4.0795360697       -2.9061022653       -3.1870578442
	 H           5.4884878384       -0.2356074813       -1.7869633289
	 H           4.2429744125       -2.6405145993        0.1278933351
	             0.0000048082        0.0000054487       -0.0000054732
	            -0.0000331247        0.0000327485        0.0000422884
	            -0.0000009104       -0.0000282819        0.0000123789
	            -0.0005531886       -0.0010164319       -0.0002742469
	             0.0000268693        0.0000064081       -0.0000060663
	            -0.0000162398        0.0000057427        0.0000023303
	             0.0010160304        0.0016432633        0.0005630177
	            -0.0000037170        0.0000102074        0.0000167084
	             0.0000078784       -0.0000051018       -0.0000496069
	            -0.0009501356       -0.0017579373       -0.0008784445
	            -0.0000367153       -0.0000082318        0.0000008773
	             0.0000152605       -0.0000050553       -0.0000062972
	             0.0005231845        0.0011172215        0.0005825341

	---Fragment 1 Intrafragment Coordinates---
	 - Coordinate -           - BOHR/RAD -       - ANG/DEG -
	 R(1,2)           =         1.775624	       0.939620
	 R(2,3)           =         2.646115	       1.400264
	 R(3,4)           =         2.864283	       1.515714
	 R(3,5)           =         2.051134	       1.085414
	 R(3,6)           =         2.042016	       1.080589
	 R(4,7)           =         2.628146	       1.390755
	 R(4,8)           =         2.060971	       1.090619
	 R(4,9)           =         2.055173	       1.087551
	 R(7,10)          =         2.636886	       1.395380
	 R(10,11)         =         2.045784	       1.082582
	 R(10,12)         =         2.050136	       1.084886
	 R(10,13)         =         2.050248	       1.084945
	 B(1,2,3)         =         1.923508	     110.208867
	 B(2,3,4)         =         1.945993	     111.497173
	 B(2,3,5)         =         1.947580	     111.588138
	 B(2,3,6)         =         1.867164	     106.980589
	 B(3,4,7)         =         1.886727	     108.101493
	 B(3,4,8)         =         1.917310	     109.853795
	 B(3,4,9)         =         1.908710	     109.361029
	 B(4,3,5)         =         1.912186	     109.560195
	 B(4,3,6)         =         1.910432	     109.459715
	 B(4,7,10)        =         2.028723	     116.237264
	 B(5,3,6)         =         1.878518	     107.631178
	 B(7,4,8)         =         1.930743	     110.623407
	 B(7,4,9)         =         1.943316	     111.343818
	 B(7,10,11)       =         1.907810	     109.309489
	 B(7,10,12)       =         1.923086	     110.184707
	 B(7,10,13)       =         1.952108	     111.847537
	 B(8,4,9)         =         1.877117	     107.550885
	 B(11,10,12)      =         1.897081	     108.694743
	 B(11,10,13)      =         1.898163	     108.756720
	 B(12,10,13)      =         1.884606	     107.979979
	 D(1,2,3,4)       =        -1.286842	     -73.730634
	 D(1,2,3,5)       =         0.857741	      49.144956
	 D(1,2,3,6)       =         2.908126	     166.623347
	 D(2,3,4,7)       =        -3.134854	    -179.613886
	 D(2,3,4,8)       =         1.040010	      59.588170
	 D(2,3,4,9)       =        -1.016352	     -58.232656
	 D(3,4,7,10)      =         3.117346	     178.610762
	 D(4,7,10,11)     =         2.277681	     130.501536
	 D(4,7,10,12)     =        -1.921856	    -110.114241
	*D(4,7,10,13)     =         0.174533	       9.999988
	 D(5,3,4,7)       =         0.983637	      56.358271
	 D(5,3,4,8)       =        -1.124684	     -64.439672
	 D(5,3,4,9)       =         3.102140	     177.739502
	 D(6,3,4,7)       =        -1.072433	     -61.445880
	 D(6,3,4,8)       =         3.102431	     177.756176
	 D(6,3,4,9)       =         1.046069	      59.935350
	 D(8,4,7,10)      =        -1.065906	     -61.071906
	 D(9,4,7,10)      =         1.020411	      58.465248

	Current energy   :      -268.0589309343

	Energy change for the previous step:
		Projected    :        -0.0000017983
		Actual       :        -0.0000008472

	Performing BFGS update.
	Previous computed or guess Hessian on step 1.
	Steps to be used in Hessian update: 3 2
	Taking RFO optimization step.
	Going to follow RFO solution 1.
	Using RFO vector 1.
	Norm of target step-size    0.00210
	Projected energy change by RFO approximation:        -0.0000000750

	Back-transformation to cartesian coordinates...
	Successfully converged to displaced geometry.

	Back-transformation to cartesian coordinates to adjust frozen coordinates...
	Successfully converged to displaced geometry.

	--- Internal Coordinate Step in ANG or DEG, aJ/ANG or AJ/DEG ---
	 ---------------------------------------------------------------------------
	   Coordinate                Previous        Force       Change         New 
	   ----------                --------       ------       ------       ------
	    1 R(1,2)          =      0.939620     0.000065     0.000005     0.939624
	    2 R(2,3)          =      1.400264    -0.000397    -0.000036     1.400228
	    3 R(3,4)          =      1.515714    -0.000166    -0.000020     1.515694
	    4 R(3,5)          =      1.085414     0.000097     0.000011     1.085424
	    5 R(3,6)          =      1.080589    -0.000010    -0.000002     1.080587
	    6 R(4,7)          =      1.390755    -0.000432    -0.000055     1.390700
	    7 R(4,8)          =      1.090619     0.000031     0.000006     1.090625
	    8 R(4,9)          =      1.087551     0.000283     0.000043     1.087594
	    9 R(7,10)         =      1.395380     0.000809     0.000084     1.395464
	   10 R(10,11)        =      1.082582    -0.000021    -0.000017     1.082565
	   11 R(10,12)        =      1.084886    -0.000070    -0.000002     1.084883
	   12 R(10,13)        =      1.084945     0.000010     0.000005     1.084950
	   13 B(1,2,3)        =    110.208867     0.000001     0.002007   110.210873
	   14 B(2,3,4)        =    111.497173    -0.000003    -0.006962   111.490211
	   15 B(2,3,5)        =    111.588138    -0.000001    -0.009326   111.578812
	   16 B(2,3,6)        =    106.980589     0.000002     0.009552   106.990141
	   17 B(3,4,7)        =    108.101493    -0.000004    -0.008418   108.093075
	   18 B(3,4,8)        =    109.853795     0.000001    -0.004691   109.849104
	   19 B(3,4,9)        =    109.361029     0.000000     0.004720   109.365749
	   20 B(4,3,5)        =    109.560195     0.000002     0.004290   109.564485
	   21 B(4,3,6)        =    109.459715    -0.000001    -0.002477   109.457237
	   22 B(4,7,10)       =    116.237264     0.000001     0.000020   116.237284
	   23 B(5,3,6)        =    107.631178     0.000000     0.005494   107.636672
	   24 B(7,4,8)        =    110.623407    -0.000001    -0.012494   110.610914
	   25 B(7,4,9)        =    111.343818     0.000004     0.022123   111.365941
	   26 B(7,10,11)      =    109.309489     0.000003     0.010861   109.320350
	   27 B(7,10,12)      =    110.184707    -0.000004    -0.014535   110.170172
	   28 B(7,10,13)      =    111.847537     0.000006     0.020256   111.867793
	   29 B(8,4,9)        =    107.550885    -0.000000    -0.001187   107.549699
	   30 B(11,10,12)     =    108.694743    -0.000002    -0.008698   108.686046
	   31 B(11,10,13)     =    108.756720    -0.000002     0.005542   108.762262
	   32 B(12,10,13)     =    107.979979    -0.000002    -0.014230   107.965749
	   33 D(1,2,3,4)      =    -73.730634    -0.000000     0.003329   -73.727305
	   34 D(1,2,3,5)      =     49.144956    -0.000000    -0.002916    49.142041
	   35 D(1,2,3,6)      =    166.623347     0.000000     0.004368   166.627715
	   36 D(2,3,4,7)      =   -179.613886    -0.000001    -0.043990  -179.657876
	   37 D(2,3,4,8)      =     59.588170     0.000000    -0.020796    59.567375
	   38 D(2,3,4,9)      =    -58.232656    -0.000000    -0.019399   -58.252055
	   39 D(3,4,7,10)     =    178.610762     0.000000     0.053265   178.664027
	   40 D(4,7,10,11)    =    130.501536     0.000001     0.027286   130.528822
	   41 D(4,7,10,12)    =   -110.114241     0.000000     0.014482  -110.099759
	   42 *D(4,7,10,13)   =      9.999988     0.000000    -0.000000     9.999988
	   43 D(5,3,4,7)      =     56.358271    -0.000000    -0.030288    56.327983
	   44 D(5,3,4,8)      =    -64.439672     0.000000    -0.007094   -64.446766
	   45 D(5,3,4,9)      =    177.739502     0.000000    -0.005697   177.733805
	   46 D(6,3,4,7)      =    -61.445880    -0.000000    -0.038012   -61.483892
	   47 D(6,3,4,8)      =    177.756176     0.000000    -0.014818   177.741359
	   48 D(6,3,4,9)      =     59.935350     0.000000    -0.013421    59.921930
	   49 D(8,4,7,10)     =    -61.071906    -0.000000     0.034767   -61.037139
	   50 D(9,4,7,10)     =     58.465248     0.000000     0.039465    58.504713
	 ---------------------------------------------------------------------------

  ==> Convergence Check <==

  Measures of convergence in internal coordinates in au.
  Criteria marked as inactive (o), active & met (*), and active & unmet ( ).
  ---------------------------------------------------------------------------------------------
   Step     Total Energy     Delta E     MAX Force     RMS Force      MAX Disp      RMS Disp   
  ---------------------------------------------------------------------------------------------
    Convergence Criteria    1.00e-06 *    3.00e-04 *             o    1.20e-03 *             o
  ---------------------------------------------------------------------------------------------
      4    -268.05893093   -8.47e-07 *    9.82e-05 *    2.93e-05 o    9.30e-04 *    2.97e-04 o  ~
  ---------------------------------------------------------------------------------------------


  **** Optimization is complete! (in 4 steps) ****

  ==> Optimization Summary <==

  Measures of convergence in internal coordinates in au.
  --------------------------------------------------------------------------------------------------------------- ~
   Step         Total Energy             Delta E       MAX Force       RMS Force        MAX Disp        RMS Disp  ~
  --------------------------------------------------------------------------------------------------------------- ~
      1    -268.058355698062   -268.058355698062      0.00886415      0.00252786      0.06133212      0.01448554  ~
      2    -268.058823554570     -0.000467856508      0.00407780      0.00096455      0.02080794      0.00558819  ~
      3    -268.058930087036     -0.000106532466      0.00029609      0.00009291      0.00262230      0.00101366  ~
      4    -268.058930934275     -0.000000847238      0.00009819      0.00002934      0.00092964      0.00029666  ~
  --------------------------------------------------------------------------------------------------------------- ~

	Writing optimization data to binary file.
	Final energy is   -268.0589309342745
	Final (previous) structure:
	Cartesian Geometry (in Angstrom)
	    H    -2.3027882939  -0.1645761502   1.4240682177
	    O    -1.9010001290   0.6667586845   1.2499026570
	    C    -1.1297303705   0.5963168774   0.0833181732
	    C     0.1530946293  -0.1780747236   0.3114965460
	    H    -1.6839250290   0.1482954103  -0.7353805747
	    H    -0.8918018779   1.6117382502  -0.1994912378
	    O     0.8648609787  -0.1967737948  -0.8831745764
	    H    -0.0796310870  -1.1929826859   0.6359200201
	    H     0.7246948218   0.2970522652   1.1054076420
	    C     2.0994591181  -0.8464591805  -0.8555842811
	    H     2.1587976746  -1.5378432021  -1.6865185024
	    H     2.9043828955  -0.1246781188  -0.9456203385
	    H     2.2452855272  -1.3973002516   0.0676782432
	Saving final (previous) structure.
			--------------------------
			 OPTKING Finished Execution 
			--------------------------

    Final optimized geometry and variables:
    Molecular point group: c1
    Full point group: C1

    Geometry (in Angstrom), charge = 0, multiplicity = 1:

    H           -2.302788118007    -0.164576137614     1.424068108922
    O           -1.900999983818     0.666758633625     1.249902561537
    C           -1.129730284181     0.596316831860     0.083318166810
    C            0.153094617623    -0.178074710041     0.311496522258
    H           -1.683924900432     0.148295398955    -0.735380518587
    H           -0.891801809816     1.611738127115    -0.199491222548
    O            0.864860912684    -0.196773779779    -0.883174509000
    H           -0.079631080941    -1.192982594776     0.635919971563
    H            0.724694766438     0.297052242546     1.105407557574
    C            2.099458957734    -0.846459115867    -0.855584215750
    H            2.158797509727    -1.537843084647    -1.686518373601
    H            2.904382673708    -0.124678109252    -0.945620266242
    H            2.245285355729    -1.397300144902     0.067678238041

	Cleaning optimization helper files.


Properties will be evaluated at   0.000000,   0.000000,   0.000000 Bohr

Properties computed using the  density matrix

  Nuclear Dipole Moment: (a.u.)
     X:     2.8778      Y:    -2.2104      Z:    -0.3113

  Electronic Dipole Moment: (a.u.)
     X:    -2.5932      Y:     1.4379      Z:     0.3709

  Dipole Moment: (a.u.)
     X:     0.2845      Y:    -0.7725      Z:     0.0596     Total:     0.8254

  Dipole Moment: (Debye)
     X:     0.7233      Y:    -1.9636      Z:     0.1515     Total:     2.0980

  Quadrupole Moment: (Debye Ang)
    XX:   -28.6254     YY:   -31.1804     ZZ:   -34.1094
    XY:     2.5133     XZ:     0.8097     YZ:    -2.2703

  Traceless Quadrupole Moment: (Debye Ang)
    XX:     2.6797     YY:     0.1247     ZZ:    -2.8044
    XY:     2.5133     XZ:     0.8097     YZ:    -2.2703

  Mulliken Charges: (a.u.)
   Center  Symbol    Alpha    Beta     Spin     Total
       1     H     0.39416  0.39416  0.00000  0.21167
       2     O     4.20212  4.20212  0.00000 -0.40424
       3     C     2.97528  2.97528  0.00000  0.04945
       4     C     2.96482  2.96482  0.00000  0.07036
       5     H     0.46715  0.46715  0.00000  0.06570
       6     H     0.45278  0.45278  0.00000  0.09444
       7     O     4.18021  4.18021  0.00000 -0.36042
       8     H     0.48137  0.48137  0.00000  0.03726
       9     H     0.46983  0.46983  0.00000  0.06035
      10     C     3.02730  3.02730  0.00000 -0.05461
      11     H     0.45462  0.45462  0.00000  0.09077
      12     H     0.45872  0.45872  0.00000  0.08257
      13     H     0.47165  0.47165  0.00000  0.05670

   Total alpha = 21.00000, Total beta = 21.00000, Total charge =  0.00000


*** PSI4 exiting successfully. Buy a developer a beer!
