    -----------------------------------------------------------------------
          Psi4: An Open-Source Ab Initio Electronic Structure Package
                              Psi4 (no tag) Driver

                          Git: Rev {detached?}  

    J. M. Turney, A. C. Simmonett, R. M. Parrish, E. G. Hohenstein,
    F. A. Evangelista, J. T. Fermann, B. J. Mintz, L. A. Burns, J. J. Wilke,
    M. L. Abrams, N. J. Russ, M. L. Leininger, C. L. Janssen, E. T. Seidl,
    W. D. Allen, H. F. Schaefer, R. A. King, E. F. Valeev, C. D. Sherrill,
    and T. D. Crawford, WIREs Comput. Mol. Sci. 2, 556-565 (2012)
    (doi: 10.1002/wcms.93)

                         Additional Contributions by
    A. E. DePrince, M. Saitow, U. Bozkaya, A. Yu. Sokolov
    -----------------------------------------------------------------------


    Psi4 started on: Thu Sep  1 22:20:54 2016

    Process ID:  20420
    PSI4DATADIR: /export131/home/mjharvey/miniconda3/share
    Memory level set to 256.000 MB

  ==> Input File <==

--------------------------------------------------------------------------
set {
	reference rhf
	basis 6-31G*
}


set_num_threads( 1 )
memory 2 gb

molecule MOL {
0 1

H	 -3.301617	 0.570527	 0.000000
C	 -2.250981	 0.344174	 0.000000
C	 -1.813665	 -0.976045	 0.000000
C	 -1.315303	 1.358057	 0.000000
H	 -2.528860	 -1.779366	 0.000000
C	 -0.467298	 -1.270142	 0.000000
H	 -1.635074	 2.385107	 0.000000
C	 0.047081	 1.078114	 0.000000
H	 -0.115948	 -2.285222	 0.000000
C	 0.472063	 -0.241155	 0.000000
H	 0.749976	 1.888426	 0.000000
O	 1.765256	 -0.628444	 0.000000
C	 2.256078	 -1.408961	 1.051170
H	 2.176553	 -0.891063	 2.001322
H	 3.297968	 -1.589267	 0.832610
H	 1.736796	 -2.359451	 1.116346

	symmetry c1
}
set optking {
	frozen_dihedral = ("
		10 12 13 14
	")
}

ee = energy('scf')
oeprop('DIPOLE', 'QUADRUPOLE', 'MULLIKEN_CHARGES')
f=open( 'psi4out.xyz', 'w' )
f.write( "16  " )
f.write( str(ee) + "\n" )
f.write( MOL.save_string_xyz() )
f.close()
--------------------------------------------------------------------------

  Memory set to   2.000 GiB by Python script.

*** tstart() called on cx1-3-16-2.cx1.hpc.ic.ac.uk
*** at Thu Sep  1 22:20:54 2016


         ---------------------------------------------------------
                                   SCF
            by Justin Turney, Rob Parrish, and Andy Simmonett
                              RHF Reference
                        1 Threads,   2000 MiB Core
         ---------------------------------------------------------

  ==> Geometry <==

    Molecular point group: c1
    Full point group: C1

    Geometry (in Angstrom), charge = 0, multiplicity = 1:

       Center              X                  Y                   Z               Mass       
    ------------   -----------------  -----------------  -----------------  -----------------
           H         -3.225301945859     0.825349491549    -0.153577741178     1.007825032070
           C         -2.174665945859     0.598996491549    -0.153577741178    12.000000000000
           C         -1.737349945859    -0.721222508451    -0.153577741178    12.000000000000
           C         -1.238987945859     1.612879491549    -0.153577741178    12.000000000000
           H         -2.452544945859    -1.524543508451    -0.153577741178     1.007825032070
           C         -0.390982945859    -1.015319508451    -0.153577741178    12.000000000000
           H         -1.558758945859     2.639929491549    -0.153577741178     1.007825032070
           C          0.123396054141     1.332936491549    -0.153577741178    12.000000000000
           H         -0.039632945859    -2.030399508451    -0.153577741178     1.007825032070
           C          0.548378054141     0.013667491549    -0.153577741178    12.000000000000
           H          0.826291054141     2.143248491549    -0.153577741178     1.007825032070
           O          1.841571054141    -0.373621508451    -0.153577741178    15.994914619560
           C          2.332393054141    -1.154138508451     0.897592258822    12.000000000000
           H          2.252868054141    -0.636240508451     1.847744258822     1.007825032070
           H          3.374283054141    -1.334444508451     0.679032258822     1.007825032070
           H          1.813111054141    -2.104628508451     0.962768258822     1.007825032070

  Running in c1 symmetry.

  Rotational constants: A =      0.16617  B =      0.05256  C =      0.04195 [cm^-1]
  Rotational constants: A =   4981.66779  B =   1575.72278  C =   1257.64303 [MHz]
  Nuclear repulsion =  348.339084170107128

  Charge       = 0
  Multiplicity = 1
  Electrons    = 58
  Nalpha       = 29
  Nbeta        = 29

  ==> Algorithm <==

  SCF Algorithm Type is DF.
  DIIS enabled.
  MOM disabled.
  Fractional occupation disabled.
  Guess Type is CORE.
  Energy threshold   = 1.00e-06
  Density threshold  = 1.00e-06
  Integral threshold = 0.00e+00

  ==> Primary Basis <==

  Basis Set: 6-31G*
    Number of shells: 64
    Number of basis function: 136
    Number of Cartesian functions: 136
    Spherical Harmonics?: false
    Max angular momentum: 2

  ==> Pre-Iterations <==

   -------------------------------------------------------
    Irrep   Nso     Nmo     Nalpha   Nbeta   Ndocc  Nsocc
   -------------------------------------------------------
     A        136     136       0       0       0       0
   -------------------------------------------------------
    Total     136     136      29      29      29       0
   -------------------------------------------------------

 OEINTS: Overlap, kinetic, potential, dipole, and quadrupole integrals
         stored in file 35.

  ==> Integral Setup <==

  ==> DFJK: Density-Fitted J/K Matrices <==

    J tasked:                  Yes
    K tasked:                  Yes
    wK tasked:                  No
    OpenMP threads:              1
    Integrals threads:           1
    Memory (MB):              1430
    Algorithm:                Core
    Integral Cache:           NONE
    Schwarz Cutoff:          1E-12
    Fitting Condition:       1E-12

   => Auxiliary Basis Set <=

  Basis Set: 
    Number of shells: 264
    Number of basis function: 848
    Number of Cartesian functions: 848
    Spherical Harmonics?: false
    Max angular momentum: 3

  Minimum eigenvalue in the overlap matrix is 4.4341666083E-04.
  Using Symmetric Orthogonalization.
  SCF Guess: Core (One-Electron) Hamiltonian.

  ==> Iterations <==

                           Total Energy        Delta E     RMS |[F,P]|

   @DF-RHF iter   1:  -266.23809369894417   -2.66238e+02   6.94790e-02 
   @DF-RHF iter   2:  -238.88694718364781    2.73511e+01   5.28315e-02 DIIS
   @DF-RHF iter   3:  -322.49564438686565   -8.36087e+01   3.43220e-02 DIIS
   @DF-RHF iter   4:  -340.90296115152245   -1.84073e+01   1.91441e-02 DIIS
   @DF-RHF iter   5:  -343.93630809435825   -3.03335e+00   8.09984e-03 DIIS
   @DF-RHF iter   6:  -344.52938427905036   -5.93076e-01   1.97427e-03 DIIS
   @DF-RHF iter   7:  -344.56770348628828   -3.83192e-02   8.01568e-04 DIIS
   @DF-RHF iter   8:  -344.57524593476904   -7.54245e-03   2.60272e-04 DIIS
   @DF-RHF iter   9:  -344.57607416685499   -8.28232e-04   1.32896e-04 DIIS
   @DF-RHF iter  10:  -344.57627047418015   -1.96307e-04   3.54644e-05 DIIS
   @DF-RHF iter  11:  -344.57629109076396   -2.06166e-05   9.70656e-06 DIIS
   @DF-RHF iter  12:  -344.57629307446672   -1.98370e-06   3.62676e-06 DIIS
   @DF-RHF iter  13:  -344.57629350704832   -4.32582e-07   1.52418e-06 DIIS
   @DF-RHF iter  14:  -344.57629361913740   -1.12089e-07   7.13679e-07 DIIS

  ==> Post-Iterations <==

    Orbital Energies (a.u.)
    -----------------------

    Doubly Occupied:                                                      

       1A    -20.572493     2A    -11.289253     3A    -11.277637  
       4A    -11.232735     5A    -11.232176     6A    -11.225702  
       7A    -11.223938     8A    -11.222087     9A     -1.406886  
      10A     -1.146495    11A     -1.018134    12A     -1.014939  
      13A     -0.937389    14A     -0.833837    15A     -0.805473  
      16A     -0.717189    17A     -0.670010    18A     -0.661113  
      19A     -0.641830    20A     -0.613009    21A     -0.597325  
      22A     -0.581356    23A     -0.529436    24A     -0.510638  
      25A     -0.507169    26A     -0.478213    27A     -0.438826  
      28A     -0.334743    29A     -0.314853  

    Virtual:                                                              

      30A      0.145963    31A      0.156575    32A      0.235852  
      33A      0.258652    34A      0.293066    35A      0.302723  
      36A      0.318391    37A      0.321639    38A      0.325219  
      39A      0.340658    40A      0.370020    41A      0.396564  
      42A      0.451969    43A      0.481078    44A      0.496177  
      45A      0.544649    46A      0.555827    47A      0.680893  
      48A      0.696360    49A      0.738162    50A      0.753095  
      51A      0.760567    52A      0.779041    53A      0.812810  
      54A      0.819570    55A      0.821930    56A      0.836814  
      57A      0.842179    58A      0.848994    59A      0.865965  
      60A      0.893693    61A      0.910401    62A      0.923351  
      63A      0.993932    64A      1.008899    65A      1.071871  
      66A      1.113399    67A      1.117126    68A      1.124159  
      69A      1.135175    70A      1.144188    71A      1.171857  
      72A      1.191635    73A      1.204085    74A      1.211700  
      75A      1.231975    76A      1.260024    77A      1.306082  
      78A      1.325257    79A      1.345365    80A      1.367793  
      81A      1.448548    82A      1.462312    83A      1.496724  
      84A      1.510804    85A      1.625122    86A      1.655308  
      87A      1.699041    88A      1.717472    89A      1.729075  
      90A      1.775109    91A      1.785480    92A      1.798718  
      93A      1.856608    94A      1.922790    95A      2.072561  
      96A      2.102140    97A      2.116696    98A      2.186123  
      99A      2.207801   100A      2.266634   101A      2.321703  
     102A      2.328797   103A      2.366460   104A      2.415282  
     105A      2.427731   106A      2.436298   107A      2.458132  
     108A      2.477856   109A      2.515175   110A      2.548377  
     111A      2.585545   112A      2.622035   113A      2.653128  
     114A      2.666681   115A      2.752959   116A      2.854106  
     117A      2.881314   118A      2.924510   119A      3.033498  
     120A      3.056924   121A      3.092366   122A      3.105010  
     123A      3.113878   124A      3.177561   125A      3.268367  
     126A      3.384118   127A      3.548124   128A      3.840511  
     129A      4.473302   130A      4.531475   131A      4.549595  
     132A      4.640706   133A      4.708688   134A      4.767420  
     135A      4.870983   136A      5.179632  

    Final Occupation by Irrep:
              A 
    DOCC [    29 ]

  Energy converged.

  @DF-RHF Final Energy:  -344.57629361913740

   => Energetics <=

    Nuclear Repulsion Energy =            348.3390841701071281
    One-Electron Energy =               -1157.7608386457852703
    Two-Electron Energy =                 464.8454608565409671
    DFT Exchange-Correlation Energy =       0.0000000000000000
    Empirical Dispersion Energy =           0.0000000000000000
    PCM Polarization Energy =               0.0000000000000000
    EFP Energy =                            0.0000000000000000
    Total Energy =                       -344.5762936191372319

    Alert: EFP and PCM quantities not currently incorporated into SCF psivars.

Properties will be evaluated at   0.000000,   0.000000,   0.000000 Bohr
  ==> Properties <==


Properties computed using the SCF density matrix

  Nuclear Dipole Moment: (a.u.)
     X:     0.9372      Y:    -1.8971      Z:     2.5507

  Electronic Dipole Moment: (a.u.)
     X:    -1.0451      Y:     1.6590      Z:    -2.0488

  Dipole Moment: (a.u.)
     X:    -0.1078      Y:    -0.2381      Z:     0.5020     Total:     0.5660

  Dipole Moment: (Debye)
     X:    -0.2741      Y:    -0.6053      Z:     1.2759     Total:     1.4385


  Saving occupied orbitals to File 180.

*** tstop() called on cx1-3-16-2.cx1.hpc.ic.ac.uk at Thu Sep  1 22:21:05 2016
Module time:
	user time   =      10.63 seconds =       0.18 minutes
	system time =       0.06 seconds =       0.00 minutes
	total time  =         11 seconds =       0.18 minutes
Total time:
	user time   =      10.63 seconds =       0.18 minutes
	system time =       0.06 seconds =       0.00 minutes
	total time  =         11 seconds =       0.18 minutes


Properties will be evaluated at   0.000000,   0.000000,   0.000000 Bohr

Properties computed using the  density matrix

  Nuclear Dipole Moment: (a.u.)
     X:     0.9372      Y:    -1.8971      Z:     2.5507

  Electronic Dipole Moment: (a.u.)
     X:    -1.0451      Y:     1.6590      Z:    -2.0488

  Dipole Moment: (a.u.)
     X:    -0.1078      Y:    -0.2381      Z:     0.5020     Total:     0.5660

  Dipole Moment: (Debye)
     X:    -0.2741      Y:    -0.6053      Z:     1.2759     Total:     1.4385

  Quadrupole Moment: (Debye Ang)
    XX:   -43.5830     YY:   -41.5333     ZZ:   -50.4080
    XY:    -1.8899     XZ:     3.2336     YZ:    -1.2527

  Traceless Quadrupole Moment: (Debye Ang)
    XX:     1.5918     YY:     3.6414     ZZ:    -5.2332
    XY:    -1.8899     XZ:     3.2336     YZ:    -1.2527

  Mulliken Charges: (a.u.)
   Center  Symbol    Alpha    Beta     Spin     Total
       1     H     0.39992  0.39992  0.00000  0.20017
       2     C     3.10744  3.10744  0.00000 -0.21488
       3     C     3.09482  3.09482  0.00000 -0.18963
       4     C     3.09575  3.09575  0.00000 -0.19150
       5     H     0.39982  0.39982  0.00000  0.20036
       6     C     3.12929  3.12929  0.00000 -0.25858
       7     H     0.39870  0.39870  0.00000  0.20261
       8     C     3.12516  3.12516  0.00000 -0.25032
       9     H     0.39641  0.39641  0.00000  0.20718
      10     C     2.78967  2.78967  0.00000  0.42066
      11     H     0.39407  0.39407  0.00000  0.21187
      12     O     4.33272  4.33272  0.00000 -0.66543
      13     C     3.08109  3.08109  0.00000 -0.16217
      14     H     0.42093  0.42093  0.00000  0.15813
      15     H     0.40892  0.40892  0.00000  0.18216
      16     H     0.42530  0.42530  0.00000  0.14939

   Total alpha = 29.00000, Total beta = 29.00000, Total charge =  0.00000


*** PSI4 exiting successfully. Buy a developer a beer!
