    -----------------------------------------------------------------------
          Psi4: An Open-Source Ab Initio Electronic Structure Package
                              Psi4 (no tag) Driver

                          Git: Rev {detached?}  

    J. M. Turney, A. C. Simmonett, R. M. Parrish, E. G. Hohenstein,
    F. A. Evangelista, J. T. Fermann, B. J. Mintz, L. A. Burns, J. J. Wilke,
    M. L. Abrams, N. J. Russ, M. L. Leininger, C. L. Janssen, E. T. Seidl,
    W. D. Allen, H. F. Schaefer, R. A. King, E. F. Valeev, C. D. Sherrill,
    and T. D. Crawford, WIREs Comput. Mol. Sci. 2, 556-565 (2012)
    (doi: 10.1002/wcms.93)

                         Additional Contributions by
    A. E. DePrince, M. Saitow, U. Bozkaya, A. Yu. Sokolov
    -----------------------------------------------------------------------


    Psi4 started on: Thu Sep  1 22:34:23 2016

    Process ID:  31703
    PSI4DATADIR: /export131/home/mjharvey/miniconda3/share
    Memory level set to 256.000 MB

  ==> Input File <==

--------------------------------------------------------------------------
set {
	reference rhf
	basis 6-31G*
}


set_num_threads( 1 )
memory 2 gb

molecule MOL {
0 1

O	 2.862325	 1.357334	 0.000267
C	 2.843464	 0.164689	 -0.000222
C	 1.546494	 -0.624492	 -0.000609
C	 4.124123	 -0.644674	 -0.000428
C	 0.291004	 0.242674	 0.000989
H	 1.557904	 -1.283758	 -0.867573
H	 1.558622	 -1.285963	 0.864672
C	 -0.994322	 -0.586602	 0.000262
H	 0.309117	 0.896430	 -0.865270
H	 0.309661	 0.894078	 0.869017
C	 -2.259874	 0.272531	 0.000494
H	 -1.004862	 -1.240012	 -0.870939
H	 -1.005220	 -1.241071	 0.870675
C	 -3.326317	 -0.220828	 0.979937
H	 -2.678387	 0.296251	 -1.004147
H	 -1.996523	 1.300303	 0.244067
C	 -4.587525	 0.642310	 0.974250
H	 -3.591244	 -1.247709	 0.736724
H	 -2.909608	 -0.243537	 1.984774
H	 -5.047399	 0.657857	 -0.009835
H	 -5.324561	 0.267291	 1.677699
H	 -4.361146	 1.668885	 1.248185
H	 4.165367	 -1.288615	 -0.874074
H	 4.976217	 0.020734	 -0.001915
H	 4.166763	 -1.286207	 0.874930

	symmetry c1
}
set optking {
	frozen_dihedral = ("
		9 5 8 12,
		15 11 14 18,
		1 2 3 6,
		9 5 3 6
	")
}

ee = energy('scf')
oeprop('DIPOLE', 'QUADRUPOLE', 'MULLIKEN_CHARGES')
f=open( 'psi4out.xyz', 'w' )
f.write( "25  " )
f.write( str(ee) + "\n" )
f.write( MOL.save_string_xyz() )
f.close()
--------------------------------------------------------------------------

  Memory set to   2.000 GiB by Python script.

*** tstart() called on cx1-3-6-2.cx1.hpc.ic.ac.uk
*** at Thu Sep  1 22:34:24 2016


         ---------------------------------------------------------
                                   SCF
            by Justin Turney, Rob Parrish, and Andy Simmonett
                              RHF Reference
                        1 Threads,   2000 MiB Core
         ---------------------------------------------------------

  ==> Geometry <==

    Molecular point group: c1
    Full point group: C1

    Geometry (in Angstrom), charge = 0, multiplicity = 1:

       Center              X                  Y                   Z               Mass       
    ------------   -----------------  -----------------  -----------------  -----------------
           O          2.811850416690     1.283041847523    -0.221208755122    15.994914619560
           C          2.792989416690     0.090396847523    -0.221697755122    12.000000000000
           C          1.496019416690    -0.698784152477    -0.222084755122    12.000000000000
           C          4.073648416690    -0.718966152477    -0.221903755122    12.000000000000
           C          0.240529416690     0.168381847523    -0.220486755122    12.000000000000
           H          1.507429416690    -1.358050152477    -1.089048755122     1.007825032070
           H          1.508147416690    -1.360255152477     0.643196244878     1.007825032070
           C         -1.044796583310    -0.660894152477    -0.221213755122    12.000000000000
           H          0.258642416690     0.822137847523    -1.086745755122     1.007825032070
           H          0.259186416690     0.819785847523     0.647541244878     1.007825032070
           C         -2.310348583310     0.198238847523    -0.220981755122    12.000000000000
           H         -1.055336583310    -1.314304152477    -1.092414755122     1.007825032070
           H         -1.055694583310    -1.315363152477     0.649199244878     1.007825032070
           C         -3.376791583310    -0.295120152477     0.758461244878    12.000000000000
           H         -2.728861583310     0.221958847523    -1.225622755122     1.007825032070
           H         -2.046997583310     1.226010847523     0.022591244878     1.007825032070
           C         -4.637999583310     0.568017847523     0.752774244878    12.000000000000
           H         -3.641718583310    -1.322001152477     0.515248244878     1.007825032070
           H         -2.960082583310    -0.317829152477     1.763298244878     1.007825032070
           H         -5.097873583310     0.583564847523    -0.231310755122     1.007825032070
           H         -5.375035583310     0.192998847523     1.456223244878     1.007825032070
           H         -4.411620583310     1.594592847523     1.026709244878     1.007825032070
           H          4.114892416690    -1.362907152477    -1.095549755122     1.007825032070
           H          4.925742416690    -0.053558152477    -0.223390755122     1.007825032070
           H          4.116288416690    -1.360499152477     0.653454244878     1.007825032070

  Running in c1 symmetry.

  Rotational constants: A =      0.19162  B =      0.01496  C =      0.01436 [cm^-1]
  Rotational constants: A =   5744.72885  B =    448.60761  C =    430.55918 [MHz]
  Nuclear repulsion =  439.626033023823027

  Charge       = 0
  Multiplicity = 1
  Electrons    = 72
  Nalpha       = 36
  Nbeta        = 36

  ==> Algorithm <==

  SCF Algorithm Type is DF.
  DIIS enabled.
  MOM disabled.
  Fractional occupation disabled.
  Guess Type is CORE.
  Energy threshold   = 1.00e-06
  Density threshold  = 1.00e-06
  Integral threshold = 0.00e+00

  ==> Primary Basis <==

  Basis Set: 6-31G*
    Number of shells: 86
    Number of basis function: 167
    Number of Cartesian functions: 167
    Spherical Harmonics?: false
    Max angular momentum: 2

  ==> Pre-Iterations <==

   -------------------------------------------------------
    Irrep   Nso     Nmo     Nalpha   Nbeta   Ndocc  Nsocc
   -------------------------------------------------------
     A        167     167       0       0       0       0
   -------------------------------------------------------
    Total     167     167      36      36      36       0
   -------------------------------------------------------

 OEINTS: Overlap, kinetic, potential, dipole, and quadrupole integrals
         stored in file 35.

  ==> Integral Setup <==

  ==> DFJK: Density-Fitted J/K Matrices <==

    J tasked:                  Yes
    K tasked:                  Yes
    wK tasked:                  No
    OpenMP threads:              1
    Integrals threads:           1
    Memory (MB):              1430
    Algorithm:                Core
    Integral Cache:           NONE
    Schwarz Cutoff:          1E-12
    Fitting Condition:       1E-12

   => Auxiliary Basis Set <=

  Basis Set: 
    Number of shells: 360
    Number of basis function: 1129
    Number of Cartesian functions: 1129
    Spherical Harmonics?: false
    Max angular momentum: 3

  Minimum eigenvalue in the overlap matrix is 2.5855044619E-03.
  Using Symmetric Orthogonalization.
  SCF Guess: Core (One-Electron) Hamiltonian.

  ==> Iterations <==

                           Total Energy        Delta E     RMS |[F,P]|

   @DF-RHF iter   1:  -284.84770923741331   -2.84848e+02   6.21722e-02 
   @DF-RHF iter   2:  -142.35026307448715    1.42497e+02   6.90604e-02 DIIS
   @DF-RHF iter   3:  -309.74664040221870   -1.67396e+02   3.59020e-02 DIIS
   @DF-RHF iter   4:  -171.70774190386118    1.38039e+02   7.24291e-02 DIIS
   @DF-RHF iter   5:  -281.41287097585661   -1.09705e+02   4.83397e-02 DIIS
   @DF-RHF iter   6:  -370.49263687212141   -8.90798e+01   2.09145e-02 DIIS
   @DF-RHF iter   7:  -382.67650835598630   -1.21839e+01   1.34460e-02 DIIS
   @DF-RHF iter   8:  -387.04277398347216   -4.36627e+00   2.41566e-03 DIIS
   @DF-RHF iter   9:  -387.12265871871642   -7.98847e-02   6.82623e-04 DIIS
   @DF-RHF iter  10:  -387.13006155414524   -7.40284e-03   2.99748e-04 DIIS
   @DF-RHF iter  11:  -387.13166065906438   -1.59910e-03   8.45823e-05 DIIS
   @DF-RHF iter  12:  -387.13185408932981   -1.93430e-04   2.24873e-05 DIIS
   @DF-RHF iter  13:  -387.13186897844997   -1.48891e-05   1.00310e-05 DIIS
   @DF-RHF iter  14:  -387.13187167441623   -2.69597e-06   3.35571e-06 DIIS
   @DF-RHF iter  15:  -387.13187204579236   -3.71376e-07   1.21820e-06 DIIS
   @DF-RHF iter  16:  -387.13187209944471   -5.36523e-08   2.65998e-07 DIIS

  ==> Post-Iterations <==

    Orbital Energies (a.u.)
    -----------------------

    Doubly Occupied:                                                      

       1A    -20.550399     2A    -11.326235     3A    -11.231476  
       4A    -11.228269     5A    -11.217164     6A    -11.215533  
       7A    -11.215405     8A    -11.212115     9A    -11.207730  
      10A     -1.395721    11A     -1.093686    12A     -1.055962  
      13A     -1.014227    14A     -0.969031    15A     -0.890183  
      16A     -0.816158    17A     -0.789973    18A     -0.730088  
      19A     -0.657099    20A     -0.651884    21A     -0.633648  
      22A     -0.621761    23A     -0.599397    24A     -0.582668  
      25A     -0.566037    26A     -0.562772    27A     -0.538995  
      28A     -0.529208    29A     -0.509308    30A     -0.489041  
      31A     -0.487043    32A     -0.478110    33A     -0.464478  
      34A     -0.455958    35A     -0.448852    36A     -0.399291  

    Virtual:                                                              

      37A      0.170727    38A      0.220014    39A      0.234018  
      40A      0.254632    41A      0.273343    42A      0.279872  
      43A      0.293714    44A      0.303110    45A      0.308200  
      46A      0.317217    47A      0.324931    48A      0.331862  
      49A      0.339007    50A      0.340504    51A      0.347093  
      52A      0.357184    53A      0.360834    54A      0.395317  
      55A      0.398471    56A      0.432082    57A      0.443763  
      58A      0.467895    59A      0.469425    60A      0.525552  
      61A      0.544276    62A      0.699990    63A      0.723750  
      64A      0.735427    65A      0.748597    66A      0.755287  
      67A      0.761206    68A      0.768494    69A      0.782480  
      70A      0.818416    71A      0.832263    72A      0.860536  
      73A      0.878983    74A      0.922519    75A      0.936836  
      76A      0.957668    77A      0.969067    78A      0.989393  
      79A      0.997510    80A      1.019912    81A      1.037938  
      82A      1.056379    83A      1.088593    84A      1.106264  
      85A      1.112753    86A      1.131428    87A      1.141748  
      88A      1.152203    89A      1.159521    90A      1.176326  
      91A      1.185516    92A      1.186499    93A      1.190663  
      94A      1.202451    95A      1.207139    96A      1.220042  
      97A      1.226418    98A      1.230911    99A      1.239647  
     100A      1.257776   101A      1.273020   102A      1.277122  
     103A      1.313303   104A      1.357393   105A      1.407887  
     106A      1.423241   107A      1.470471   108A      1.609846  
     109A      1.663697   110A      1.677581   111A      1.703483  
     112A      1.734372   113A      1.772808   114A      1.834609  
     115A      1.866926   116A      1.881786   117A      1.955970  
     118A      1.997911   119A      2.029339   120A      2.075854  
     121A      2.101005   122A      2.102719   123A      2.144550  
     124A      2.187579   125A      2.208557   126A      2.234817  
     127A      2.241850   128A      2.248728   129A      2.285189  
     130A      2.295284   131A      2.314201   132A      2.321470  
     133A      2.344609   134A      2.375899   135A      2.410046  
     136A      2.434701   137A      2.485416   138A      2.524932  
     139A      2.578916   140A      2.603567   141A      2.634967  
     142A      2.674478   143A      2.684986   144A      2.702514  
     145A      2.723908   146A      2.764075   147A      2.778263  
     148A      2.803306   149A      2.907095   150A      2.937718  
     151A      2.974700   152A      2.978929   153A      2.987930  
     154A      3.075024   155A      3.147148   156A      3.234344  
     157A      3.375358   158A      3.414081   159A      4.400899  
     160A      4.535357   161A      4.587119   162A      4.664874  
     163A      4.733404   164A      4.808934   165A      4.861705  
     166A      4.938580   167A      5.023434  

    Final Occupation by Irrep:
              A 
    DOCC [    36 ]

  Energy converged.

  @DF-RHF Final Energy:  -387.13187209944471

   => Energetics <=

    Nuclear Repulsion Energy =            439.6260330238230267
    One-Electron Energy =               -1395.8460820461232288
    Two-Electron Energy =                 569.0881769228567464
    DFT Exchange-Correlation Energy =       0.0000000000000000
    Empirical Dispersion Energy =           0.0000000000000000
    PCM Polarization Energy =               0.0000000000000000
    EFP Energy =                            0.0000000000000000
    Total Energy =                       -387.1318720994433988

    Alert: EFP and PCM quantities not currently incorporated into SCF psivars.

Properties will be evaluated at   0.000000,   0.000000,   0.000000 Bohr
  ==> Properties <==


Properties computed using the SCF density matrix

  Nuclear Dipole Moment: (a.u.)
     X:   -10.9388      Y:    -4.0284      Z:     1.2489

  Electronic Dipole Moment: (a.u.)
     X:    10.8731      Y:     2.8733      Z:    -1.2525

  Dipole Moment: (a.u.)
     X:    -0.0658      Y:    -1.1551      Z:    -0.0036     Total:     1.1570

  Dipole Moment: (Debye)
     X:    -0.1671      Y:    -2.9360      Z:    -0.0091     Total:     2.9408


  Saving occupied orbitals to File 180.

*** tstop() called on cx1-3-6-2.cx1.hpc.ic.ac.uk at Thu Sep  1 22:34:47 2016
Module time:
	user time   =      23.06 seconds =       0.38 minutes
	system time =       0.22 seconds =       0.00 minutes
	total time  =         23 seconds =       0.38 minutes
Total time:
	user time   =      23.06 seconds =       0.38 minutes
	system time =       0.22 seconds =       0.00 minutes
	total time  =         23 seconds =       0.38 minutes


Properties will be evaluated at   0.000000,   0.000000,   0.000000 Bohr

Properties computed using the  density matrix

  Nuclear Dipole Moment: (a.u.)
     X:   -10.9388      Y:    -4.0284      Z:     1.2489

  Electronic Dipole Moment: (a.u.)
     X:    10.8731      Y:     2.8733      Z:    -1.2525

  Dipole Moment: (a.u.)
     X:    -0.0658      Y:    -1.1551      Z:    -0.0036     Total:     1.1570

  Dipole Moment: (Debye)
     X:    -0.1671      Y:    -2.9360      Z:    -0.0091     Total:     2.9408

  Quadrupole Moment: (Debye Ang)
    XX:   -58.5791     YY:   -62.3529     ZZ:   -57.0849
    XY:    -8.3139     XZ:     0.2277     YZ:     0.8456

  Traceless Quadrupole Moment: (Debye Ang)
    XX:     0.7599     YY:    -3.0140     ZZ:     2.2541
    XY:    -8.3139     XZ:     0.2277     YZ:     0.8456

  Mulliken Charges: (a.u.)
   Center  Symbol    Alpha    Beta     Spin     Total
       1     O     4.26128  4.26128  0.00000 -0.52256
       2     C     2.73569  2.73569  0.00000  0.52862
       3     C     3.21125  3.21125  0.00000 -0.42250
       4     C     3.28665  3.28665  0.00000 -0.57331
       5     C     3.15054  3.15054  0.00000 -0.30107
       6     H     0.41002  0.41002  0.00000  0.17996
       7     H     0.40995  0.40995  0.00000  0.18009
       8     C     3.15578  3.15578  0.00000 -0.31156
       9     H     0.41159  0.41159  0.00000  0.17683
      10     H     0.41200  0.41200  0.00000  0.17601
      11     C     3.15316  3.15316  0.00000 -0.30632
      12     H     0.42275  0.42275  0.00000  0.15450
      13     H     0.42282  0.42282  0.00000  0.15435
      14     C     3.15362  3.15362  0.00000 -0.30724
      15     H     0.42144  0.42144  0.00000  0.15712
      16     H     0.41897  0.41897  0.00000  0.16206
      17     C     3.23996  3.23996  0.00000 -0.47991
      18     H     0.42323  0.42323  0.00000  0.15354
      19     H     0.42301  0.42301  0.00000  0.15398
      20     H     0.42176  0.42176  0.00000  0.15647
      21     H     0.41966  0.41966  0.00000  0.16069
      22     H     0.42090  0.42090  0.00000  0.15820
      23     H     0.40875  0.40875  0.00000  0.18250
      24     H     0.39650  0.39650  0.00000  0.20700
      25     H     0.40871  0.40871  0.00000  0.18257

   Total alpha = 36.00000, Total beta = 36.00000, Total charge =  0.00000


*** PSI4 exiting successfully. Buy a developer a beer!
