    -----------------------------------------------------------------------
          Psi4: An Open-Source Ab Initio Electronic Structure Package
                              Psi4 (no tag) Driver

                          Git: Rev {detached?}  

    J. M. Turney, A. C. Simmonett, R. M. Parrish, E. G. Hohenstein,
    F. A. Evangelista, J. T. Fermann, B. J. Mintz, L. A. Burns, J. J. Wilke,
    M. L. Abrams, N. J. Russ, M. L. Leininger, C. L. Janssen, E. T. Seidl,
    W. D. Allen, H. F. Schaefer, R. A. King, E. F. Valeev, C. D. Sherrill,
    and T. D. Crawford, WIREs Comput. Mol. Sci. 2, 556-565 (2012)
    (doi: 10.1002/wcms.93)

                         Additional Contributions by
    A. E. DePrince, M. Saitow, U. Bozkaya, A. Yu. Sokolov
    -----------------------------------------------------------------------


    Psi4 started on: Fri Sep  9 23:41:20 2016

    Process ID:  26056
    PSI4DATADIR: /export131/home/mjharvey/miniconda3/share
    Memory level set to 256.000 MB

  ==> Input File <==

--------------------------------------------------------------------------
set {
	reference rhf
	basis cc-pvtz
}


set_num_threads( 4 )
memory 2 gb

molecule MOL {
0 1

H	 -2.149496	 -2.244167	 0.000000
O	 -2.454378	 -1.354528	 0.000000
C	 -1.430628	 -0.482077	 0.000000
C	 -1.343257	 0.401194	 -1.066240
C	 -0.488610	 -0.442478	 1.006109
H	 -2.085365	 0.354441	 -1.838328
C	 -0.316389	 1.315870	 -1.118401
H	 -0.544168	 -1.119912	 1.836738
C	 0.541074	 0.486389	 0.938404
H	 -0.256088	 1.995188	 -1.946186
C	 0.638126	 1.370114	 -0.117557
C	 1.522333	 0.520824	 1.995405
H	 1.438320	 2.080901	 -0.155595
N	 2.287929	 0.545009	 2.823633

	symmetry c1
}
set optking {
	frozen_dihedral = ("
		5 3 2 1
	")
}

ee = optimize('scf')
oeprop('DIPOLE', 'QUADRUPOLE', 'MULLIKEN_CHARGES')
f=open( 'psi4out.xyz', 'w' )
f.write( "14  " )
f.write( str(ee) + "\n" )
f.write( MOL.save_string_xyz() )
f.close()
--------------------------------------------------------------------------

  Memory set to   2.000 GiB by Python script.
gradient() will perform analytic gradient computation.

*** tstart() called on cx1-27-4-2
*** at Fri Sep  9 23:41:20 2016


         ---------------------------------------------------------
                                   SCF
            by Justin Turney, Rob Parrish, and Andy Simmonett
                              RHF Reference
                        4 Threads,   2000 MiB Core
         ---------------------------------------------------------

  ==> Geometry <==

    Molecular point group: c1
    Full point group: C1

    Geometry (in Angstrom), charge = 0, multiplicity = 1:

       Center              X                  Y                   Z               Mass       
    ------------   -----------------  -----------------  -----------------  -----------------
           H         -1.969949631462    -2.454849776710    -0.479450064784     1.007825032070
           O         -2.274831631462    -1.565210776710    -0.479450064784    15.994914619560
           C         -1.251081631462    -0.692759776710    -0.479450064784    12.000000000000
           C         -1.163710631462     0.190511223290    -1.545690064784    12.000000000000
           C         -0.309063631462    -0.653160776710     0.526658935216    12.000000000000
           H         -1.905818631462     0.143758223290    -2.317778064784     1.007825032070
           C         -0.136842631462     1.105187223290    -1.597851064784    12.000000000000
           H         -0.364621631462    -1.330594776710     1.357287935216     1.007825032070
           C          0.720620368538     0.275706223290     0.458953935216    12.000000000000
           H         -0.076541631462     1.784505223290    -2.425636064784     1.007825032070
           C          0.817672368538     1.159431223290    -0.597007064784    12.000000000000
           C          1.701879368538     0.310141223290     1.515954935216    12.000000000000
           H          1.617866368538     1.870218223290    -0.635045064784     1.007825032070
           N          2.467475368538     0.334326223290     2.344182935216    14.003074004780

  Running in c1 symmetry.

  Rotational constants: A =      0.11658  B =      0.04077  C =      0.03026 [cm^-1]
  Rotational constants: A =   3494.84510  B =   1222.16634  C =    907.29500 [MHz]
  Nuclear repulsion =  380.436216889437105

  Charge       = 0
  Multiplicity = 1
  Electrons    = 62
  Nalpha       = 31
  Nbeta        = 31

  ==> Algorithm <==

  SCF Algorithm Type is DF.
  DIIS enabled.
  MOM disabled.
  Fractional occupation disabled.
  Guess Type is CORE.
  Energy threshold   = 1.00e-08
  Density threshold  = 1.00e-08
  Integral threshold = 0.00e+00

  ==> Primary Basis <==

  Basis Set: CC-PVTZ
    Number of shells: 120
    Number of basis function: 340
    Number of Cartesian functions: 390
    Spherical Harmonics?: true
    Max angular momentum: 3

  ==> Pre-Iterations <==

   -------------------------------------------------------
    Irrep   Nso     Nmo     Nalpha   Nbeta   Ndocc  Nsocc
   -------------------------------------------------------
     A        340     340       0       0       0       0
   -------------------------------------------------------
    Total     340     340      31      31      31       0
   -------------------------------------------------------

 OEINTS: Overlap, kinetic, potential, dipole, and quadrupole integrals
         stored in file 35.

  ==> Integral Setup <==

  ==> DFJK: Density-Fitted J/K Matrices <==

    J tasked:                  Yes
    K tasked:                  Yes
    wK tasked:                  No
    OpenMP threads:              4
    Integrals threads:           4
    Memory (MB):              1430
    Algorithm:                Core
    Integral Cache:           NONE
    Schwarz Cutoff:          1E-12
    Fitting Condition:       1E-12

   => Auxiliary Basis Set <=

  Basis Set: 
    Number of shells: 275
    Number of basis function: 861
    Number of Cartesian functions: 1039
    Spherical Harmonics?: true
    Max angular momentum: 4

  Minimum eigenvalue in the overlap matrix is 3.4309022786E-05.
  Using Symmetric Orthogonalization.
  SCF Guess: Core (One-Electron) Hamiltonian.

  ==> Iterations <==

                           Total Energy        Delta E     RMS |[F,P]|

   @DF-RHF iter   1:  -286.67838595823525   -2.86678e+02   4.28698e-02 
   @DF-RHF iter   2:  -115.26324341880382    1.71415e+02   5.86932e-02 DIIS
   @DF-RHF iter   3:  -289.59670968631042   -1.74333e+02   2.76294e-02 DIIS
   @DF-RHF iter   4:  -276.01877644619356    1.35779e+01   3.39682e-02 DIIS
   @DF-RHF iter   5:  -379.21721222364124   -1.03198e+02   1.18657e-02 DIIS
   @DF-RHF iter   6:  -372.91537129377230    6.30184e+00   1.57266e-02 DIIS
   @DF-RHF iter   7:  -395.68255576363958   -2.27672e+01   5.08539e-03 DIIS
   @DF-RHF iter   8:  -397.18587394240785   -1.50332e+00   1.94326e-03 DIIS
   @DF-RHF iter   9:  -397.37591596331151   -1.90042e-01   7.92645e-04 DIIS
   @DF-RHF iter  10:  -397.41918400455654   -4.32680e-02   3.16907e-04 DIIS
   @DF-RHF iter  11:  -397.42775431356915   -8.57031e-03   1.18946e-04 DIIS
   @DF-RHF iter  12:  -397.42891714381619   -1.16283e-03   3.38691e-05 DIIS
   @DF-RHF iter  13:  -397.42909110714902   -1.73963e-04   2.08477e-05 DIIS
   @DF-RHF iter  14:  -397.42914968650223   -5.85794e-05   1.41753e-05 DIIS
   @DF-RHF iter  15:  -397.42918474847909   -3.50620e-05   4.43919e-06 DIIS
   @DF-RHF iter  16:  -397.42919167363948   -6.92516e-06   1.46550e-06 DIIS
   @DF-RHF iter  17:  -397.42919238630907   -7.12670e-07   5.69053e-07 DIIS
   @DF-RHF iter  18:  -397.42919246990266   -8.35936e-08   2.12262e-07 DIIS
   @DF-RHF iter  19:  -397.42919247795157   -8.04891e-09   7.79885e-08 DIIS
   @DF-RHF iter  20:  -397.42919247975431   -1.80273e-09   3.98634e-08 DIIS
   @DF-RHF iter  21:  -397.42919248030137   -5.47061e-10   1.95148e-08 DIIS
   @DF-RHF iter  22:  -397.42919248041642   -1.15051e-10   7.63532e-09 DIIS

  ==> Post-Iterations <==

    Orbital Energies (a.u.)
    -----------------------

    Doubly Occupied:                                                      

       1A    -20.596753     2A    -15.564911     3A    -11.318293  
       4A    -11.291477     5A    -11.268478     6A    -11.261348  
       7A    -11.260308     8A    -11.258734     9A    -11.253166  
      10A     -1.432161    11A     -1.238103    12A     -1.186741  
      13A     -1.066266    14A     -1.042008    15A     -0.895671  
      16A     -0.869617    17A     -0.785496    18A     -0.722089  
      19A     -0.702965    20A     -0.678753    21A     -0.637111  
      22A     -0.626264    23A     -0.572363    24A     -0.562213  
      25A     -0.555688    26A     -0.548280    27A     -0.509943  
      28A     -0.482311    29A     -0.478824    30A     -0.367017  
      31A     -0.351116  

    Virtual:                                                              

      32A      0.076733    33A      0.108434    34A      0.130890  
      35A      0.140429    36A      0.166579    37A      0.179638  
      38A      0.194805    39A      0.224948    40A      0.257531  
      41A      0.264029    42A      0.312038    43A      0.332915  
      44A      0.339819    45A      0.358082    46A      0.387293  
      47A      0.415948    48A      0.420931    49A      0.422030  
      50A      0.452851    51A      0.458777    52A      0.464782  
      53A      0.480657    54A      0.500878    55A      0.503461  
      56A      0.529779    57A      0.534362    58A      0.539411  
      59A      0.543739    60A      0.548788    61A      0.569730  
      62A      0.581961    63A      0.587055    64A      0.602127  
      65A      0.609347    66A      0.615298    67A      0.624807  
      68A      0.648570    69A      0.653230    70A      0.674920  
      71A      0.691178    72A      0.700223    73A      0.712787  
      74A      0.717561    75A      0.729114    76A      0.741958  
      77A      0.769670    78A      0.801121    79A      0.815412  
      80A      0.818403    81A      0.834478    82A      0.854105  
      83A      0.873716    84A      0.882697    85A      0.887799  
      86A      0.916101    87A      0.917699    88A      0.928299  
      89A      0.952574    90A      0.965114    91A      0.981541  
      92A      0.995108    93A      1.026322    94A      1.041605  
      95A      1.060195    96A      1.079054    97A      1.093455  
      98A      1.101194    99A      1.115758   100A      1.158090  
     101A      1.193597   102A      1.205475   103A      1.222501  
     104A      1.230385   105A      1.236737   106A      1.271494  
     107A      1.288395   108A      1.307913   109A      1.348124  
     110A      1.356630   111A      1.371298   112A      1.383256  
     113A      1.393535   114A      1.413444   115A      1.432701  
     116A      1.443907   117A      1.471267   118A      1.486089  
     119A      1.500753   120A      1.515484   121A      1.547557  
     122A      1.553544   123A      1.565076   124A      1.569469  
     125A      1.591134   126A      1.629400   127A      1.641740  
     128A      1.661514   129A      1.673513   130A      1.703595  
     131A      1.732016   132A      1.772018   133A      1.788509  
     134A      1.811099   135A      1.821730   136A      1.938663  
     137A      1.956717   138A      1.980373   139A      2.030665  
     140A      2.057428   141A      2.084048   142A      2.102568  
     143A      2.178776   144A      2.202128   145A      2.214787  
     146A      2.223844   147A      2.297307   148A      2.321271  
     149A      2.340248   150A      2.372395   151A      2.377822  
     152A      2.393179   153A      2.421121   154A      2.479337  
     155A      2.500325   156A      2.524514   157A      2.537970  
     158A      2.583229   159A      2.609369   160A      2.631383  
     161A      2.637841   162A      2.645952   163A      2.674104  
     164A      2.697479   165A      2.726726   166A      2.764271  
     167A      2.768841   168A      2.805185   169A      2.825360  
     170A      2.838897   171A      2.857934   172A      2.889661  
     173A      2.935105   174A      2.938757   175A      2.950853  
     176A      2.959847   177A      2.969342   178A      2.980528  
     179A      2.993931   180A      3.009515   181A      3.011112  
     182A      3.033272   183A      3.070033   184A      3.079901  
     185A      3.102533   186A      3.113012   187A      3.144600  
     188A      3.169413   189A      3.200405   190A      3.215489  
     191A      3.229465   192A      3.242672   193A      3.247178  
     194A      3.259953   195A      3.272618   196A      3.287321  
     197A      3.301194   198A      3.326398   199A      3.336801  
     200A      3.350275   201A      3.362517   202A      3.379581  
     203A      3.395683   204A      3.403607   205A      3.411099  
     206A      3.421500   207A      3.436904   208A      3.439216  
     209A      3.457664   210A      3.477483   211A      3.497038  
     212A      3.504638   213A      3.528021   214A      3.553943  
     215A      3.571903   216A      3.592487   217A      3.619435  
     218A      3.624418   219A      3.644675   220A      3.654030  
     221A      3.658146   222A      3.669186   223A      3.689824  
     224A      3.709333   225A      3.731676   226A      3.757899  
     227A      3.759392   228A      3.812655   229A      3.847055  
     230A      3.867827   231A      3.921682   232A      3.938595  
     233A      3.939175   234A      3.983530   235A      4.000065  
     236A      4.006986   237A      4.024142   238A      4.042090  
     239A      4.059003   240A      4.081223   241A      4.096109  
     242A      4.124333   243A      4.139097   244A      4.152473  
     245A      4.170456   246A      4.178955   247A      4.191235  
     248A      4.197454   249A      4.200795   250A      4.227262  
     251A      4.252487   252A      4.288314   253A      4.293863  
     254A      4.331896   255A      4.336700   256A      4.356629  
     257A      4.364022   258A      4.383623   259A      4.393687  
     260A      4.437152   261A      4.442378   262A      4.468832  
     263A      4.493074   264A      4.536569   265A      4.544807  
     266A      4.552577   267A      4.563363   268A      4.592083  
     269A      4.644221   270A      4.650284   271A      4.665104  
     272A      4.673388   273A      4.680939   274A      4.717803  
     275A      4.749766   276A      4.761785   277A      4.785071  
     278A      4.815063   279A      4.855033   280A      4.943084  
     281A      4.979082   282A      5.009466   283A      5.021578  
     284A      5.031639   285A      5.043032   286A      5.070437  
     287A      5.086596   288A      5.099486   289A      5.114082  
     290A      5.144722   291A      5.168545   292A      5.215023  
     293A      5.258397   294A      5.280835   295A      5.315664  
     296A      5.322449   297A      5.346722   298A      5.360661  
     299A      5.485167   300A      5.500610   301A      5.525740  
     302A      5.553800   303A      5.589297   304A      5.681371  
     305A      5.685416   306A      5.784306   307A      5.834935  
     308A      5.902654   309A      5.998875   310A      6.063187  
     311A      6.064318   312A      6.171973   313A      6.245849  
     314A      6.290804   315A      6.380979   316A      6.471915  
     317A      6.503964   318A      6.599860   319A      6.711573  
     320A      6.776485   321A      6.888952   322A      6.997526  
     323A      7.057540   324A      7.125572   325A      7.197734  
     326A      7.231504   327A      7.385902   328A      7.464225  
     329A      7.578127   330A      7.709934   331A      8.096692  
     332A      9.260941   333A     10.352249   334A     13.062732  
     335A     13.292593   336A     13.580873   337A     13.847174  
     338A     14.298618   339A     16.376747   340A     16.963009  

    Final Occupation by Irrep:
              A 
    DOCC [    31 ]

  Energy converged.

  @DF-RHF Final Energy:  -397.42919248041642

   => Energetics <=

    Nuclear Repulsion Energy =            380.4362168894371052
    One-Electron Energy =               -1292.9618812067319595
    Two-Electron Energy =                 515.0964718368783224
    DFT Exchange-Correlation Energy =       0.0000000000000000
    Empirical Dispersion Energy =           0.0000000000000000
    PCM Polarization Energy =               0.0000000000000000
    EFP Energy =                            0.0000000000000000
    Total Energy =                       -397.4291924804165319

    Alert: EFP and PCM quantities not currently incorporated into SCF psivars.

Properties will be evaluated at   0.000000,   0.000000,   0.000000 Bohr
  ==> Properties <==


Properties computed using the SCF density matrix

  Nuclear Dipole Moment: (a.u.)
     X:    -2.5484      Y:     0.0037      Z:    -4.2283

  Electronic Dipole Moment: (a.u.)
     X:     1.6967      Y:    -0.4142      Z:     2.8110

  Dipole Moment: (a.u.)
     X:    -0.8517      Y:    -0.4105      Z:    -1.4173     Total:     1.7037

  Dipole Moment: (Debye)
     X:    -2.1648      Y:    -1.0434      Z:    -3.6024     Total:     4.3304


  Saving occupied orbitals to File 180.

*** tstop() called on cx1-27-4-2 at Fri Sep  9 23:41:37 2016
Module time:
	user time   =      56.88 seconds =       0.95 minutes
	system time =       0.87 seconds =       0.01 minutes
	total time  =         17 seconds =       0.28 minutes
Total time:
	user time   =      56.88 seconds =       0.95 minutes
	system time =       0.87 seconds =       0.01 minutes
	total time  =         17 seconds =       0.28 minutes

*** tstart() called on cx1-27-4-2
*** at Fri Sep  9 23:41:37 2016


         ------------------------------------------------------------
                                   SCF GRAD                          
                          Rob Parrish, Justin Turney,                
                       Andy Simmonett, and Alex Sokolov              
         ------------------------------------------------------------

  ==> Geometry <==

    Molecular point group: c1
    Full point group: C1

    Geometry (in Angstrom), charge = 0, multiplicity = 1:

       Center              X                  Y                   Z               Mass       
    ------------   -----------------  -----------------  -----------------  -----------------
           H         -1.969949631462    -2.454849776710    -0.479450064784     1.007825032070
           O         -2.274831631462    -1.565210776710    -0.479450064784    15.994914619560
           C         -1.251081631462    -0.692759776710    -0.479450064784    12.000000000000
           C         -1.163710631462     0.190511223290    -1.545690064784    12.000000000000
           C         -0.309063631462    -0.653160776710     0.526658935216    12.000000000000
           H         -1.905818631462     0.143758223290    -2.317778064784     1.007825032070
           C         -0.136842631462     1.105187223290    -1.597851064784    12.000000000000
           H         -0.364621631462    -1.330594776710     1.357287935216     1.007825032070
           C          0.720620368538     0.275706223290     0.458953935216    12.000000000000
           H         -0.076541631462     1.784505223290    -2.425636064784     1.007825032070
           C          0.817672368538     1.159431223290    -0.597007064784    12.000000000000
           C          1.701879368538     0.310141223290     1.515954935216    12.000000000000
           H          1.617866368538     1.870218223290    -0.635045064784     1.007825032070
           N          2.467475368538     0.334326223290     2.344182935216    14.003074004780

  Nuclear repulsion =  380.436216889437105

  ==> Basis Set <==

  Basis Set: CC-PVTZ
    Number of shells: 120
    Number of basis function: 340
    Number of Cartesian functions: 390
    Spherical Harmonics?: true
    Max angular momentum: 3

  ==> DFJKGrad: Density-Fitted SCF Gradients <==

    Gradient:                    1
    J tasked:                  Yes
    K tasked:                  Yes
    wK tasked:                  No
    OpenMP threads:              4
    Integrals threads:           4
    Memory (MB):              1430
    Schwarz Cutoff:          0E+00
    Fitting Condition:       1E-12

   => Auxiliary Basis Set <=

  Basis Set: 
    Number of shells: 275
    Number of basis function: 861
    Number of Cartesian functions: 1039
    Spherical Harmonics?: true
    Max angular momentum: 4


  -Total Gradient:
     Atom            X                  Y                   Z
    ------   -----------------  -----------------  -----------------
       1       -0.000211074729     0.000873181683    -0.002728631815
       2        0.009008817340     0.007525944681    -0.002038476118
       3       -0.009242304187    -0.006458467446     0.007458881249
       4       -0.001089804182    -0.000327360593    -0.003840403055
       5        0.000807225765     0.001114269146    -0.000744418846
       6       -0.000102384582     0.000224223968    -0.000010388742
       7       -0.001662228541    -0.003902849101     0.000293210874
       8        0.001155983031    -0.000292728131     0.000757204362
       9       -0.000393176394     0.001155685558    -0.001395373317
      10       -0.000380721314    -0.000134651549     0.000053888729
      11        0.002250004652     0.000412143117     0.002034676580
      12        0.000237995840    -0.000062044607     0.000228721893
      13       -0.000071481691    -0.000122121300     0.000100186646
      14       -0.000306851011    -0.000005225424    -0.000169078442


*** tstop() called on cx1-27-4-2 at Fri Sep  9 23:42:02 2016
Module time:
	user time   =      97.84 seconds =       1.63 minutes
	system time =       0.60 seconds =       0.01 minutes
	total time  =         25 seconds =       0.42 minutes
Total time:
	user time   =     154.74 seconds =       2.58 minutes
	system time =       1.47 seconds =       0.02 minutes
	total time  =         42 seconds =       0.70 minutes
CURRENT ENERGY: -397.4291924804

			-----------------------------------------
			 OPTKING 2.0: for geometry optimizations 
			  - R.A. King,  Bethel University        
			-----------------------------------------

	Internal coordinates to be generated automatically.
	Detected frag with atoms:  1 2 3 4 5 6 7 8 9 10 11 12 13 14
	---Fragment 1 Bond Connectivity---
	 1 : 2
	 2 : 1 3
	 3 : 2 4 5
	 4 : 3 6 7
	 5 : 3 8 9
	 6 : 4
	 7 : 4 10 11
	 8 : 5
	 9 : 5 11 12
	 10 : 7
	 11 : 7 9 13
	 12 : 9 14
	 13 : 11
	 14 : 12

	Assuming in current code that numbering for constraints corresponds to unified fragment.
	Frozen dihedral atom list: 
	     5     3     2     1
	---Fragment 1 Geometry and Gradient---
	 H          -3.7226652990       -4.6389937754       -0.9060293168
	 O          -4.2988087819       -2.9578197082       -0.9060293168
	 C          -2.3642016533       -1.3091262539       -0.9060293168
	 C          -2.1990943914        0.3600140373       -2.9209309088
	 C          -0.5840456211       -1.2342949887        0.9952411530
	 H          -3.6014752724        0.2716636714       -4.3799657793
	 C          -0.2585950968        2.0885011776       -3.0195009136
	 H          -0.6890350256       -2.5144597218        2.5649024810
	 C           1.3617751423        0.5210092551        0.8672972452
	 H          -0.1446427212        3.3722261547       -4.5837878605
	 C           1.5451768430        2.1910074819       -1.1281798518
	 C           3.2160859177        0.5860819745        2.8647396574
	 H           3.0573243561        3.5342002507       -1.2000612545
	 N           4.6628526862        0.6317850011        4.4298637529
	            -0.0002110747        0.0008731817       -0.0027286318
	             0.0090088173        0.0075259447       -0.0020384761
	            -0.0092423042       -0.0064584674        0.0074588812
	            -0.0010898042       -0.0003273606       -0.0038404031
	             0.0008072258        0.0011142691       -0.0007444188
	            -0.0001023846        0.0002242240       -0.0000103887
	            -0.0016622285       -0.0039028491        0.0002932109
	             0.0011559830       -0.0002927281        0.0007572044
	            -0.0003931764        0.0011556856       -0.0013953733
	            -0.0003807213       -0.0001346515        0.0000538887
	             0.0022500047        0.0004121431        0.0020346766
	             0.0002379958       -0.0000620446        0.0002287219
	            -0.0000714817       -0.0001221213        0.0001001866
	            -0.0003068510       -0.0000052254       -0.0001690784

	Previous optimization step data not found.  Starting new optimization.

	---Fragment 1 Intrafragment Coordinates---
	 - Coordinate -           - BOHR/RAD -       - ANG/DEG -
	 R(1,2)           =         1.777157	       0.940431
	 R(2,3)           =         2.541829	       1.345078
	 R(3,4)           =         2.621663	       1.387325
	 R(3,5)           =         2.605645	       1.378848
	 R(4,6)           =         2.025651	       1.071928
	 R(4,7)           =         2.600562	       1.376158
	 R(5,8)           =         2.028221	       1.073289
	 R(5,9)           =         2.623677	       1.388390
	 R(7,10)          =         2.026803	       1.072538
	 R(7,11)          =         2.615568	       1.384099
	 R(9,11)          =         2.608536	       1.380378
	 R(9,12)          =         2.726257	       1.442673
	 R(11,13)         =         2.023839	       1.070969
	 R(12,14)         =         2.131862	       1.128133
	 B(1,2,3)         =         1.946413	     111.521257
	 B(2,3,4)         =         2.049799	     117.444848
	 B(2,3,5)         =         2.139584	     122.589133
	 B(3,4,6)         =         2.073969	     118.829685
	 B(3,4,7)         =         2.093580	     119.953319
	 B(3,5,8)         =         2.107389	     120.744486
	 B(3,5,9)         =         2.083245	     119.361147
	 B(4,3,5)         =         2.093802	     119.966019
	 B(4,7,10)        =         2.085394	     119.484263
	 B(4,7,11)        =         2.109742	     120.879304
	 B(5,9,11)        =         2.115028	     121.182161
	 B(5,9,12)        =         2.076792	     118.991418
	 B(6,4,7)         =         2.115636	     121.216996
	 B(7,11,9)        =         2.070974	     118.658050
	 B(7,11,13)       =         2.112500	     121.037336
	 B(8,5,9)         =         2.092551	     119.894367
	 B(9,11,13)       =         2.099712	     120.304614
	 B(9,12,14)       =         3.138358	     179.814685
	 L(9,12,14)       =         3.141593	     180.000000
	 B(10,7,11)       =         2.088050	     119.636433
	 B(11,9,12)       =         2.091366	     119.826421
	 D(1,2,3,4)       =         2.094395	     119.999997
	*D(1,2,3,5)       =        -1.047198	     -60.000007
	 D(2,3,4,6)       =         0.000000	       0.000000
	 D(2,3,4,7)       =         3.141593	     180.000000
	 D(2,3,5,8)       =         0.000000	       0.000000
	 D(2,3,5,9)       =         3.141593	     180.000000
	 D(3,4,7,10)      =         3.141593	     180.000000
	 D(3,4,7,11)      =        -0.000000	      -0.000000
	 D(3,5,9,11)      =         0.000000	       0.000000
	 D(3,5,9,12)      =         3.141593	     180.000000
	 D(4,3,5,8)       =         3.141593	     180.000000
	 D(4,3,5,9)       =         0.000000	       0.000000
	 D(4,7,11,9)      =         0.000000	       0.000000
	 D(4,7,11,13)     =         3.141593	     180.000000
	 D(5,3,4,6)       =         3.141593	     180.000000
	 D(5,3,4,7)       =        -0.000000	      -0.000000
	 D(5,9,11,7)      =        -0.000000	      -0.000000
	 D(5,9,11,13)     =         3.141593	     180.000000
	 D(6,4,7,10)      =        -0.000000	      -0.000000
	 D(6,4,7,11)      =         3.141593	     180.000000
	 D(7,11,9,12)     =         3.141593	     180.000000
	 D(8,5,9,11)      =         3.141593	     180.000000
	 D(8,5,9,12)      =         0.000000	       0.000000
	 D(9,11,7,10)     =         3.141593	     180.000000
	 D(10,7,11,13)    =        -0.000000	      -0.000000
	 D(12,9,11,13)    =         0.000000	       0.000000

	Current energy   :      -397.4291924804

	Generating empirical Hessian (Schlegel '84) for each fragment.
	Taking RFO optimization step.
	Going to follow RFO solution 1.
	Using RFO vector 1.
	Norm of target step-size    0.20206
	Projected energy change by RFO approximation:        -0.0002232633

	Back-transformation to cartesian coordinates...
	Could not converge backtransformation.
	Using first guess instead.

	Back-transformation to cartesian coordinates to adjust frozen coordinates...
	Successfully converged to displaced geometry.

	--- Internal Coordinate Step in ANG or DEG, aJ/ANG or AJ/DEG ---
	 ---------------------------------------------------------------------------
	   Coordinate                Previous        Force       Change         New 
	   ----------                --------       ------       ------       ------
	    1 R(1,2)          =      0.940431     0.007365     0.045099     0.985530
	    2 R(2,3)          =      1.345078     0.100051     0.019156     1.364234
	    3 R(3,4)          =      1.387325    -0.001570     0.016977     1.404302
	    4 R(3,5)          =      1.378848    -0.011524     0.075856     1.454704
	    5 R(4,6)          =      1.071928    -0.000565     0.050657     1.122585
	    6 R(4,7)          =      1.376158     0.017408     0.020133     1.396291
	    7 R(5,8)          =      1.073289    -0.005857     0.020571     1.093860
	    8 R(5,9)          =      1.388390    -0.000482     0.014275     1.402666
	    9 R(7,10)         =      1.072538     0.001221     0.014526     1.087064
	   10 R(7,11)         =      1.384099    -0.014748     0.064922     1.449021
	   11 R(9,11)         =      1.380378     0.013609     0.020783     1.401161
	   12 R(9,12)         =      1.442673     0.000039     0.075763     1.518436
	   13 R(11,13)        =      1.070969     0.001137     0.013238     1.084207
	   14 R(12,14)        =      1.128133     0.002739     2.498726     3.626859
	   15 B(1,2,3)        =    111.521257     0.000011    -1.659880   109.861377
	   16 B(2,3,4)        =    117.444848     0.000505    -0.107466   117.337381
	   17 B(2,3,5)        =    122.589133    -0.000471    -1.139623   121.449510
	   18 B(3,4,6)        =    118.829685    -0.000059     1.035644   119.865329
	   19 B(3,4,7)        =    119.953319     0.000098    -2.106858   117.846461
	   20 B(3,5,8)        =    120.744486    -0.000099     1.387188   122.131675
	   21 B(3,5,9)        =    119.361147     0.000024     1.033637   120.394784
	   22 B(4,3,5)        =    119.966019    -0.000034     1.057921   121.023940
	   23 B(4,7,10)       =    119.484263     0.000092    -2.169314   117.314948
	   24 B(4,7,11)       =    120.879304    -0.000131     0.798857   121.678161
	   25 B(5,9,11)       =    121.182161    -0.000023    -2.418934   118.763227
	   26 B(5,9,12)       =    118.991418     0.000029     1.106277   120.097695
	   27 B(6,4,7)        =    121.216996    -0.000039     1.069044   122.286039
	   28 B(7,11,9)       =    118.658050     0.000066     1.602559   120.260609
	   29 B(7,11,13)      =    121.037336    -0.000041     0.963302   122.000638
	   30 B(8,5,9)        =    119.894367     0.000075    -2.421922   117.472445
	   31 B(9,11,13)      =    120.304614    -0.000025    -2.567920   117.736694
	   32 B(9,12,14)      =    179.814685     0.000012   -89.851189    89.963496
	   33 L(9,12,14)      =    180.000000     0.000942     0.000000   180.000000
	   34 B(10,7,11)      =    119.636433     0.000039     1.367946   121.004380
	   35 B(11,9,12)      =    119.826421    -0.000006     1.307820   121.134241
	   36 D(1,2,3,4)      =    119.999997     0.000035     4.950098   124.950095
	   37 *D(1,2,3,5)     =    -60.000007    -0.000000    -0.000000   -60.000007
	   38 D(2,3,4,6)      =      0.000000    -0.000023    -3.211309    -3.211309
	   39 D(2,3,4,7)      =    180.000000    -0.000027    -3.734960   176.265040
	   40 D(2,3,5,8)      =      0.000000     0.000020     2.572765     2.572765
	   41 D(2,3,5,9)      =    180.000000     0.000022     2.963436   182.963436
	   42 D(3,4,7,10)     =    180.000000    -0.000001    -0.218302   179.781698
	   43 D(3,4,7,11)     =      0.000000     0.000003     0.352775     0.352775
	   44 D(3,5,9,11)     =      0.000000     0.000010     1.493738     1.493738
	   45 D(3,5,9,12)     =    180.000000     0.000004     0.702811   180.702811
	   46 D(4,3,5,8)      =    180.000000    -0.000016    -2.558995   177.441005
	   47 D(4,3,5,9)      =      0.000000    -0.000014    -2.168324    -2.168324
	   48 D(4,7,11,9)     =      0.000000    -0.000007    -0.995292    -0.995292
	   49 D(4,7,11,13)    =    180.000000    -0.000003    -0.461302   179.538698
	   50 D(5,3,4,6)      =    180.000000     0.000011     1.716488   181.716488
	   51 D(5,3,4,7)      =      0.000000     0.000007     1.192837     1.192837
	   52 D(5,9,11,7)     =      0.000000     0.000000     0.030293     0.030293
	   53 D(5,9,11,13)    =    180.000000    -0.000003    -0.481342   179.518658
	   54 D(6,4,7,10)     =      0.000000    -0.000005    -0.755461    -0.755461
	   55 D(6,4,7,11)     =    180.000000    -0.000001    -0.184384   179.815616
	   56 D(7,11,9,12)    =    180.000000     0.000006     0.829734   180.829734
	   57 D(8,5,9,11)     =    180.000000     0.000012     1.866618   181.866618
	   58 D(8,5,9,12)     =      0.000000     0.000007     1.075690     1.075690
	   59 D(9,11,7,10)    =    180.000000    -0.000003    -0.403315   179.596685
	   60 D(10,7,11,13)   =      0.000000     0.000001     0.130676     0.130676
	   61 D(12,9,11,13)   =      0.000000     0.000002     0.318100     0.318100
	 ---------------------------------------------------------------------------

  ==> Convergence Check <==

  Measures of convergence in internal coordinates in au.
  Criteria marked as inactive (o), active & met (*), and active & unmet ( ).
  --------------------------------------------------------------------------------------------- ~
   Step     Total Energy     Delta E     MAX Force     RMS Force      MAX Disp      RMS Disp    ~
  --------------------------------------------------------------------------------------------- ~
    Convergence Criteria    1.00e-06 *    3.00e-04 *             o    1.20e-03 *             o  ~
  --------------------------------------------------------------------------------------------- ~
      1    -397.42919248   -3.97e+02      1.24e-02      2.63e-03 o    4.72e+00      6.39e-01 o  ~
  ---------------------------------------------------------------------------------------------

	Writing optimization data to binary file.
	Structure for next step:
	Cartesian Geometry (in Angstrom)
	    H    -1.7965701645  -2.5481229550  -0.3149724317
	    O    -2.1886291695  -1.6876497883  -0.5927231754
	    C    -1.2423566133  -0.7067013572  -0.5340406276
	    C    -1.0152254404   0.0408780924  -1.7009164447
	    C    -0.5724545754  -0.3719827793   0.7130999114
	    H    -1.5644079701  -0.2166148713  -2.6455292468
	    C    -0.1069395226   1.0990692179  -1.6310900047
	    H    -0.7667442438  -0.9158800349   1.6420541614
	    C     0.3519935009   0.6818311536   0.7615006856
	    H     0.0650497550   1.6696503147  -2.5402457546
	    C     0.5918815437   1.4223221932  -0.4035649358
	    C     1.0592159191   1.0151727209   2.0631798389
	    H     1.3036285654   2.2381247750  -0.3453632358
	    N     3.7546104126  -1.2428875191   1.1742920203
			--------------------------
			 OPTKING Finished Execution 
			--------------------------

    Structure for next step:
    Molecular point group: c1
    Full point group: C1

    Geometry (in Angstrom), charge = 0, multiplicity = 1:

    H           -1.826660597028    -2.497701056664    -0.264099279342
    O           -2.218719572078    -1.637227955713    -0.541850001818
    C           -1.272447088154    -0.656279599505    -0.483167458506
    C           -1.045315932590     0.091299792984    -1.650043186442
    C           -0.602545101380    -0.321561047159     0.763972985269
    H           -1.594498420390    -0.166193150989    -2.594655916481
    C           -0.137030084105     1.149490837679    -1.580216751811
    H           -0.796834754985    -0.865458261253     1.692927164323
    C            0.321902904285     0.732252805270     0.812373755722
    H            0.034959180292     1.720071890950    -2.489372432307
    C            0.561790928783     1.472743788330    -0.352691776621
    C            1.029125268444     1.065594347146     2.114052809620
    H            1.273537896160     2.288546307797    -0.294490081058
    N            3.724519556195    -1.192465720483     1.225165058981

gradient() will perform analytic gradient computation.

*** tstart() called on cx1-27-4-2
*** at Fri Sep  9 23:42:03 2016


         ---------------------------------------------------------
                                   SCF
            by Justin Turney, Rob Parrish, and Andy Simmonett
                              RHF Reference
                        4 Threads,   2000 MiB Core
         ---------------------------------------------------------

  ==> Geometry <==

    Molecular point group: c1
    Full point group: C1

    Geometry (in Angstrom), charge = 0, multiplicity = 1:

       Center              X                  Y                   Z               Mass       
    ------------   -----------------  -----------------  -----------------  -----------------
           H         -1.826660597028    -2.497701056664    -0.264099279342     1.007825032070
           O         -2.218719572078    -1.637227955713    -0.541850001818    15.994914619560
           C         -1.272447088154    -0.656279599505    -0.483167458506    12.000000000000
           C         -1.045315932590     0.091299792984    -1.650043186442    12.000000000000
           C         -0.602545101380    -0.321561047159     0.763972985269    12.000000000000
           H         -1.594498420390    -0.166193150989    -2.594655916481     1.007825032070
           C         -0.137030084105     1.149490837679    -1.580216751811    12.000000000000
           H         -0.796834754985    -0.865458261253     1.692927164323     1.007825032070
           C          0.321902904285     0.732252805270     0.812373755722    12.000000000000
           H          0.034959180292     1.720071890950    -2.489372432307     1.007825032070
           C          0.561790928783     1.472743788330    -0.352691776621    12.000000000000
           C          1.029125268444     1.065594347146     2.114052809620    12.000000000000
           H          1.273537896160     2.288546307797    -0.294490081058     1.007825032070
           N          3.724519556195    -1.192465720483     1.225165058981    14.003074004780

  Running in c1 symmetry.

  Rotational constants: A =      0.07010  B =      0.03334  C =      0.02938 [cm^-1]
  Rotational constants: A =   2101.61675  B =    999.51174  C =    880.90548 [MHz]
  Nuclear repulsion =  350.744353977421099

  Charge       = 0
  Multiplicity = 1
  Electrons    = 62
  Nalpha       = 31
  Nbeta        = 31

  ==> Algorithm <==

  SCF Algorithm Type is DF.
  DIIS enabled.
  MOM disabled.
  Fractional occupation disabled.
  Guess Type is READ.
  Energy threshold   = 1.00e-08
  Density threshold  = 1.00e-08
  Integral threshold = 0.00e+00

  ==> Primary Basis <==

  Basis Set: CC-PVTZ
    Number of shells: 120
    Number of basis function: 340
    Number of Cartesian functions: 390
    Spherical Harmonics?: true
    Max angular momentum: 3

  ==> Pre-Iterations <==

   -------------------------------------------------------
    Irrep   Nso     Nmo     Nalpha   Nbeta   Ndocc  Nsocc
   -------------------------------------------------------
     A        340     340       0       0       0       0
   -------------------------------------------------------
    Total     340     340      31      31      31       0
   -------------------------------------------------------

 OEINTS: Overlap, kinetic, potential, dipole, and quadrupole integrals
         stored in file 35.

  ==> Integral Setup <==

  ==> DFJK: Density-Fitted J/K Matrices <==

    J tasked:                  Yes
    K tasked:                  Yes
    wK tasked:                  No
    OpenMP threads:              4
    Integrals threads:           4
    Memory (MB):              1430
    Algorithm:                Core
    Integral Cache:           NONE
    Schwarz Cutoff:          1E-12
    Fitting Condition:       1E-12

   => Auxiliary Basis Set <=

  Basis Set: 
    Number of shells: 275
    Number of basis function: 861
    Number of Cartesian functions: 1039
    Spherical Harmonics?: true
    Max angular momentum: 4

  Minimum eigenvalue in the overlap matrix is 4.1358606652E-05.
  Using Symmetric Orthogonalization.
  SCF Guess: Reading in previously saved MOs, projecting if necessary.

  Using orbitals from previous SCF, no projection.
  Recomputing DOCC and SOCC from number of alpha and beta electrons from previous calculation.
              A 
    DOCC [    31 ]

  ==> Iterations <==

                           Total Energy        Delta E     RMS |[F,P]|

   @DF-RHF iter   0:  -394.33758309372712   -3.94338e+02   4.88868e-03 
   @DF-RHF iter   1:  -394.18334443550151    1.54239e-01   4.99950e-03 
   @DF-RHF iter   2:  -383.60122390641624    1.05821e+01   7.10410e-03 DIIS
   @DF-RHF iter   3:  -394.16372243313032   -1.05625e+01   4.35918e-03 DIIS
   @DF-RHF iter   4:  -395.25466177816128   -1.09094e+00   3.41188e-03 DIIS
   @DF-RHF iter   5:  -396.66419306662061   -1.40953e+00   1.26907e-03 DIIS
   @DF-RHF iter   6:  -396.83943129591859   -1.75238e-01   5.33623e-04 DIIS
   @DF-RHF iter   7:  -396.86682623053008   -2.73949e-02   1.90779e-04 DIIS
   @DF-RHF iter   8:  -396.88099556382502   -1.41693e-02   1.36255e-04 DIIS
   @DF-RHF iter   9:  -396.88480672148859   -3.81116e-03   1.77113e-04 DIIS
   @DF-RHF iter  10:  -396.88624753480480   -1.44081e-03   1.14122e-04 DIIS
   @DF-RHF iter  11:  -396.88865258969025   -2.40505e-03   6.15071e-05 DIIS
   @DF-RHF iter  12:  -396.88899876943157   -3.46180e-04   2.10361e-05 DIIS
   @DF-RHF iter  13:  -396.88906184503657   -6.30756e-05   6.81787e-06 DIIS
   @DF-RHF iter  14:  -396.88908645414784   -2.46091e-05   5.12598e-06 DIIS
   @DF-RHF iter  15:  -396.88910270784430   -1.62537e-05   4.17835e-06 DIIS
   @DF-RHF iter  16:  -396.88911678461722   -1.40768e-05   3.67395e-06 DIIS
   @DF-RHF iter  17:  -396.88913503269765   -1.82481e-05   3.36344e-06 DIIS
   @DF-RHF iter  18:  -396.88917601159602   -4.09789e-05   2.82720e-06 DIIS
   @DF-RHF iter  19:  -396.88921113198711   -3.51204e-05   2.49349e-06 DIIS
   @DF-RHF iter  20:  -396.88922348662908   -1.23546e-05   1.68407e-06 DIIS
   @DF-RHF iter  21:  -396.88922900112954   -5.51450e-06   1.50287e-06 DIIS
   @DF-RHF iter  22:  -396.88923327348510   -4.27236e-06   1.36858e-06 DIIS
   @DF-RHF iter  23:  -396.88924197475734   -8.70127e-06   1.02682e-06 DIIS
   @DF-RHF iter  24:  -396.88924625317003   -4.27841e-06   8.29182e-07 DIIS
   @DF-RHF iter  25:  -396.88924719765754   -9.44488e-07   5.35153e-07 DIIS
   @DF-RHF iter  26:  -396.88924745183346   -2.54176e-07   3.87792e-07 DIIS
   @DF-RHF iter  27:  -396.88924761282925   -1.60996e-07   3.70973e-07 DIIS
   @DF-RHF iter  28:  -396.88924768602106   -7.31918e-08   3.01264e-07 DIIS
   @DF-RHF iter  29:  -396.88924776140442   -7.53834e-08   2.94973e-07 DIIS
   @DF-RHF iter  30:  -396.88924785821013   -9.68057e-08   2.94712e-07 DIIS
   @DF-RHF iter  31:  -396.88924793345944   -7.52493e-08   2.89658e-07 DIIS
   @DF-RHF iter  32:  -396.88924798190754   -4.84481e-08   2.88736e-07 DIIS
   @DF-RHF iter  33:  -396.88924803601543   -5.41079e-08   2.88113e-07 DIIS
   @DF-RHF iter  34:  -396.88924809196470   -5.59493e-08   2.88114e-07 DIIS
   @DF-RHF iter  35:  -396.88924813220746   -4.02428e-08   2.88153e-07 DIIS
   @DF-RHF iter  36:  -396.88924812814940    4.05805e-09   2.88120e-07 DIIS
   @DF-RHF iter  37:  -396.88924814148544   -1.33360e-08   2.88173e-07 DIIS
   @DF-RHF iter  38:  -396.88924813473972    6.74572e-09   2.88147e-07 DIIS
   @DF-RHF iter  39:  -396.88924776433481    3.70405e-07   2.87203e-07 DIIS
   @DF-RHF iter  40:  -396.88924714560557    6.18729e-07   2.85626e-07 DIIS
   @DF-RHF iter  41:  -396.88924613581713    1.00979e-06   2.83256e-07 DIIS
   @DF-RHF iter  42:  -396.88924461813752    1.51768e-06   2.81256e-07 DIIS
   @DF-RHF iter  43:  -396.88924416040555    4.57732e-07   2.78578e-07 DIIS
   @DF-RHF iter  44:  -396.88922891553881    1.52449e-05   3.37013e-06 DIIS
   @DF-RHF iter  45:  -396.88922649598084    2.41956e-06   4.61328e-06 DIIS
   @DF-RHF iter  46:  -396.88922636158821    1.34393e-07   4.67597e-06 DIIS
   @DF-RHF iter  47:  -396.88922635939076    2.19745e-09   4.67713e-06 DIIS
   @DF-RHF iter  48:  -396.88922635931493    7.58291e-11   4.67716e-06 DIIS
   @DF-RHF iter  49:  -396.88922635931334    1.59162e-12   4.67717e-06 DIIS
   @DF-RHF iter  50:  -396.88922635931300    3.41061e-13   4.67717e-06 DIIS
   @DF-RHF iter  51:  -396.88922635931311   -1.13687e-13   4.67717e-06 DIIS
   @DF-RHF iter  52:  -396.88922635931357   -4.54747e-13   4.67717e-06 DIIS
   @DF-RHF iter  53:  -396.88922635931425   -6.82121e-13   4.67717e-06 DIIS
   @DF-RHF iter  54:  -396.88922635931311    1.13687e-12   4.67717e-06 DIIS
   @DF-RHF iter  55:  -396.88922635931357   -4.54747e-13   4.67717e-06 DIIS
   @DF-RHF iter  56:  -396.88922635931357    0.00000e+00   4.67717e-06 DIIS
   @DF-RHF iter  57:  -396.88922635931380   -2.27374e-13   4.67717e-06 DIIS
   @DF-RHF iter  58:  -396.88922635931368    1.13687e-13   4.67717e-06 DIIS
   @DF-RHF iter  59:  -396.88922635931300    6.82121e-13   4.67717e-06 DIIS
   @DF-RHF iter  60:  -396.88922635931357   -5.68434e-13   4.67717e-06 DIIS
   @DF-RHF iter  61:  -396.88922635931323    3.41061e-13   4.67717e-06 DIIS
   @DF-RHF iter  62:  -396.88922635931345   -2.27374e-13   4.67717e-06 DIIS
   @DF-RHF iter  63:  -396.88922635931334    1.13687e-13   4.67717e-06 DIIS
   @DF-RHF iter  64:  -396.88922635931300    3.41061e-13   4.67717e-06 DIIS
   @DF-RHF iter  65:  -396.88922635931380   -7.95808e-13   4.67717e-06 DIIS
   @DF-RHF iter  66:  -396.88922635931311    6.82121e-13   4.67717e-06 DIIS
   @DF-RHF iter  67:  -396.88922635931380   -6.82121e-13   4.67717e-06 DIIS
   @DF-RHF iter  68:  -396.88922635931380    0.00000e+00   4.67717e-06 DIIS
   @DF-RHF iter  69:  -396.88922635931380    0.00000e+00   4.67717e-06 DIIS
   @DF-RHF iter  70:  -396.88922635931391   -1.13687e-13   4.67717e-06 DIIS
   @DF-RHF iter  71:  -396.88922635931357    3.41061e-13   4.67717e-06 DIIS
   @DF-RHF iter  72:  -396.88922635931368   -1.13687e-13   4.67717e-06 DIIS
   @DF-RHF iter  73:  -396.88922635931345    2.27374e-13   4.67717e-06 DIIS
   @DF-RHF iter  74:  -396.88922635931357   -1.13687e-13   4.67717e-06 DIIS
   @DF-RHF iter  75:  -396.88922635931323    3.41061e-13   4.67717e-06 DIIS
   @DF-RHF iter  76:  -396.88922635931391   -6.82121e-13   4.67717e-06 DIIS
   @DF-RHF iter  77:  -396.88922635931311    7.95808e-13   4.67717e-06 DIIS
   @DF-RHF iter  78:  -396.88922635931357   -4.54747e-13   4.67717e-06 DIIS
   @DF-RHF iter  79:  -396.88922635931311    4.54747e-13   4.67717e-06 DIIS
   @DF-RHF iter  80:  -396.88922635931334   -2.27374e-13   4.67717e-06 DIIS
   @DF-RHF iter  81:  -396.88922635931334    0.00000e+00   4.67717e-06 DIIS
   @DF-RHF iter  82:  -396.88922635931368   -3.41061e-13   4.67717e-06 DIIS
   @DF-RHF iter  83:  -396.88922635931300    6.82121e-13   4.67717e-06 DIIS
   @DF-RHF iter  84:  -396.88922635931334   -3.41061e-13   4.67717e-06 DIIS
   @DF-RHF iter  85:  -396.88922635931334    0.00000e+00   4.67717e-06 DIIS
   @DF-RHF iter  86:  -396.88922635931380   -4.54747e-13   4.67717e-06 DIIS
   @DF-RHF iter  87:  -396.88922635931345    3.41061e-13   4.67717e-06 DIIS
   @DF-RHF iter  88:  -396.88922635931357   -1.13687e-13   4.67717e-06 DIIS
   @DF-RHF iter  89:  -396.88922635931266    9.09495e-13   4.67717e-06 DIIS
   @DF-RHF iter  90:  -396.88922635931334   -6.82121e-13   4.67717e-06 DIIS
   @DF-RHF iter  91:  -396.88922635931289    4.54747e-13   4.67717e-06 DIIS
   @DF-RHF iter  92:  -396.88922635931323   -3.41061e-13   4.67717e-06 DIIS
   @DF-RHF iter  93:  -396.88922635931391   -6.82121e-13   4.67717e-06 DIIS
   @DF-RHF iter  94:  -396.88922635931334    5.68434e-13   4.67717e-06 DIIS
   @DF-RHF iter  95:  -396.88922635931334    0.00000e+00   4.67717e-06 DIIS
   @DF-RHF iter  96:  -396.88922635931357   -2.27374e-13   4.67717e-06 DIIS
   @DF-RHF iter  97:  -396.88922635931334    2.27374e-13   4.67717e-06 DIIS
   @DF-RHF iter  98:  -396.88922635931402   -6.82121e-13   4.67717e-06 DIIS
   @DF-RHF iter  99:  -396.88922635931357    4.54747e-13   4.67717e-06 DIIS
   @DF-RHF iter 100:  -396.88922635931334    2.27374e-13   4.67717e-06 DIIS

  ==> Post-Iterations <==

  Failed to converged.
    NOTE: MO Coefficients will not be saved to Checkpoint.
Iterations did not converge.