    -----------------------------------------------------------------------
          Psi4: An Open-Source Ab Initio Electronic Structure Package
                              Psi4 (no tag) Driver

                          Git: Rev {detached?}  

    J. M. Turney, A. C. Simmonett, R. M. Parrish, E. G. Hohenstein,
    F. A. Evangelista, J. T. Fermann, B. J. Mintz, L. A. Burns, J. J. Wilke,
    M. L. Abrams, N. J. Russ, M. L. Leininger, C. L. Janssen, E. T. Seidl,
    W. D. Allen, H. F. Schaefer, R. A. King, E. F. Valeev, C. D. Sherrill,
    and T. D. Crawford, WIREs Comput. Mol. Sci. 2, 556-565 (2012)
    (doi: 10.1002/wcms.93)

                         Additional Contributions by
    A. E. DePrince, M. Saitow, U. Bozkaya, A. Yu. Sokolov
    -----------------------------------------------------------------------


    Psi4 started on: Fri Sep  2 13:41:39 2016

    Process ID:   7327
    PSI4DATADIR: /export131/home/mjharvey/miniconda3/share
    Memory level set to 256.000 MB

  ==> Input File <==

--------------------------------------------------------------------------
set {
	reference rhf
	basis 6-31G*
}


set_num_threads( 4 )
memory 2 gb

molecule MOL {
0 1

O	 0.749854	 1.307668	 -0.000040
C	 0.576249	 0.131685	 -0.000108
C	 -0.766779	 -0.556801	 -0.000461
O	 1.568443	 -0.749345	 -0.000005
C	 -1.945214	 0.412366	 0.000161
H	 -0.796911	 -1.211249	 -0.867467
H	 -0.796854	 -1.212390	 0.865687
C	 -3.287791	 -0.317055	 0.000105
H	 -1.876087	 1.060580	 -0.866812
H	 -1.875822	 1.059691	 0.867761
H	 -3.394745	 -0.949193	 -0.877058
H	 -4.111778	 0.388953	 0.000015
H	 -3.394954	 -0.949187	 0.877259
C	 2.587675	 -0.569541	 -0.966465
H	 2.178128	 -0.622692	 -1.964958
H	 3.290222	 -1.372611	 -0.807178
H	 3.074221	 0.385876	 -0.832447

	symmetry c1
}
set optking {
	frozen_dihedral = ("
		14 4 2 1
	")
}

ee = optimize('scf')
oeprop('DIPOLE', 'QUADRUPOLE', 'MULLIKEN_CHARGES')
f=open( 'psi4out.xyz', 'w' )
f.write( "17  " )
f.write( str(ee) + "\n" )
f.write( MOL.save_string_xyz() )
f.close()
--------------------------------------------------------------------------

  Memory set to   2.000 GiB by Python script.
gradient() will perform analytic gradient computation.

*** tstart() called on cx1-3-1-1.cx1.hpc.ic.ac.uk
*** at Fri Sep  2 13:41:40 2016


         ---------------------------------------------------------
                                   SCF
            by Justin Turney, Rob Parrish, and Andy Simmonett
                              RHF Reference
                        4 Threads,   2000 MiB Core
         ---------------------------------------------------------

  ==> Geometry <==

    Molecular point group: c1
    Full point group: C1

    Geometry (in Angstrom), charge = 0, multiplicity = 1:

       Center              X                  Y                   Z               Mass       
    ------------   -----------------  -----------------  -----------------  -----------------
           O          0.796041074628     1.359700176021     0.149226495724    15.994914619560
           C          0.622436074628     0.183717176021     0.149158495724    12.000000000000
           C         -0.720591925372    -0.504768823979     0.148805495724    12.000000000000
           O          1.614630074628    -0.697312823979     0.149261495724    15.994914619560
           C         -1.899026925372     0.464398176021     0.149427495724    12.000000000000
           H         -0.750723925372    -1.159216823979    -0.718200504276     1.007825032070
           H         -0.750666925372    -1.160357823979     1.014953495724     1.007825032070
           C         -3.241603925372    -0.265022823979     0.149371495724    12.000000000000
           H         -1.829899925372     1.112612176021    -0.717545504276     1.007825032070
           H         -1.829634925372     1.111723176021     1.017027495724     1.007825032070
           H         -3.348557925372    -0.897160823979    -0.727791504276     1.007825032070
           H         -4.065590925372     0.440985176021     0.149281495724     1.007825032070
           H         -3.348766925372    -0.897154823979     1.026525495724     1.007825032070
           C          2.633862074628    -0.517508823979    -0.817198504276    12.000000000000
           H          2.224315074628    -0.570659823979    -1.815691504276     1.007825032070
           H          3.336409074628    -1.320578823979    -0.657911504276     1.007825032070
           H          3.120408074628     0.437908176021    -0.683180504276     1.007825032070

  Running in c1 symmetry.

  Rotational constants: A =      0.23901  B =      0.04142  C =      0.03742 [cm^-1]
  Rotational constants: A =   7165.45150  B =   1241.77876  C =   1121.76281 [MHz]
  Nuclear repulsion =  312.679091799879757

  Charge       = 0
  Multiplicity = 1
  Electrons    = 56
  Nalpha       = 28
  Nbeta        = 28

  ==> Algorithm <==

  SCF Algorithm Type is DF.
  DIIS enabled.
  MOM disabled.
  Fractional occupation disabled.
  Guess Type is CORE.
  Energy threshold   = 1.00e-08
  Density threshold  = 1.00e-08
  Integral threshold = 0.00e+00

  ==> Primary Basis <==

  Basis Set: 6-31G*
    Number of shells: 62
    Number of basis function: 125
    Number of Cartesian functions: 125
    Spherical Harmonics?: false
    Max angular momentum: 2

  ==> Pre-Iterations <==

   -------------------------------------------------------
    Irrep   Nso     Nmo     Nalpha   Nbeta   Ndocc  Nsocc
   -------------------------------------------------------
     A        125     125       0       0       0       0
   -------------------------------------------------------
    Total     125     125      28      28      28       0
   -------------------------------------------------------

 OEINTS: Overlap, kinetic, potential, dipole, and quadrupole integrals
         stored in file 35.

  ==> Integral Setup <==

  ==> DFJK: Density-Fitted J/K Matrices <==

    J tasked:                  Yes
    K tasked:                  Yes
    wK tasked:                  No
    OpenMP threads:              4
    Integrals threads:           4
    Memory (MB):              1430
    Algorithm:                Core
    Integral Cache:           NONE
    Schwarz Cutoff:          1E-12
    Fitting Condition:       1E-12

   => Auxiliary Basis Set <=

  Basis Set: 
    Number of shells: 258
    Number of basis function: 817
    Number of Cartesian functions: 817
    Spherical Harmonics?: false
    Max angular momentum: 3

  Minimum eigenvalue in the overlap matrix is 3.1203131474E-03.
  Using Symmetric Orthogonalization.
  SCF Guess: Core (One-Electron) Hamiltonian.

  ==> Iterations <==

                           Total Energy        Delta E     RMS |[F,P]|

   @DF-RHF iter   1:  -231.06787665948184   -2.31068e+02   7.84350e-02 
   @DF-RHF iter   2:  -131.66052559279353    9.94074e+01   8.97775e-02 DIIS
   @DF-RHF iter   3:  -221.37041987154078   -8.97099e+01   7.68119e-02 DIIS
   @DF-RHF iter   4:  -289.45148481967135   -6.80811e+01   5.95570e-02 DIIS
   @DF-RHF iter   5:  -331.11321547578257   -4.16617e+01   3.01174e-02 DIIS
   @DF-RHF iter   6:  -335.91724800650434   -4.80403e+00   2.52726e-02 DIIS
   @DF-RHF iter   7:  -344.66303735824158   -8.74579e+00   5.20873e-03 DIIS
   @DF-RHF iter   8:  -344.83322734903948   -1.70190e-01   2.86162e-03 DIIS
   @DF-RHF iter   9:  -344.87963021623034   -4.64029e-02   1.17045e-03 DIIS
   @DF-RHF iter  10:  -344.89202890510103   -1.23987e-02   5.05287e-04 DIIS
   @DF-RHF iter  11:  -344.89460689885289   -2.57799e-03   1.75489e-04 DIIS
   @DF-RHF iter  12:  -344.89489147617348   -2.84577e-04   5.41842e-05 DIIS
   @DF-RHF iter  13:  -344.89493201430412   -4.05381e-05   1.83064e-05 DIIS
   @DF-RHF iter  14:  -344.89493541861646   -3.40431e-06   4.63202e-06 DIIS
   @DF-RHF iter  15:  -344.89493585772630   -4.39110e-07   1.31248e-06 DIIS
   @DF-RHF iter  16:  -344.89493589566803   -3.79417e-08   4.83294e-07 DIIS
   @DF-RHF iter  17:  -344.89493590121481   -5.54678e-09   1.81863e-07 DIIS
   @DF-RHF iter  18:  -344.89493590244649   -1.23168e-09   6.45816e-08 DIIS
   @DF-RHF iter  19:  -344.89493590262828   -1.81785e-10   1.72263e-08 DIIS
   @DF-RHF iter  20:  -344.89493590263851   -1.02318e-11   6.49035e-09 DIIS

  ==> Post-Iterations <==

    Orbital Energies (a.u.)
    -----------------------

    Doubly Occupied:                                                      

       1A    -20.593434     2A    -20.550590     3A    -11.373516  
       4A    -11.287545     5A    -11.236477     6A    -11.221926  
       7A    -11.214876     8A     -1.466560     9A     -1.364632  
      10A     -1.080155    11A     -0.999338    12A     -0.944951  
      13A     -0.829515    14A     -0.767842    15A     -0.699860  
      16A     -0.681135    17A     -0.673135    18A     -0.635461  
      19A     -0.606722    20A     -0.576269    21A     -0.566998  
      22A     -0.534621    23A     -0.518968    24A     -0.496222  
      25A     -0.488772    26A     -0.479344    27A     -0.453912  
      28A     -0.434910  

    Virtual:                                                              

      29A      0.183773    30A      0.224982    31A      0.253799  
      32A      0.285077    33A      0.292161    34A      0.304380  
      35A      0.310728    36A      0.311096    37A      0.327545  
      38A      0.335254    39A      0.342815    40A      0.368467  
      41A      0.402230    42A      0.422174    43A      0.470217  
      44A      0.527171    45A      0.568868    46A      0.720797  
      47A      0.736478    48A      0.742208    49A      0.744766  
      50A      0.766762    51A      0.776486    52A      0.786450  
      53A      0.834114    54A      0.858883    55A      0.921565  
      56A      0.946182    57A      0.962532    58A      0.983824  
      59A      1.056138    60A      1.075025    61A      1.080757  
      62A      1.114217    63A      1.120169    64A      1.133879  
      65A      1.138312    66A      1.166123    67A      1.177883  
      68A      1.210021    69A      1.213536    70A      1.216302  
      71A      1.230515    72A      1.254384    73A      1.262827  
      74A      1.290342    75A      1.312657    76A      1.404716  
      77A      1.427047    78A      1.466657    79A      1.579633  
      80A      1.642107    81A      1.671339    82A      1.706501  
      83A      1.772566    84A      1.808318    85A      1.852329  
      86A      1.932358    87A      1.973194    88A      2.032194  
      89A      2.046837    90A      2.106819    91A      2.150244  
      92A      2.161184    93A      2.174382    94A      2.259471  
      95A      2.280248    96A      2.300090    97A      2.325082  
      98A      2.375971    99A      2.394244   100A      2.402679  
     101A      2.431099   102A      2.515117   103A      2.549991  
     104A      2.608459   105A      2.661749   106A      2.688444  
     107A      2.715259   108A      2.732504   109A      2.812349  
     110A      2.870227   111A      2.897087   112A      2.952429  
     113A      3.007092   114A      3.160521   115A      3.207770  
     116A      3.345593   117A      3.413066   118A      3.542940  
     119A      4.387042   120A      4.549963   121A      4.625451  
     122A      4.668042   123A      4.751480   124A      4.830564  
     125A      4.989329  

    Final Occupation by Irrep:
              A 
    DOCC [    28 ]

  Energy converged.

  @DF-RHF Final Energy:  -344.89493590263851

   => Energetics <=

    Nuclear Repulsion Energy =            312.6790917998797568
    One-Electron Energy =               -1089.5926817501135702
    Two-Electron Energy =                 432.0186540475953620
    DFT Exchange-Correlation Energy =       0.0000000000000000
    Empirical Dispersion Energy =           0.0000000000000000
    PCM Polarization Energy =               0.0000000000000000
    EFP Energy =                            0.0000000000000000
    Total Energy =                       -344.8949359026384514

    Alert: EFP and PCM quantities not currently incorporated into SCF psivars.

Properties will be evaluated at   0.000000,   0.000000,   0.000000 Bohr
  ==> Properties <==


Properties computed using the SCF density matrix

  Nuclear Dipole Moment: (a.u.)
     X:    -6.7782      Y:    -2.7173      Z:    -1.9790

  Electronic Dipole Moment: (a.u.)
     X:     6.7423      Y:     1.8885      Z:     1.4803

  Dipole Moment: (a.u.)
     X:    -0.0360      Y:    -0.8287      Z:    -0.4987     Total:     0.9679

  Dipole Moment: (Debye)
     X:    -0.0915      Y:    -2.1064      Z:    -1.2676     Total:     2.4601


  Saving occupied orbitals to File 180.

*** tstop() called on cx1-3-1-1.cx1.hpc.ic.ac.uk at Fri Sep  2 13:41:45 2016
Module time:
	user time   =      15.89 seconds =       0.26 minutes
	system time =       0.17 seconds =       0.00 minutes
	total time  =          5 seconds =       0.08 minutes
Total time:
	user time   =      15.89 seconds =       0.26 minutes
	system time =       0.17 seconds =       0.00 minutes
	total time  =          5 seconds =       0.08 minutes

*** tstart() called on cx1-3-1-1.cx1.hpc.ic.ac.uk
*** at Fri Sep  2 13:41:45 2016


         ------------------------------------------------------------
                                   SCF GRAD                          
                          Rob Parrish, Justin Turney,                
                       Andy Simmonett, and Alex Sokolov              
         ------------------------------------------------------------

  ==> Geometry <==

    Molecular point group: c1
    Full point group: C1

    Geometry (in Angstrom), charge = 0, multiplicity = 1:

       Center              X                  Y                   Z               Mass       
    ------------   -----------------  -----------------  -----------------  -----------------
           O          0.796041074628     1.359700176021     0.149226495724    15.994914619560
           C          0.622436074628     0.183717176021     0.149158495724    12.000000000000
           C         -0.720591925372    -0.504768823979     0.148805495724    12.000000000000
           O          1.614630074628    -0.697312823979     0.149261495724    15.994914619560
           C         -1.899026925372     0.464398176021     0.149427495724    12.000000000000
           H         -0.750723925372    -1.159216823979    -0.718200504276     1.007825032070
           H         -0.750666925372    -1.160357823979     1.014953495724     1.007825032070
           C         -3.241603925372    -0.265022823979     0.149371495724    12.000000000000
           H         -1.829899925372     1.112612176021    -0.717545504276     1.007825032070
           H         -1.829634925372     1.111723176021     1.017027495724     1.007825032070
           H         -3.348557925372    -0.897160823979    -0.727791504276     1.007825032070
           H         -4.065590925372     0.440985176021     0.149281495724     1.007825032070
           H         -3.348766925372    -0.897154823979     1.026525495724     1.007825032070
           C          2.633862074628    -0.517508823979    -0.817198504276    12.000000000000
           H          2.224315074628    -0.570659823979    -1.815691504276     1.007825032070
           H          3.336409074628    -1.320578823979    -0.657911504276     1.007825032070
           H          3.120408074628     0.437908176021    -0.683180504276     1.007825032070

  Nuclear repulsion =  312.679091799879757

  ==> Basis Set <==

  Basis Set: 6-31G*
    Number of shells: 62
    Number of basis function: 125
    Number of Cartesian functions: 125
    Spherical Harmonics?: false
    Max angular momentum: 2

  ==> DFJKGrad: Density-Fitted SCF Gradients <==

    Gradient:                    1
    J tasked:                  Yes
    K tasked:                  Yes
    wK tasked:                  No
    OpenMP threads:              4
    Integrals threads:           4
    Memory (MB):              1430
    Schwarz Cutoff:          0E+00
    Fitting Condition:       1E-12

   => Auxiliary Basis Set <=

  Basis Set: 
    Number of shells: 258
    Number of basis function: 817
    Number of Cartesian functions: 817
    Spherical Harmonics?: false
    Max angular momentum: 3


  -Total Gradient:
     Atom            X                  Y                   Z
    ------   -----------------  -----------------  -----------------
       1        0.001146108729     0.005617985340     0.004564394493
       2        0.007424497425    -0.011723653996    -0.002578010112
       3        0.002055213290    -0.004642335192    -0.004819176194
       4       -0.004821719010     0.013744412476     0.008746717452
       5        0.000726380302     0.000954099252    -0.000519322125
       6       -0.000937017494    -0.000048498560     0.000315885573
       7        0.000003803798     0.000715949845     0.000040232501
       8        0.000216492917    -0.000324827482    -0.000028185976
       9       -0.000008654691    -0.000051856600     0.000084153484
      10       -0.000074826194     0.000017724123    -0.000009568483
      11        0.000042104761     0.000047939483     0.000048263415
      12        0.000088437247     0.000077785159     0.000029466439
      13       -0.000041905069    -0.000031529024     0.000026616170
      14       -0.006283497876    -0.006197874958    -0.008981747346
      15        0.001438299330     0.001707591042     0.001640544967
      16       -0.000235492665    -0.000331591462     0.001491461754
      17       -0.000738224800     0.000468680556    -0.000051726012


*** tstop() called on cx1-3-1-1.cx1.hpc.ic.ac.uk at Fri Sep  2 13:41:50 2016
Module time:
	user time   =      17.34 seconds =       0.29 minutes
	system time =       0.18 seconds =       0.00 minutes
	total time  =          5 seconds =       0.08 minutes
Total time:
	user time   =      33.25 seconds =       0.55 minutes
	system time =       0.35 seconds =       0.01 minutes
	total time  =         10 seconds =       0.17 minutes
CURRENT ENERGY: -344.8949359026

			-----------------------------------------
			 OPTKING 2.0: for geometry optimizations 
			  - R.A. King,  Bethel University        
			-----------------------------------------

	Internal coordinates to be generated automatically.
	Detected frag with atoms:  1 2 3 4 5 6 7 8 9 10 11 12 13 14 15 16 17
	---Fragment 1 Bond Connectivity---
	 1 : 2
	 2 : 1 3 4
	 3 : 2 5 6 7
	 4 : 2 14
	 5 : 3 8 9 10
	 6 : 3
	 7 : 3
	 8 : 5 11 12 13
	 9 : 5
	 10 : 5
	 11 : 8
	 12 : 8
	 13 : 8
	 14 : 4 15 16 17
	 15 : 14
	 16 : 14
	 17 : 14

	Assuming in current code that numbering for constraints corresponds to unified fragment.
	Frozen dihedral atom list: 
	    14     4     2     1
	---Fragment 1 Geometry and Gradient---
	 O           1.5042996216        2.5694609555        0.2819972087
	 C           1.1762337163        0.3471751486        0.2818687073
	 C          -1.3617213925       -0.9538748377        0.2812016340
	 O           3.0512086470       -1.3177302663        0.2820633491
	 C          -3.5886408079        0.8775853693        0.2823770436
	 H          -1.4186626204       -2.1906023260       -1.3572022616
	 H          -1.4185549060       -2.1927585035        1.9179841445
	 C          -6.1257436502       -0.5008205563        0.2822712190
	 H          -3.4580097095        2.1025323048       -1.3559644910
	 H          -3.4575089321        2.1008523383        1.9219034365
	 H          -6.3278574191       -1.6953882545       -1.3753266249
	 H          -7.6828534173        0.8333412113        0.2821011436
	 H          -6.3282523718       -1.6953769161        1.9398520553
	 C           4.9772779928       -0.9779499487       -1.5442813693
	 H           4.2033463243       -1.0783907824       -3.4311596849
	 H           6.3048994183       -2.4955323142       -1.2432725628
	 H           5.8967166839        0.8275265240       -1.2910240524
	             0.0011461087        0.0056179853        0.0045643945
	             0.0074244974       -0.0117236540       -0.0025780101
	             0.0020552133       -0.0046423352       -0.0048191762
	            -0.0048217190        0.0137444125        0.0087467175
	             0.0007263803        0.0009540993       -0.0005193221
	            -0.0009370175       -0.0000484986        0.0003158856
	             0.0000038038        0.0007159498        0.0000402325
	             0.0002164929       -0.0003248275       -0.0000281860
	            -0.0000086547       -0.0000518566        0.0000841535
	            -0.0000748262        0.0000177241       -0.0000095685
	             0.0000421048        0.0000479395        0.0000482634
	             0.0000884372        0.0000777852        0.0000294664
	            -0.0000419051       -0.0000315290        0.0000266162
	            -0.0062834979       -0.0061978750       -0.0089817473
	             0.0014382993        0.0017075910        0.0016405450
	            -0.0002354927       -0.0003315915        0.0014914618
	            -0.0007382248        0.0004686806       -0.0000517260

	Previous optimization step data not found.  Starting new optimization.

	---Fragment 1 Intrafragment Coordinates---
	 - Coordinate -           - BOHR/RAD -       - ANG/DEG -
	 R(1,2)           =         2.246371	       1.188728
	 R(2,3)           =         2.852008	       1.509218
	 R(2,4)           =         2.507477	       1.326900
	 R(3,5)           =         2.883300	       1.525777
	 R(3,6)           =         2.053559	       1.086697
	 R(3,7)           =         2.053563	       1.086699
	 R(4,14)          =         2.675954	       1.416054
	 R(5,8)           =         2.887368	       1.527929
	 R(5,9)           =         2.049810	       1.084713
	 R(5,10)          =         2.049786	       1.084700
	 R(8,11)          =         2.053162	       1.086486
	 R(8,12)          =         2.050507	       1.085082
	 R(8,13)          =         2.053180	       1.086496
	 R(14,15)         =         2.041903	       1.080529
	 R(14,16)         =         2.038686	       1.078826
	 R(14,17)         =         2.041875	       1.080514
	 B(1,2,3)         =         2.191069	     125.539022
	 B(1,2,4)         =         2.150353	     123.206180
	 B(2,3,5)         =         1.979624	     113.424111
	 B(2,3,6)         =         1.875063	     107.433215
	 B(2,3,7)         =         1.875125	     107.436742
	 B(2,4,14)        =         2.041876	     116.990864
	 B(3,2,4)         =         1.941763	     111.254798
	 B(3,5,8)         =         1.955646	     112.050281
	 B(3,5,9)         =         1.907143	     109.271230
	 B(3,5,10)        =         1.907086	     109.267981
	 B(4,14,15)       =         1.930107	     110.587007
	 B(4,14,16)       =         1.847758	     105.868717
	 B(4,14,17)       =         1.930214	     110.593093
	 B(5,3,6)         =         1.940616	     111.189111
	 B(5,3,7)         =         1.940677	     111.192591
	 B(5,8,11)        =         1.943660	     111.363500
	 B(5,8,12)        =         1.935469	     110.894195
	 B(5,8,13)        =         1.943771	     111.369894
	 B(6,3,7)         =         1.846084	     105.772847
	 B(8,5,9)         =         1.919046	     109.953232
	 B(8,5,10)        =         1.918925	     109.946284
	 B(9,5,10)        =         1.853120	     106.175969
	 B(11,8,12)       =         1.879412	     107.682364
	 B(11,8,13)       =         1.879231	     107.672032
	 B(12,8,13)       =         1.879392	     107.681252
	 B(15,14,16)      =         1.924792	     110.282456
	 B(15,14,17)      =         1.905809	     109.194834
	 B(16,14,17)      =         1.924805	     110.283221
	 D(1,2,3,5)       =        -0.000642	      -0.036806
	 D(1,2,3,6)       =         2.151225	     123.256131
	 D(1,2,3,7)       =        -2.152632	    -123.336733
	*D(1,2,4,14)      =        -0.872664	     -49.999978
	 D(2,3,5,8)       =        -3.141366	    -179.987002
	 D(2,3,5,9)       =         1.010468	      57.895562
	 D(2,3,5,10)      =        -1.010208	     -57.880647
	 D(2,4,14,15)     =        -1.056410	     -60.527820
	 D(2,4,14,16)     =        -3.141295	    -179.982968
	 D(2,4,14,17)     =         1.056931	      60.557691
	 D(3,2,4,14)      =         2.268827	     129.994200
	 D(3,5,8,11)      =        -1.048478	     -60.073363
	 D(3,5,8,12)      =        -3.141063	    -179.969664
	 D(3,5,8,13)      =         1.049487	      60.131187
	 D(4,2,3,5)       =         3.141055	     179.969180
	 D(4,2,3,6)       =        -0.990263	     -56.737883
	 D(4,2,3,7)       =         0.989065	      56.669253
	 D(6,3,5,8)       =         1.026367	      58.806521
	 D(6,3,5,9)       =        -1.104984	     -63.310915
	 D(6,3,5,10)      =        -3.125660	    -179.087124
	 D(7,3,5,8)       =        -1.025788	     -58.773347
	 D(7,3,5,9)       =         3.126046	     179.109217
	 D(7,3,5,10)      =         1.105370	      63.333008
	 D(9,5,8,11)      =         1.076065	      61.653991
	 D(9,5,8,12)      =        -1.016520	     -58.242310
	 D(9,5,8,13)      =        -3.109155	    -178.141459
	 D(10,5,8,11)     =         3.110321	     178.208290
	 D(10,5,8,12)     =         1.017736	      58.311989
	 D(10,5,8,13)     =        -1.074899	     -61.587160

	Current energy   :      -344.8949359026

	Generating empirical Hessian (Schlegel '84) for each fragment.
	Taking RFO optimization step.
	Going to follow RFO solution 1.
	Using RFO vector 1.

	Determining step-restricting scale parameter for RS-RFO.
	Maximum step size allowed    0.50000

	 Iter      |step|        alpha        rfo_root  
	------------------------------------------------
	    0     0.57158       1.00000           1
	    1     0.51188       1.44144           1
	    2     0.50042       1.54616           1
	    3     0.50000       1.55016           1
	------------------------------------------------
	Norm of target step-size    0.50000
	Projected energy change by RFO approximation:        -0.0020217883

	Back-transformation to cartesian coordinates...
	Successfully converged to displaced geometry.

	Back-transformation to cartesian coordinates to adjust frozen coordinates...
	Successfully converged to displaced geometry.

	--- Internal Coordinate Step in ANG or DEG, aJ/ANG or AJ/DEG ---
	 ---------------------------------------------------------------------------
	   Coordinate                Previous        Force       Change         New 
	   ----------                --------       ------       ------       ------
	    1 R(1,2)          =      1.188728    -0.047170    -0.002721     1.186007
	    2 R(2,3)          =      1.509218     0.002819     0.000564     1.509782
	    3 R(2,4)          =      1.326900     0.116923     0.012332     1.339232
	    4 R(3,5)          =      1.525777     0.002426     0.000511     1.526288
	    5 R(3,6)          =      1.086697     0.001622     0.000291     1.086987
	    6 R(3,7)          =      1.086699     0.003295     0.000590     1.087289
	    7 R(4,14)         =      1.416054     0.005876     0.000863     1.416917
	    8 R(5,8)          =      1.527929     0.001302     0.000276     1.528206
	    9 R(5,9)          =      1.084713     0.000814     0.000145     1.084858
	   10 R(5,10)         =      1.084700     0.000015     0.000003     1.084703
	   11 R(8,11)         =      1.086486     0.000585     0.000105     1.086591
	   12 R(8,12)         =      1.085082     0.000136     0.000024     1.085106
	   13 R(8,13)         =      1.086496    -0.000362    -0.000065     1.086431
	   14 R(14,15)        =      1.080529     0.017673     0.003103     1.083631
	   15 R(14,16)        =      1.078826    -0.002584    -0.000451     1.078375
	   16 R(14,17)        =      1.080514    -0.000623    -0.000109     1.080404
	   17 B(1,2,3)        =    125.539022    -0.000206    -1.453218   124.085804
	   18 B(1,2,4)        =    123.206180    -0.000153    -1.316864   121.889316
	   19 B(2,3,5)        =    113.424111     0.000159     0.577280   114.001392
	   20 B(2,3,6)        =    107.433215    -0.000120    -0.647488   106.785727
	   21 B(2,3,7)        =    107.436742    -0.000031     0.037805   107.474547
	   22 B(2,4,14)       =    116.990864     0.000118     0.345015   117.335878
	   23 B(3,2,4)        =    111.254798     0.000359     0.210992   111.465790
	   24 B(3,5,8)        =    112.050281     0.000043     0.154452   112.204733
	   25 B(3,5,9)        =    109.271230    -0.000013    -0.042016   109.229214
	   26 B(3,5,10)       =    109.267981    -0.000017    -0.061379   109.206602
	   27 B(4,14,15)      =    110.587007    -0.000151    -0.724548   109.862459
	   28 B(4,14,16)      =    105.868717     0.000134     0.549679   106.418396
	   29 B(4,14,17)      =    110.593093     0.000094     0.520338   111.113431
	   30 B(5,3,6)        =    111.189111     0.000019     0.173814   111.362926
	   31 B(5,3,7)        =    111.192591    -0.000049    -0.043219   111.149372
	   32 B(5,8,11)       =    111.363500     0.000002     0.006755   111.370255
	   33 B(5,8,12)       =    110.894195     0.000013     0.067158   110.961353
	   34 B(5,8,13)       =    111.369894    -0.000007    -0.035826   111.334068
	   35 B(6,3,7)        =    105.772847     0.000008    -0.172707   105.600140
	   36 B(8,5,9)        =    109.953232    -0.000014    -0.040665   109.912567
	   37 B(8,5,10)       =    109.946284    -0.000008    -0.002419   109.943865
	   38 B(9,5,10)       =    106.175969     0.000007    -0.018190   106.157780
	   39 B(11,8,12)      =    107.682364    -0.000007    -0.024100   107.658264
	   40 B(11,8,13)      =    107.672032     0.000000    -0.011871   107.660162
	   41 B(12,8,13)      =    107.681252    -0.000002    -0.004329   107.676923
	   42 B(15,14,16)     =    110.282456    -0.000102    -0.671398   109.611058
	   43 B(15,14,17)     =    109.194834     0.000079     0.459726   109.654560
	   44 B(16,14,17)     =    110.283221    -0.000056    -0.155697   110.127524
	   45 D(1,2,3,5)      =     -0.036806     0.000033     7.356090     7.319284
	   46 D(1,2,3,6)      =    123.256131     0.000043     7.485667   130.741798
	   47 D(1,2,3,7)      =   -123.336733     0.000028     6.998313  -116.338419
	   48 *D(1,2,4,14)    =    -49.999978     0.000000     0.000000   -49.999978
	   49 D(2,3,5,8)      =   -179.987002    -0.000005    -0.283471  -180.270474
	   50 D(2,3,5,9)      =     57.895562    -0.000006    -0.305597    57.589965
	   51 D(2,3,5,10)     =    -57.880647    -0.000004    -0.226369   -58.107016
	   52 D(2,4,14,15)    =    -60.527820    -0.000015    -0.787918   -61.315738
	   53 D(2,4,14,16)    =   -179.982968     0.000013     0.080924  -179.902044
	   54 D(2,4,14,17)    =     60.557691    -0.000001    -0.349677    60.208014
	   55 D(3,2,4,14)     =    129.994200     0.000077    17.469178   147.463378
	   56 D(3,5,8,11)     =    -60.073363     0.000000     0.046724   -60.026639
	   57 D(3,5,8,12)     =   -179.969664    -0.000000     0.027596  -179.942067
	   58 D(3,5,8,13)     =     60.131187    -0.000000     0.011867    60.143054
	   59 D(4,2,3,5)      =    179.969180    -0.000047   -10.568063   169.401116
	   60 D(4,2,3,6)      =    -56.737883    -0.000037   -10.438487   -67.176370
	   61 D(4,2,3,7)      =     56.669253    -0.000051   -10.925840    45.743413
	   62 D(6,3,5,8)      =     58.806521     0.000001     0.018252    58.824773
	   63 D(6,3,5,9)      =    -63.310915     0.000001    -0.003874   -63.314788
	   64 D(6,3,5,10)     =   -179.087124     0.000002     0.075355  -179.011769
	   65 D(7,3,5,8)      =    -58.773347     0.000003     0.150543   -58.622804
	   66 D(7,3,5,9)      =    179.109217     0.000003     0.128417   179.237634
	   67 D(7,3,5,10)     =     63.333008     0.000005     0.207645    63.540653
	   68 D(9,5,8,11)     =     61.653991     0.000001     0.069307    61.723299
	   69 D(9,5,8,12)     =    -58.242310     0.000001     0.050180   -58.192130
	   70 D(9,5,8,13)     =   -178.141459     0.000000     0.034451  -178.107008
	   71 D(10,5,8,11)    =    178.208290    -0.000000     0.021937   178.230227
	   72 D(10,5,8,12)    =     58.311989    -0.000000     0.002809    58.314799
	   73 D(10,5,8,13)    =    -61.587160    -0.000001    -0.012920   -61.600080
	 ---------------------------------------------------------------------------

  ==> Convergence Check <==

  Measures of convergence in internal coordinates in au.
  Criteria marked as inactive (o), active & met (*), and active & unmet ( ).
  --------------------------------------------------------------------------------------------- ~
   Step     Total Energy     Delta E     MAX Force     RMS Force      MAX Disp      RMS Disp    ~
  --------------------------------------------------------------------------------------------- ~
    Convergence Criteria    1.00e-06 *    3.00e-04 *             o    1.20e-03 *             o  ~
  --------------------------------------------------------------------------------------------- ~
      1    -344.89493590   -3.45e+02      1.42e-02      2.19e-03 o    3.05e-01      5.83e-02 o  ~
  ---------------------------------------------------------------------------------------------

	Writing optimization data to binary file.
	Structure for next step:
	Cartesian Geometry (in Angstrom)
	    O     0.7564234947   1.3133817338  -0.0050297318
	    C     0.5747860380   0.1466396810  -0.1160905774
	    C    -0.7756212143  -0.5156994115   0.0148611772
	    O     1.5701356129  -0.7398695201   0.0139934363
	    C    -1.9393376976   0.4649195591   0.1319325564
	    H    -0.8912511872  -1.1661651766  -0.8483104224
	    H    -0.7323754885  -1.1778014010   0.8762252779
	    C    -3.2852881396  -0.2481983593   0.2555966084
	    H    -1.9452073465   1.1175270375  -0.7346617295
	    H    -1.7801756731   1.1065361386   0.9919188318
	    H    -3.4825491751  -0.8745235768  -0.6101314649
	    H    -4.0974568663   0.4668517408   0.3364675143
	    H    -3.3164129137  -0.8837648970   1.1361757472
	    C     2.7526957606  -0.5042431390  -0.7301076170
	    H     2.5281242080  -0.5108764000  -1.7901928202
	    H     3.4255860372  -1.3142158669  -0.4976084917
	    H     3.2009612512   0.4408036300  -0.4595190227
			--------------------------
			 OPTKING Finished Execution 
			--------------------------

    Structure for next step:
    Molecular point group: c1
    Full point group: C1

    Geometry (in Angstrom), charge = 0, multiplicity = 1:

    O            0.776080034395     1.328305062021     0.061538326270
    C            0.594442591620     0.161563098297    -0.049522510796
    C           -0.755964557552    -0.500775943681     0.081429233782
    O            1.589792090452    -0.724946035157     0.080561492893
    C           -1.919680952076     0.479842952097     0.198500604050
    H           -0.871594521651    -1.151241659092    -0.781742299883
    H           -0.712718835056    -1.162877882537     0.942793268699
    C           -3.265631291290    -0.233274911884     0.322164646621
    H           -1.925550600492     1.132450380641    -0.668093615720
    H           -1.760518939688     1.121459482543     1.058486813719
    H           -3.462892311690    -0.859600081571    -0.543563360590
    H           -4.077799955896     0.481775133613     0.403035546304
    H           -3.296756062942    -0.868841401049     1.202743718101
    C            2.772352147866    -0.489319672028    -0.663539503593
    H            2.547780612401    -0.495952932474    -1.723624625800
    H            3.445242373127    -1.299292338062    -0.431040395957
    H            3.220617604201     0.455727024799    -0.392950929894

gradient() will perform analytic gradient computation.

*** tstart() called on cx1-3-1-1.cx1.hpc.ic.ac.uk
*** at Fri Sep  2 13:41:51 2016


         ---------------------------------------------------------
                                   SCF
            by Justin Turney, Rob Parrish, and Andy Simmonett
                              RHF Reference
                        4 Threads,   2000 MiB Core
         ---------------------------------------------------------

  ==> Geometry <==

    Molecular point group: c1
    Full point group: C1

    Geometry (in Angstrom), charge = 0, multiplicity = 1:

       Center              X                  Y                   Z               Mass       
    ------------   -----------------  -----------------  -----------------  -----------------
           O          0.776080034395     1.328305062021     0.061538326270    15.994914619560
           C          0.594442591620     0.161563098297    -0.049522510796    12.000000000000
           C         -0.755964557552    -0.500775943681     0.081429233782    12.000000000000
           O          1.589792090452    -0.724946035157     0.080561492893    15.994914619560
           C         -1.919680952076     0.479842952097     0.198500604050    12.000000000000
           H         -0.871594521651    -1.151241659092    -0.781742299883     1.007825032070
           H         -0.712718835056    -1.162877882537     0.942793268699     1.007825032070
           C         -3.265631291290    -0.233274911884     0.322164646621    12.000000000000
           H         -1.925550600492     1.132450380641    -0.668093615720     1.007825032070
           H         -1.760518939688     1.121459482543     1.058486813719     1.007825032070
           H         -3.462892311690    -0.859600081571    -0.543563360590     1.007825032070
           H         -4.077799955896     0.481775133613     0.403035546304     1.007825032070
           H         -3.296756062942    -0.868841401049     1.202743718101     1.007825032070
           C          2.772352147866    -0.489319672028    -0.663539503593    12.000000000000
           H          2.547780612401    -0.495952932474    -1.723624625800     1.007825032070
           H          3.445242373127    -1.299292338062    -0.431040395957     1.007825032070
           H          3.220617604201     0.455727024799    -0.392950929894     1.007825032070

  Running in c1 symmetry.

  Rotational constants: A =      0.26337  B =      0.04025  C =      0.03632 [cm^-1]
  Rotational constants: A =   7895.67073  B =   1206.72580  C =   1088.75274 [MHz]
  Nuclear repulsion =  311.700504040443775

  Charge       = 0
  Multiplicity = 1
  Electrons    = 56
  Nalpha       = 28
  Nbeta        = 28

  ==> Algorithm <==

  SCF Algorithm Type is DF.
  DIIS enabled.
  MOM disabled.
  Fractional occupation disabled.
  Guess Type is READ.
  Energy threshold   = 1.00e-08
  Density threshold  = 1.00e-08
  Integral threshold = 0.00e+00

  ==> Primary Basis <==

  Basis Set: 6-31G*
    Number of shells: 62
    Number of basis function: 125
    Number of Cartesian functions: 125
    Spherical Harmonics?: false
    Max angular momentum: 2

  ==> Pre-Iterations <==

   -------------------------------------------------------
    Irrep   Nso     Nmo     Nalpha   Nbeta   Ndocc  Nsocc
   -------------------------------------------------------
     A        125     125       0       0       0       0
   -------------------------------------------------------
    Total     125     125      28      28      28       0
   -------------------------------------------------------

 OEINTS: Overlap, kinetic, potential, dipole, and quadrupole integrals
         stored in file 35.

  ==> Integral Setup <==

  ==> DFJK: Density-Fitted J/K Matrices <==

    J tasked:                  Yes
    K tasked:                  Yes
    wK tasked:                  No
    OpenMP threads:              4
    Integrals threads:           4
    Memory (MB):              1430
    Algorithm:                Core
    Integral Cache:           NONE
    Schwarz Cutoff:          1E-12
    Fitting Condition:       1E-12

   => Auxiliary Basis Set <=

  Basis Set: 
    Number of shells: 258
    Number of basis function: 817
    Number of Cartesian functions: 817
    Spherical Harmonics?: false
    Max angular momentum: 3

  Minimum eigenvalue in the overlap matrix is 2.9858305305E-03.
  Using Symmetric Orthogonalization.
  SCF Guess: Reading in previously saved MOs, projecting if necessary.

  Using orbitals from previous SCF, no projection.
  Recomputing DOCC and SOCC from number of alpha and beta electrons from previous calculation.
              A 
    DOCC [    28 ]

  ==> Iterations <==

                           Total Energy        Delta E     RMS |[F,P]|

   @DF-RHF iter   0:  -344.81379487176946   -3.44814e+02   3.15734e-03 
   @DF-RHF iter   1:  -344.88808404976089   -7.42892e-02   5.16622e-04 
   @DF-RHF iter   2:  -344.89191445068502   -3.83040e-03   1.86496e-04 DIIS
   @DF-RHF iter   3:  -344.89245329253265   -5.38842e-04   7.81909e-05 DIIS
   @DF-RHF iter   4:  -344.89252044562932   -6.71531e-05   2.27727e-05 DIIS
   @DF-RHF iter   5:  -344.89252627097244   -5.82534e-06   9.18580e-06 DIIS
   @DF-RHF iter   6:  -344.89252834122863   -2.07026e-06   3.17919e-06 DIIS
   @DF-RHF iter   7:  -344.89252867479718   -3.33569e-07   1.57184e-06 DIIS
   @DF-RHF iter   8:  -344.89252874655710   -7.17599e-08   5.68592e-07 DIIS
   @DF-RHF iter   9:  -344.89252875809700   -1.15399e-08   1.81239e-07 DIIS
   @DF-RHF iter  10:  -344.89252875926422   -1.16722e-09   6.14547e-08 DIIS
   @DF-RHF iter  11:  -344.89252875937223   -1.08002e-10   1.99555e-08 DIIS
   @DF-RHF iter  12:  -344.89252875938337   -1.11413e-11   5.99729e-09 DIIS

  ==> Post-Iterations <==

    Orbital Energies (a.u.)
    -----------------------

    Doubly Occupied:                                                      

       1A    -20.594870     2A    -20.550555     3A    -11.373354  
       4A    -11.285221     5A    -11.236377     6A    -11.222106  
       7A    -11.214787     8A     -1.463858     9A     -1.363601  
      10A     -1.079199    11A     -0.997927    12A     -0.942181  
      13A     -0.828878    14A     -0.765554    15A     -0.698838  
      16A     -0.678978    17A     -0.671597    18A     -0.635538  
      19A     -0.603473    20A     -0.575898    21A     -0.567361  
      22A     -0.529976    23A     -0.521867    24A     -0.497519  
      25A     -0.487257    26A     -0.478500    27A     -0.452503  
      28A     -0.435059  

    Virtual:                                                              

      29A      0.176690    30A      0.231211    31A      0.257315  
      32A      0.284882    33A      0.292251    34A      0.304314  
      35A      0.307964    36A      0.313107    37A      0.327881  
      38A      0.335310    39A      0.342923    40A      0.362505  
      41A      0.401921    42A      0.425284    43A      0.476816  
      44A      0.527566    45A      0.560703    46A      0.719002  
      47A      0.735325    48A      0.742088    49A      0.743052  
      50A      0.762335    51A      0.775988    52A      0.785262  
      53A      0.851893    54A      0.857260    55A      0.908905  
      56A      0.948646    57A      0.962633    58A      1.001517  
      59A      1.053756    60A      1.072385    61A      1.083813  
      62A      1.109001    63A      1.123089    64A      1.133941  
      65A      1.139502    66A      1.164591    67A      1.175381  
      68A      1.205936    69A      1.213158    70A      1.218762  
      71A      1.228805    72A      1.241397    73A      1.260024  
      74A      1.279900    75A      1.331065    76A      1.409732  
      77A      1.426551    78A      1.495507    79A      1.580361  
      80A      1.637451    81A      1.663305    82A      1.708502  
      83A      1.774682    84A      1.816367    85A      1.857163  
      86A      1.902387    87A      1.952495    88A      2.027289  
      89A      2.047801    90A      2.114615    91A      2.147429  
      92A      2.179318    93A      2.186923    94A      2.234751  
      95A      2.279125    96A      2.303907    97A      2.328988  
      98A      2.352597    99A      2.397211   100A      2.410569  
     101A      2.440810   102A      2.518064   103A      2.552011  
     104A      2.611528   105A      2.660576   106A      2.685773  
     107A      2.702070   108A      2.737095   109A      2.773550  
     110A      2.869879   111A      2.917786   112A      2.974304  
     113A      3.010765   114A      3.145227   115A      3.169200  
     116A      3.344471   117A      3.423286   118A      3.520651  
     119A      4.374202   120A      4.542538   121A      4.587799  
     122A      4.659229   123A      4.716043   124A      4.819768  
     125A      4.980873  

    Final Occupation by Irrep:
              A 
    DOCC [    28 ]

  Energy converged.

  @DF-RHF Final Energy:  -344.89252875938337

   => Energetics <=

    Nuclear Repulsion Energy =            311.7005040404437750
    One-Electron Energy =               -1087.6804036734579313
    Two-Electron Energy =                 431.0873708736308458
    DFT Exchange-Correlation Energy =       0.0000000000000000
    Empirical Dispersion Energy =           0.0000000000000000
    PCM Polarization Energy =               0.0000000000000000
    EFP Energy =                            0.0000000000000000
    Total Energy =                       -344.8925287593833104

    Alert: EFP and PCM quantities not currently incorporated into SCF psivars.

Properties will be evaluated at   0.000000,   0.000000,   0.000000 Bohr
  ==> Properties <==


Properties computed using the SCF density matrix

  Nuclear Dipole Moment: (a.u.)
     X:    -6.4517      Y:    -2.4780      Z:    -0.8749

  Electronic Dipole Moment: (a.u.)
     X:     6.4738      Y:     1.7019      Z:     0.4217

  Dipole Moment: (a.u.)
     X:     0.0221      Y:    -0.7761      Z:    -0.4532     Total:     0.8990

  Dipole Moment: (Debye)
     X:     0.0562      Y:    -1.9726      Z:    -1.1519     Total:     2.2850


  Saving occupied orbitals to File 180.

*** tstop() called on cx1-3-1-1.cx1.hpc.ic.ac.uk at Fri Sep  2 13:41:56 2016
Module time:
	user time   =      14.99 seconds =       0.25 minutes
	system time =       0.18 seconds =       0.00 minutes
	total time  =          5 seconds =       0.08 minutes
Total time:
	user time   =      49.38 seconds =       0.82 minutes
	system time =       0.58 seconds =       0.01 minutes
	total time  =         16 seconds =       0.27 minutes

*** tstart() called on cx1-3-1-1.cx1.hpc.ic.ac.uk
*** at Fri Sep  2 13:41:56 2016


         ------------------------------------------------------------
                                   SCF GRAD                          
                          Rob Parrish, Justin Turney,                
                       Andy Simmonett, and Alex Sokolov              
         ------------------------------------------------------------

  ==> Geometry <==

    Molecular point group: c1
    Full point group: C1

    Geometry (in Angstrom), charge = 0, multiplicity = 1:

       Center              X                  Y                   Z               Mass       
    ------------   -----------------  -----------------  -----------------  -----------------
           O          0.776080034395     1.328305062021     0.061538326270    15.994914619560
           C          0.594442591620     0.161563098297    -0.049522510796    12.000000000000
           C         -0.755964557552    -0.500775943681     0.081429233782    12.000000000000
           O          1.589792090452    -0.724946035157     0.080561492893    15.994914619560
           C         -1.919680952076     0.479842952097     0.198500604050    12.000000000000
           H         -0.871594521651    -1.151241659092    -0.781742299883     1.007825032070
           H         -0.712718835056    -1.162877882537     0.942793268699     1.007825032070
           C         -3.265631291290    -0.233274911884     0.322164646621    12.000000000000
           H         -1.925550600492     1.132450380641    -0.668093615720     1.007825032070
           H         -1.760518939688     1.121459482543     1.058486813719     1.007825032070
           H         -3.462892311690    -0.859600081571    -0.543563360590     1.007825032070
           H         -4.077799955896     0.481775133613     0.403035546304     1.007825032070
           H         -3.296756062942    -0.868841401049     1.202743718101     1.007825032070
           C          2.772352147866    -0.489319672028    -0.663539503593    12.000000000000
           H          2.547780612401    -0.495952932474    -1.723624625800     1.007825032070
           H          3.445242373127    -1.299292338062    -0.431040395957     1.007825032070
           H          3.220617604201     0.455727024799    -0.392950929894     1.007825032070

  Nuclear repulsion =  311.700504040443775

  ==> Basis Set <==

  Basis Set: 6-31G*
    Number of shells: 62
    Number of basis function: 125
    Number of Cartesian functions: 125
    Spherical Harmonics?: false
    Max angular momentum: 2

  ==> DFJKGrad: Density-Fitted SCF Gradients <==

    Gradient:                    1
    J tasked:                  Yes
    K tasked:                  Yes
    wK tasked:                  No
    OpenMP threads:              4
    Integrals threads:           4
    Memory (MB):              1430
    Schwarz Cutoff:          0E+00
    Fitting Condition:       1E-12

   => Auxiliary Basis Set <=

  Basis Set: 
    Number of shells: 258
    Number of basis function: 817
    Number of Cartesian functions: 817
    Spherical Harmonics?: false
    Max angular momentum: 3


  -Total Gradient:
     Atom            X                  Y                   Z
    ------   -----------------  -----------------  -----------------
       1       -0.001267867001    -0.005497024868     0.024051481919
       2        0.001097307059    -0.003247871754    -0.057546555887
       3        0.000943682800     0.002470837940     0.012849111240
       4        0.001680497743     0.009638728965     0.024594101130
       5       -0.000841006117    -0.000482176307     0.000637797654
       6        0.003302223557     0.001761795009    -0.000082718231
       7       -0.002614742423    -0.001376951169     0.000550194535
       8       -0.000335126720     0.000436941776     0.000253781838
       9        0.000235180051    -0.000209421394     0.000052238068
      10       -0.000186575451     0.000208024417     0.000107167638
      11       -0.000000799453    -0.000018172005    -0.000058110299
      12       -0.000196155252    -0.000111490100    -0.000061796814
      13        0.000022159335     0.000020306493    -0.000032785847
      14       -0.001083706884    -0.004056255219    -0.004834326396
      15       -0.001045097190     0.000118188160    -0.000019003784
      16       -0.000045481403     0.000285296215    -0.000216009283
      17        0.000335507344     0.000059243840    -0.000244567480


*** tstop() called on cx1-3-1-1.cx1.hpc.ic.ac.uk at Fri Sep  2 13:42:01 2016
Module time:
	user time   =      17.73 seconds =       0.30 minutes
	system time =       0.23 seconds =       0.00 minutes
	total time  =          5 seconds =       0.08 minutes
Total time:
	user time   =      67.13 seconds =       1.12 minutes
	system time =       0.81 seconds =       0.01 minutes
	total time  =         21 seconds =       0.35 minutes
CURRENT ENERGY: -344.8925287594

			-----------------------------------------
			 OPTKING 2.0: for geometry optimizations 
			  - R.A. King,  Bethel University        
			-----------------------------------------

	Previous internal coordinate definitions found.
	---Fragment 1 Geometry and Gradient---
	 O           1.4665787222        2.5101327881        0.1162905833
	 C           1.1233336999        0.3053100090       -0.0935839828
	 C          -1.4285659799       -0.9463293875        0.1538789511
	 O           3.0042716592       -1.3699494676        0.1522391584
	 C          -3.6276712619        0.9067717663        0.3751117789
	 H          -1.6470749448       -2.1755314485       -1.4772788533
	 H          -1.3468434080       -2.1975207240        1.7816210778
	 C          -6.1711487915       -0.4408256971        0.6088029518
	 H          -3.6387632899        2.1400210785       -1.2625139648
	 H          -3.3268986478        2.1192512911        2.0002501932
	 H          -6.5439180968       -1.6244087380       -1.0271858874
	 H          -7.7059251413        0.9104230602        0.7616268043
	 H          -6.2299660859       -1.6418723009        2.2728562353
	 C           5.2389863034       -0.9246801716       -1.2539079401
	 H           4.8146076041       -0.9372152172       -3.2571784987
	 H           6.5105645466       -2.4553066855       -0.8145483006
	 H           6.0860852507        0.8611992682       -0.7425696412
	            -0.0012678670       -0.0054970249        0.0240514819
	             0.0010973071       -0.0032478718       -0.0575465559
	             0.0009436828        0.0024708379        0.0128491112
	             0.0016804977        0.0096387290        0.0245941011
	            -0.0008410061       -0.0004821763        0.0006377977
	             0.0033022236        0.0017617950       -0.0000827182
	            -0.0026147424       -0.0013769512        0.0005501945
	            -0.0003351267        0.0004369418        0.0002537818
	             0.0002351801       -0.0002094214        0.0000522381
	            -0.0001865755        0.0002080244        0.0001071676
	            -0.0000007995       -0.0000181720       -0.0000581103
	            -0.0001961553       -0.0001114901       -0.0000617968
	             0.0000221593        0.0000203065       -0.0000327858
	            -0.0010837069       -0.0040562552       -0.0048343264
	            -0.0010450972        0.0001181882       -0.0000190038
	            -0.0000454814        0.0002852962       -0.0002160093
	             0.0003355073        0.0000592438       -0.0002445675

	---Fragment 1 Intrafragment Coordinates---
	 - Coordinate -           - BOHR/RAD -       - ANG/DEG -
	 R(1,2)           =         2.241229	       1.186007
	 R(2,3)           =         2.853074	       1.509782
	 R(2,4)           =         2.530781	       1.339232
	 R(3,5)           =         2.884266	       1.526288
	 R(3,6)           =         2.054108	       1.086987
	 R(3,7)           =         2.054678	       1.087289
	 R(4,14)          =         2.677585	       1.416917
	 R(5,8)           =         2.887890	       1.528206
	 R(5,9)           =         2.050084	       1.084858
	 R(5,10)          =         2.049792	       1.084703
	 R(8,11)          =         2.053360	       1.086591
	 R(8,12)          =         2.050553	       1.085106
	 R(8,13)          =         2.053058	       1.086431
	 R(14,15)         =         2.047766	       1.083631
	 R(14,16)         =         2.037834	       1.078375
	 R(14,17)         =         2.041668	       1.080404
	 B(1,2,3)         =         2.165706	     124.085804
	 B(1,2,4)         =         2.127370	     121.889316
	 B(2,3,5)         =         1.989700	     114.001392
	 B(2,3,6)         =         1.863763	     106.785727
	 B(2,3,7)         =         1.875785	     107.474547
	 B(2,4,14)        =         2.047897	     117.335878
	 B(3,2,4)         =         1.945445	     111.465790
	 B(3,5,8)         =         1.958342	     112.204733
	 B(3,5,9)         =         1.906409	     109.229214
	 B(3,5,10)        =         1.906015	     109.206602
	 B(4,14,15)       =         1.917462	     109.862459
	 B(4,14,16)       =         1.857351	     106.418396
	 B(4,14,17)       =         1.939295	     111.113431
	 B(5,3,6)         =         1.943650	     111.362926
	 B(5,3,7)         =         1.939922	     111.149372
	 B(5,8,11)        =         1.943778	     111.370255
	 B(5,8,12)        =         1.936641	     110.961353
	 B(5,8,13)        =         1.943146	     111.334068
	 B(6,3,7)         =         1.843070	     105.600140
	 B(8,5,9)         =         1.918336	     109.912567
	 B(8,5,10)        =         1.918882	     109.943865
	 B(9,5,10)        =         1.852803	     106.157780
	 B(11,8,12)       =         1.878991	     107.658264
	 B(11,8,13)       =         1.879024	     107.660162
	 B(12,8,13)       =         1.879317	     107.676923
	 B(15,14,16)      =         1.913074	     109.611058
	 B(15,14,17)      =         1.913833	     109.654560
	 B(16,14,17)      =         1.922088	     110.127524
	 D(1,2,3,5)       =         0.127746	       7.319284
	 D(1,2,3,6)       =         2.281875	     130.741798
	 D(1,2,3,7)       =        -2.030488	    -116.338419
	*D(1,2,4,14)      =        -0.872664	     -49.999978
	 D(2,3,5,8)       =         3.136872	     179.729526
	 D(2,3,5,9)       =         1.005134	      57.589965
	 D(2,3,5,10)      =        -1.014159	     -58.107016
	 D(2,4,14,15)     =        -1.070162	     -61.315738
	 D(2,4,14,16)     =        -3.139883	    -179.902044
	 D(2,4,14,17)     =         1.050828	      60.208014
	 D(3,2,4,14)      =         2.573721	     147.463378
	 D(3,5,8,11)      =        -1.047662	     -60.026639
	 D(3,5,8,12)      =        -3.140582	    -179.942067
	 D(3,5,8,13)      =         1.049694	      60.143054
	 D(4,2,3,5)       =         2.956607	     169.401116
	 D(4,2,3,6)       =        -1.172449	     -67.176370
	 D(4,2,3,7)       =         0.798373	      45.743413
	 D(6,3,5,8)       =         1.026686	      58.824773
	 D(6,3,5,9)       =        -1.105052	     -63.314788
	 D(6,3,5,10)      =        -3.124345	    -179.011769
	 D(7,3,5,8)       =        -1.023161	     -58.622804
	 D(7,3,5,9)       =         3.128287	     179.237634
	 D(7,3,5,10)      =         1.108994	      63.540653
	 D(9,5,8,11)      =         1.077275	      61.723299
	 D(9,5,8,12)      =        -1.015644	     -58.192130
	 D(9,5,8,13)      =        -3.108554	    -178.107008
	 D(10,5,8,11)     =         3.110704	     178.230227
	 D(10,5,8,12)     =         1.017785	      58.314799
	 D(10,5,8,13)     =        -1.075124	     -61.600080

	Current energy   :      -344.8925287594

	Energy change for the previous step:
		Projected    :        -0.0020217883
		Actual       :         0.0024071433

	Performing BFGS update.
	Previous computed or guess Hessian on step 1.
	Steps to be used in Hessian update: 1
	Taking RFO optimization step.
	Going to follow RFO solution 1.
	Using RFO vector 1.
	Norm of target step-size    0.32190
	Projected energy change by RFO approximation:        -0.0073132347

	Back-transformation to cartesian coordinates...
	Successfully converged to displaced geometry.

	Back-transformation to cartesian coordinates to adjust frozen coordinates...
	Successfully converged to displaced geometry.

	--- Internal Coordinate Step in ANG or DEG, aJ/ANG or AJ/DEG ---
	 ---------------------------------------------------------------------------
	   Coordinate                Previous        Force       Change         New 
	   ----------                --------       ------       ------       ------
	    1 R(1,2)          =      1.186007     0.027597     0.000180     1.186188
	    2 R(2,3)          =      1.509782     0.002023     0.000248     1.510030
	    3 R(2,4)          =      1.339232     0.018509     0.002723     1.341954
	    4 R(3,5)          =      1.526288    -0.007923    -0.000556     1.525732
	    5 R(3,6)          =      1.086987     0.011039     0.000806     1.087793
	    6 R(3,7)          =      1.087289    -0.009642    -0.000566     1.086723
	    7 R(4,14)         =      1.416917    -0.005424    -0.000165     1.416752
	    8 R(5,8)          =      1.528206    -0.002508    -0.000158     1.528047
	    9 R(5,9)          =      1.084858     0.001392     0.000119     1.084977
	   10 R(5,10)         =      1.084703    -0.001488    -0.000101     1.084602
	   11 R(8,11)         =      1.086591    -0.000469    -0.000015     1.086576
	   12 R(8,12)         =      1.085106    -0.000566    -0.000035     1.085071
	   13 R(8,13)         =      1.086431     0.000322     0.000011     1.086443
	   14 R(14,15)        =      1.083631    -0.001932     0.000377     1.084009
	   15 R(14,16)        =      1.078375     0.002383     0.000086     1.078461
	   16 R(14,17)        =      1.080404    -0.001069    -0.000090     1.080314
	   17 B(1,2,3)        =    124.085804     0.000143     0.708320   124.794124
	   18 B(1,2,4)        =    121.889316     0.000256     0.877806   122.767122
	   19 B(2,3,5)        =    114.001392    -0.000119    -0.052938   113.948453
	   20 B(2,3,6)        =    106.785727     0.000289     0.710879   107.496606
	   21 B(2,3,7)        =    107.474547    -0.000178    -0.632176   106.842371
	   22 B(2,4,14)       =    117.335878     0.000046     0.109681   117.445559
	   23 B(3,2,4)        =    111.465790    -0.000147     0.662274   112.128064
	   24 B(3,5,8)        =    112.204733    -0.000057    -0.053174   112.151559
	   25 B(3,5,9)        =    109.229214     0.000038     0.077981   109.307195
	   26 B(3,5,10)       =    109.206602    -0.000002    -0.053892   109.152710
	   27 B(4,14,15)      =    109.862459     0.000135     0.123728   109.986187
	   28 B(4,14,16)      =    106.418396    -0.000043     0.004738   106.423134
	   29 B(4,14,17)      =    111.113431    -0.000062    -0.016620   111.096811
	   30 B(5,3,6)        =    111.362926    -0.000140    -0.101119   111.261807
	   31 B(5,3,7)        =    111.149372     0.000177     0.131153   111.280524
	   32 B(5,8,11)       =    111.370255     0.000007     0.018235   111.388490
	   33 B(5,8,12)       =    110.961353    -0.000024    -0.035427   110.925926
	   34 B(5,8,13)       =    111.334068     0.000005     0.001763   111.335830
	   35 B(6,3,7)        =    105.600140    -0.000022    -0.055648   105.544493
	   36 B(8,5,9)        =    109.912567     0.000004    -0.000787   109.911780
	   37 B(8,5,10)       =    109.943865     0.000029     0.026641   109.970506
	   38 B(9,5,10)       =    106.157780    -0.000009     0.006674   106.164454
	   39 B(11,8,12)      =    107.658264     0.000010     0.013699   107.671963
	   40 B(11,8,13)      =    107.660162    -0.000002     0.003326   107.663488
	   41 B(12,8,13)      =    107.676923     0.000006    -0.000714   107.676209
	   42 B(15,14,16)     =    109.611058    -0.000030    -0.168811   109.442246
	   43 B(15,14,17)     =    109.654560    -0.000008     0.094641   109.749201
	   44 B(16,14,17)     =    110.127524     0.000008    -0.044079   110.083446
	   45 D(1,2,3,5)      =      7.319284    -0.000096    -6.502597     0.816686
	   46 D(1,2,3,6)      =    130.741798    -0.000106    -6.142132   124.599666
	   47 D(1,2,3,7)      =   -116.338419    -0.000099    -6.169094  -122.507513
	   48 *D(1,2,4,14)    =    -49.999978     0.000000     0.000000   -49.999978
	   49 D(2,3,5,8)      =    179.729526     0.000028     0.525561   180.255087
	   50 D(2,3,5,9)      =     57.589965     0.000030     0.507460    58.097425
	   51 D(2,3,5,10)     =    -58.107016     0.000028     0.486186   -57.620831
	   52 D(2,4,14,15)    =    -61.315738    -0.000006    -0.779544   -62.095282
	   53 D(2,4,14,16)    =   -179.902044    -0.000008    -0.647333  -180.549377
	   54 D(2,4,14,17)    =     60.208014     0.000004    -0.587577    59.620436
	   55 D(3,2,4,14)     =    147.463378    -0.000196   -11.339709   136.123669
	   56 D(3,5,8,11)     =    -60.026639    -0.000003    -0.073612   -60.100251
	   57 D(3,5,8,12)     =   -179.942067    -0.000003    -0.079285  -180.021353
	   58 D(3,5,8,13)     =     60.143054    -0.000002    -0.055797    60.087257
	   59 D(4,2,3,5)      =    169.401116     0.000110     5.144667   174.545784
	   60 D(4,2,3,6)      =    -67.176370     0.000100     5.505132   -61.671237
	   61 D(4,2,3,7)      =     45.743413     0.000107     5.478171    51.221584
	   62 D(6,3,5,8)      =     58.824773    -0.000015    -0.293398    58.531375
	   63 D(6,3,5,9)      =    -63.314788    -0.000013    -0.311499   -63.626288
	   64 D(6,3,5,10)     =   -179.011769    -0.000016    -0.332774  -179.344543
	   65 D(7,3,5,8)      =    -58.622804    -0.000014    -0.243231   -58.866035
	   66 D(7,3,5,9)      =    179.237634    -0.000013    -0.261332   178.976302
	   67 D(7,3,5,10)     =     63.540653    -0.000015    -0.282607    63.258047
	   68 D(9,5,8,11)     =     61.723299    -0.000000    -0.010793    61.712505
	   69 D(9,5,8,12)     =    -58.192130    -0.000000    -0.016466   -58.208596
	   70 D(9,5,8,13)     =   -178.107008     0.000001     0.007022  -178.099986
	   71 D(10,5,8,11)    =    178.230227     0.000002     0.012464   178.242691
	   72 D(10,5,8,12)    =     58.314799     0.000002     0.006791    58.321589
	   73 D(10,5,8,13)    =    -61.600080     0.000003     0.030279   -61.569801
	 ---------------------------------------------------------------------------

  ==> Convergence Check <==

  Measures of convergence in internal coordinates in au.
  Criteria marked as inactive (o), active & met (*), and active & unmet ( ).
  ---------------------------------------------------------------------------------------------
   Step     Total Energy     Delta E     MAX Force     RMS Force      MAX Disp      RMS Disp   
  ---------------------------------------------------------------------------------------------
    Convergence Criteria    1.00e-06 *    3.00e-04 *             o    1.20e-03 *             o
  ---------------------------------------------------------------------------------------------
      2    -344.89252876    2.41e-03      1.12e-02      2.41e-03 o    1.98e-01      3.76e-02 o  ~
  ---------------------------------------------------------------------------------------------

	Writing optimization data to binary file.
	Structure for next step:
	Cartesian Geometry (in Angstrom)
	    O     0.7912863997   1.3616925307   0.1380118490
	    C     0.6205602364   0.1881981768   0.1096388666
	    C    -0.7292650485  -0.4874111849   0.1510453916
	    O     1.6296341023  -0.6942670334   0.1718175316
	    C    -1.9054574202   0.4822763534   0.2153596676
	    H    -0.7982766479  -1.1339428994  -0.7210369856
	    H    -0.7210884390  -1.1549409694   1.0085445382
	    C    -3.2490642293  -0.2440034780   0.2619079165
	    H    -1.8725104635   1.1436756581  -0.6440818192
	    H    -1.7966223107   1.1162648230   1.0886150664
	    H    -3.3955608804  -0.8631525296  -0.6189103284
	    H    -4.0705917282   0.4633718037   0.3076487705
	    H    -3.3199314358  -0.8886913271   1.1335234137
	    C     2.7206392963  -0.5019509552  -0.7113064156
	    H     2.3832178059  -0.5764528022  -1.7387650320
	    H     3.4227128712  -1.2943457479  -0.5056828057
	    H     3.1875167751   0.4586796574  -0.5491532859
			--------------------------
			 OPTKING Finished Execution 
			--------------------------

    Structure for next step:
    Molecular point group: c1
    Full point group: C1

    Geometry (in Angstrom), charge = 0, multiplicity = 1:

    O            0.779768452348     1.350231177693     0.098563234177
    C            0.609042302067     0.176736913449     0.070190253882
    C           -0.740782879806    -0.498872396652     0.111596775751
    O            1.618116090874    -0.705728229364     0.132368914157
    C           -1.916975161643     0.470815067623     0.175911046868
    H           -0.809794473852    -1.145404061785    -0.760485534909
    H           -0.732606270837    -1.166402130157     0.969095856822
    C           -3.260581868160    -0.255464708353     0.222459292195
    H           -1.884028207452     1.132214321753    -0.683530374339
    H           -1.808140060494     1.104803488808     1.049166378942
    H           -3.407078508020    -0.874613712718    -0.658358885485
    H           -4.082109304309     0.451910519282     0.268200142712
    H           -3.331449069227    -0.900152508213     1.094074722784
    C            2.709121201575    -0.513412165840    -0.750754965640
    H            2.371699736955    -0.587914007137    -1.778213503573
    H            3.411194722869    -1.305806898025    -0.545131371389
    H            3.175998644723     0.447218373385    -0.588601848281

gradient() will perform analytic gradient computation.

*** tstart() called on cx1-3-1-1.cx1.hpc.ic.ac.uk
*** at Fri Sep  2 13:42:01 2016


         ---------------------------------------------------------
                                   SCF
            by Justin Turney, Rob Parrish, and Andy Simmonett
                              RHF Reference
                        4 Threads,   2000 MiB Core
         ---------------------------------------------------------

  ==> Geometry <==

    Molecular point group: c1
    Full point group: C1

    Geometry (in Angstrom), charge = 0, multiplicity = 1:

       Center              X                  Y                   Z               Mass       
    ------------   -----------------  -----------------  -----------------  -----------------
           O          0.779768452348     1.350231177693     0.098563234177    15.994914619560
           C          0.609042302067     0.176736913449     0.070190253882    12.000000000000
           C         -0.740782879806    -0.498872396652     0.111596775751    12.000000000000
           O          1.618116090874    -0.705728229364     0.132368914157    15.994914619560
           C         -1.916975161643     0.470815067623     0.175911046868    12.000000000000
           H         -0.809794473852    -1.145404061785    -0.760485534909     1.007825032070
           H         -0.732606270837    -1.166402130157     0.969095856822     1.007825032070
           C         -3.260581868160    -0.255464708353     0.222459292195    12.000000000000
           H         -1.884028207452     1.132214321753    -0.683530374339     1.007825032070
           H         -1.808140060494     1.104803488808     1.049166378942     1.007825032070
           H         -3.407078508020    -0.874613712718    -0.658358885485     1.007825032070
           H         -4.082109304309     0.451910519282     0.268200142712     1.007825032070
           H         -3.331449069227    -0.900152508213     1.094074722784     1.007825032070
           C          2.709121201575    -0.513412165840    -0.750754965640    12.000000000000
           H          2.371699736955    -0.587914007137    -1.778213503573     1.007825032070
           H          3.411194722869    -1.305806898025    -0.545131371389     1.007825032070
           H          3.175998644723     0.447218373385    -0.588601848281     1.007825032070

  Running in c1 symmetry.

  Rotational constants: A =      0.24955  B =      0.04062  C =      0.03668 [cm^-1]
  Rotational constants: A =   7481.34136  B =   1217.62193  C =   1099.58317 [MHz]
  Nuclear repulsion =  311.595636112693853

  Charge       = 0
  Multiplicity = 1
  Electrons    = 56
  Nalpha       = 28
  Nbeta        = 28

  ==> Algorithm <==

  SCF Algorithm Type is DF.
  DIIS enabled.
  MOM disabled.
  Fractional occupation disabled.
  Guess Type is READ.
  Energy threshold   = 1.00e-08
  Density threshold  = 1.00e-08
  Integral threshold = 0.00e+00

  ==> Primary Basis <==

  Basis Set: 6-31G*
    Number of shells: 62
    Number of basis function: 125
    Number of Cartesian functions: 125
    Spherical Harmonics?: false
    Max angular momentum: 2

  ==> Pre-Iterations <==

   -------------------------------------------------------
    Irrep   Nso     Nmo     Nalpha   Nbeta   Ndocc  Nsocc
   -------------------------------------------------------
     A        125     125       0       0       0       0
   -------------------------------------------------------
    Total     125     125      28      28      28       0
   -------------------------------------------------------

 OEINTS: Overlap, kinetic, potential, dipole, and quadrupole integrals
         stored in file 35.

  ==> Integral Setup <==

  ==> DFJK: Density-Fitted J/K Matrices <==

    J tasked:                  Yes
    K tasked:                  Yes
    wK tasked:                  No
    OpenMP threads:              4
    Integrals threads:           4
    Memory (MB):              1430
    Algorithm:                Core
    Integral Cache:           NONE
    Schwarz Cutoff:          1E-12
    Fitting Condition:       1E-12

   => Auxiliary Basis Set <=

  Basis Set: 
    Number of shells: 258
    Number of basis function: 817
    Number of Cartesian functions: 817
    Spherical Harmonics?: false
    Max angular momentum: 3

  Minimum eigenvalue in the overlap matrix is 3.0792428291E-03.
  Using Symmetric Orthogonalization.
  SCF Guess: Reading in previously saved MOs, projecting if necessary.

  Using orbitals from previous SCF, no projection.
  Recomputing DOCC and SOCC from number of alpha and beta electrons from previous calculation.
              A 
    DOCC [    28 ]

  ==> Iterations <==

                           Total Energy        Delta E     RMS |[F,P]|

   @DF-RHF iter   0:  -344.86595961208315   -3.44866e+02   1.99747e-03 
   @DF-RHF iter   1:  -344.89401757514264   -2.80580e-02   3.19533e-04 
   @DF-RHF iter   2:  -344.89548946974975   -1.47189e-03   1.17599e-04 DIIS
   @DF-RHF iter   3:  -344.89569753350366   -2.08064e-04   5.63747e-05 DIIS
   @DF-RHF iter   4:  -344.89572602206391   -2.84886e-05   1.22057e-05 DIIS
   @DF-RHF iter   5:  -344.89572797009015   -1.94803e-06   5.18811e-06 DIIS
   @DF-RHF iter   6:  -344.89572858571836   -6.15628e-07   2.06840e-06 DIIS
   @DF-RHF iter   7:  -344.89572868107228   -9.53539e-08   9.21789e-07 DIIS
   @DF-RHF iter   8:  -344.89572870595231   -2.48800e-08   2.80467e-07 DIIS
   @DF-RHF iter   9:  -344.89572870908506   -3.13275e-09   9.89062e-08 DIIS
   @DF-RHF iter  10:  -344.89572870945477   -3.69710e-10   3.58371e-08 DIIS
   @DF-RHF iter  11:  -344.89572870949456   -3.97904e-11   1.15100e-08 DIIS
   @DF-RHF iter  12:  -344.89572870949888   -4.32010e-12   2.91878e-09 DIIS

  ==> Post-Iterations <==

    Orbital Energies (a.u.)
    -----------------------

    Doubly Occupied:                                                      

       1A    -20.593404     2A    -20.551512     3A    -11.374533  
       4A    -11.286419     5A    -11.237314     6A    -11.222725  
       7A    -11.215308     8A     -1.461929     9A     -1.364297  
      10A     -1.079976    11A     -0.997307    12A     -0.943822  
      13A     -0.829817    14A     -0.765367    15A     -0.699014  
      16A     -0.678409    17A     -0.671916    18A     -0.635453  
      19A     -0.606261    20A     -0.576570    21A     -0.567050  
      22A     -0.531979    23A     -0.520373    24A     -0.497161  
      25A     -0.488810    26A     -0.479366    27A     -0.453560  
      28A     -0.435313  

    Virtual:                                                              

      29A      0.183632    30A      0.226888    31A      0.254865  
      32A      0.284697    33A      0.292233    34A      0.303222  
      35A      0.308250    36A      0.312392    37A      0.327927  
      38A      0.334596    39A      0.342395    40A      0.366215  
      41A      0.401616    42A      0.422271    43A      0.468749  
      44A      0.526660    45A      0.563115    46A      0.719934  
      47A      0.735260    48A      0.741622    49A      0.744216  
      50A      0.768956    51A      0.772368    52A      0.782676  
      53A      0.842137    54A      0.857246    55A      0.917588  
      56A      0.947215    57A      0.961169    58A      0.992900  
      59A      1.056328    60A      1.075628    61A      1.079830  
      62A      1.114057    63A      1.119801    64A      1.134173  
      65A      1.137939    66A      1.164025    67A      1.176271  
      68A      1.208225    69A      1.214245    70A      1.215875  
      71A      1.229482    72A      1.250885    73A      1.260412  
      74A      1.282349    75A      1.319267    76A      1.405792  
      77A      1.427131    78A      1.475477    79A      1.582029  
      80A      1.644796    81A      1.662980    82A      1.706948  
      83A      1.776061    84A      1.811091    85A      1.852571  
      86A      1.913306    87A      1.964740    88A      2.027931  
      89A      2.045140    90A      2.110003    91A      2.146514  
      92A      2.170547    93A      2.176169    94A      2.251503  
      95A      2.278583    96A      2.299829    97A      2.324629  
      98A      2.362020    99A      2.396241   100A      2.405354  
     101A      2.432034   102A      2.510988   103A      2.548437  
     104A      2.608382   105A      2.661417   106A      2.687960  
     107A      2.708100   108A      2.729772   109A      2.800583  
     110A      2.872972   111A      2.902791   112A      2.957108  
     113A      3.002522   114A      3.156863   115A      3.185695  
     116A      3.344391   117A      3.414086   118A      3.531275  
     119A      4.378949   120A      4.544912   121A      4.615526  
     122A      4.663355   123A      4.744920   124A      4.829529  
     125A      4.985709  

    Final Occupation by Irrep:
              A 
    DOCC [    28 ]

  Energy converged.

  @DF-RHF Final Energy:  -344.89572870949888

   => Energetics <=

    Nuclear Repulsion Energy =            311.5956361126938532
    One-Electron Energy =               -1087.4527964096866981
    Two-Electron Energy =                 430.9614315874939052
    DFT Exchange-Correlation Energy =       0.0000000000000000
    Empirical Dispersion Energy =           0.0000000000000000
    PCM Polarization Energy =               0.0000000000000000
    EFP Energy =                            0.0000000000000000
    Total Energy =                       -344.8957287094988828

    Alert: EFP and PCM quantities not currently incorporated into SCF psivars.

Properties will be evaluated at   0.000000,   0.000000,   0.000000 Bohr
  ==> Properties <==


Properties computed using the SCF density matrix

  Nuclear Dipole Moment: (a.u.)
     X:    -6.6411      Y:    -2.6632      Z:    -1.5305

  Electronic Dipole Moment: (a.u.)
     X:     6.6145      Y:     1.8605      Z:     1.0565

  Dipole Moment: (a.u.)
     X:    -0.0266      Y:    -0.8027      Z:    -0.4740     Total:     0.9325

  Dipole Moment: (Debye)
     X:    -0.0675      Y:    -2.0402      Z:    -1.2047     Total:     2.3703


  Saving occupied orbitals to File 180.

*** tstop() called on cx1-3-1-1.cx1.hpc.ic.ac.uk at Fri Sep  2 13:42:06 2016
Module time:
	user time   =      15.08 seconds =       0.25 minutes
	system time =       0.19 seconds =       0.00 minutes
	total time  =          5 seconds =       0.08 minutes
Total time:
	user time   =      82.87 seconds =       1.38 minutes
	system time =       1.01 seconds =       0.02 minutes
	total time  =         26 seconds =       0.43 minutes

*** tstart() called on cx1-3-1-1.cx1.hpc.ic.ac.uk
*** at Fri Sep  2 13:42:06 2016


         ------------------------------------------------------------
                                   SCF GRAD                          
                          Rob Parrish, Justin Turney,                
                       Andy Simmonett, and Alex Sokolov              
         ------------------------------------------------------------

  ==> Geometry <==

    Molecular point group: c1
    Full point group: C1

    Geometry (in Angstrom), charge = 0, multiplicity = 1:

       Center              X                  Y                   Z               Mass       
    ------------   -----------------  -----------------  -----------------  -----------------
           O          0.779768452348     1.350231177693     0.098563234177    15.994914619560
           C          0.609042302067     0.176736913449     0.070190253882    12.000000000000
           C         -0.740782879806    -0.498872396652     0.111596775751    12.000000000000
           O          1.618116090874    -0.705728229364     0.132368914157    15.994914619560
           C         -1.916975161643     0.470815067623     0.175911046868    12.000000000000
           H         -0.809794473852    -1.145404061785    -0.760485534909     1.007825032070
           H         -0.732606270837    -1.166402130157     0.969095856822     1.007825032070
           C         -3.260581868160    -0.255464708353     0.222459292195    12.000000000000
           H         -1.884028207452     1.132214321753    -0.683530374339     1.007825032070
           H         -1.808140060494     1.104803488808     1.049166378942     1.007825032070
[...]

	Previous internal coordinate definitions found.
	---Fragment 1 Geometry and Gradient---
	 O           1.4773178114        2.5652104759        0.1389447024
	 C           1.1503882148        0.3496237509        0.1363413835
	 C          -1.3905499478       -0.9380469046        0.1998381993
	 O           3.0514633824       -1.3230620416        0.2797185564
	 C          -3.6161611972        0.8863953027        0.3624863785
	 H          -1.5174030633       -2.1176549805       -1.4793859988
	 H          -1.3714795207       -2.2409959435        1.7869229686
	 C          -6.1517231836       -0.4939146319        0.4133304352
	 H          -3.5530835927        2.1753386506       -1.2301797948
	 H          -3.4168300211        2.0443501568        2.0425082559
	 H          -6.4229270809       -1.6229289271       -1.2801053629
	 H          -7.7070166728        0.8371502772        0.5298211057
	 H          -6.2855622623       -1.7526477510        2.0297017071
	 C           5.0979128475       -0.9965700974       -1.4108885838
	 H           4.4715187428       -1.2809915272       -3.3399504469
	 H           6.4752317933       -2.4197878704       -0.9272758362
	 H           5.9166232930        0.8634138536       -1.2176882618
	            -0.0007133149        0.0000471315        0.0096742100
	            -0.0007103056       -0.0021554552       -0.0167881446
	             0.0000335993        0.0000227596       -0.0000466861
	             0.0049054290        0.0065137474        0.0122382559
	            -0.0000042042       -0.0000143617        0.0000351654
	             0.0000082598       -0.0000095716        0.0000196386
	            -0.0000005600        0.0000136843        0.0000223595
	            -0.0000052959        0.0000036329       -0.0000127444
	            -0.0000038106        0.0000022763       -0.0000044876
	             0.0000055421       -0.0000004452        0.0000004722
	             0.0000002181       -0.0000037767       -0.0000008324
	             0.0000019068       -0.0000010595       -0.0000029601
	             0.0000010077        0.0000042712        0.0000035326
	            -0.0035295802       -0.0044002658       -0.0051371531
	             0.0000128795       -0.0000105357       -0.0000076408
	            -0.0000073145        0.0000001751        0.0000067438
	             0.0000055436       -0.0000122068        0.0000002710

	---Fragment 1 Intrafragment Coordinates---
	 - Coordinate -           - BOHR/RAD -       - ANG/DEG -
	 R(1,2)           =         2.239579	       1.185134
	 R(2,3)           =         2.849297	       1.507783
	 R(2,4)           =         2.536242	       1.342121
	 R(3,5)           =         2.882428	       1.525315
	 R(3,6)           =         2.056055	       1.088017
	 R(3,7)           =         2.053504	       1.086668
	 R(4,14)          =         2.674454	       1.415260
	 R(5,8)           =         2.887372	       1.527931
	 R(5,9)           =         2.049863	       1.084741
	 R(5,10)          =         2.050138	       1.084886
	 R(8,11)          =         2.053278	       1.086548
	 R(8,12)          =         2.050425	       1.085038
	 R(8,13)          =         2.053041	       1.086423
	 R(14,15)         =         2.048059	       1.083786
	 R(14,16)         =         2.038734	       1.078852
	 R(14,17)         =         2.041361	       1.080242
	 B(1,2,3)         =         2.186139	     125.256538
	 B(1,2,4)         =         2.144757	     122.885547
	 B(2,3,5)         =         1.986439	     113.814588
	 B(2,3,6)         =         1.871404	     107.223524
	 B(2,3,7)         =         1.870973	     107.198841
	 B(2,4,14)        =         2.045761	     117.213466
	 B(3,2,4)         =         1.948872	     111.662159
	 B(3,5,8)         =         1.956770	     112.114640
	 B(3,5,9)         =         1.907519	     109.292814
	 B(3,5,10)        =         1.905692	     109.188135
	 B(4,14,15)       =         1.922417	     110.146405
	 B(4,14,16)       =         1.856434	     106.365807
	 B(4,14,17)       =         1.937232	     110.995217
	 B(5,3,6)         =         1.940767	     111.197734
	 B(5,3,7)         =         1.944610	     111.417973
	 B(5,8,11)        =         1.943707	     111.366196
	 B(5,8,12)        =         1.935602	     110.901804
	 B(5,8,13)        =         1.943578	     111.358808
	 B(6,3,7)         =         1.841865	     105.531120
	 B(8,5,9)         =         1.919096	     109.956076
	 B(8,5,10)        =         1.918737	     109.935556
	 B(9,5,10)        =         1.853079	     106.173618
	 B(11,8,12)       =         1.879284	     107.675032
	 B(11,8,13)       =         1.879260	     107.673682
	 B(12,8,13)       =         1.879506	     107.687781
	 B(15,14,16)      =         1.910393	     109.457450
	 B(15,14,17)      =         1.915951	     109.775904
	 B(16,14,17)      =         1.920549	     110.039356
	 D(1,2,3,5)       =        -0.034698	      -1.988022
	 D(1,2,3,6)       =         2.119202	     121.421320
	 D(1,2,3,7)       =        -2.193197	    -125.660924
	*D(1,2,4,14)      =        -0.872664	     -49.999978
	 D(2,3,5,8)       =         3.138211	     179.806225
	 D(2,3,5,9)       =         1.005782	      57.627089
	 D(2,3,5,10)      =        -1.014278	     -58.113856
	 D(2,4,14,15)     =        -1.140307	     -65.334755
	 D(2,4,14,16)     =         3.074234	     176.140633
	 D(2,4,14,17)     =         0.985335	      56.455561
	 D(3,2,4,14)      =         2.353457	     134.843158
	 D(3,5,8,11)      =        -1.049387	     -60.125419
	 D(3,5,8,12)      =         3.141255	     179.980645
	 D(3,5,8,13)      =         1.048516	      60.075520
	 D(4,2,3,5)       =         3.019961	     173.031010
	 D(4,2,3,6)       =        -1.109325	     -63.559648
	 D(4,2,3,7)       =         0.861462	      49.358109
	 D(6,3,5,8)       =         1.022533	      58.586804
	 D(6,3,5,9)       =        -1.109896	     -63.592332
	 D(6,3,5,10)      =        -3.129956	    -179.333277
	 D(7,3,5,8)       =        -1.026965	     -58.840780
	 D(7,3,5,9)       =         3.123792	     178.980084
	 D(7,3,5,10)      =         1.103731	      63.239140
	 D(9,5,8,11)      =         1.076433	      61.675092
	 D(9,5,8,12)      =        -1.016111	     -58.218844
	 D(9,5,8,13)      =        -3.108850	    -178.123969
	 D(10,5,8,11)     =         3.110559	     178.221904
	 D(10,5,8,12)     =         1.018015	      58.327968
	 D(10,5,8,13)     =        -1.074724	     -61.577157

	Current energy   :      -344.8958096429

	Energy change for the previous step:
		Projected    :         0.0000019974
		Actual       :        -0.0000009349

	Performing BFGS update.
	Previous computed or guess Hessian on step 1.
	Steps to be used in Hessian update: 5 4
	Taking RFO optimization step.
	Going to follow RFO solution 1.
	Rejecting RFO root 1 because normalization gives large value.
	Rejecting RFO root 2 because normalization gives large value.
	Using RFO vector 3.
	Norm of target step-size    0.00655
	Projected energy change by RFO approximation:         0.0000002222

	Back-transformation to cartesian coordinates...
	Successfully converged to displaced geometry.

	Back-transformation to cartesian coordinates to adjust frozen coordinates...
	Successfully converged to displaced geometry.

	--- Internal Coordinate Step in ANG or DEG, aJ/ANG or AJ/DEG ---
	 ---------------------------------------------------------------------------
	   Coordinate                Previous        Force       Change         New 
	   ----------                --------       ------       ------       ------
	    1 R(1,2)          =      1.185134     0.000381     0.000052     1.185186
	    2 R(2,3)          =      1.507783     0.000332     0.000065     1.507848
	    3 R(2,4)          =      1.342121    -0.000511    -0.000171     1.341950
	    4 R(3,5)          =      1.525315     0.000011    -0.000028     1.525287
	    5 R(3,6)          =      1.088017     0.000091     0.000017     1.088034
	    6 R(3,7)          =      1.086668    -0.000071    -0.000006     1.086661
	    7 R(4,14)         =      1.415260    -0.000128    -0.000029     1.415232
	    8 R(5,8)          =      1.527931    -0.000002    -0.000016     1.527915
	    9 R(5,9)          =      1.084741    -0.000040    -0.000001     1.084740
	   10 R(5,10)         =      1.084886    -0.000006    -0.000005     1.084881
	   11 R(8,11)         =      1.086548    -0.000022    -0.000003     1.086545
	   12 R(8,12)         =      1.085038     0.000019    -0.000000     1.085038
	   13 R(8,13)         =      1.086423    -0.000001     0.000001     1.086424
	   14 R(14,15)        =      1.083786    -0.000039    -0.000015     1.083771
	   15 R(14,16)        =      1.078852     0.000029    -0.000005     1.078847
	   16 R(14,17)        =      1.080242     0.000073     0.000019     1.080261
	   17 B(1,2,3)        =    125.256538     0.000002    -0.024872   125.231665
	   18 B(1,2,4)        =    122.885547    -0.000007    -0.015491   122.870056
	   19 B(2,3,5)        =    113.814588    -0.000001    -0.013546   113.801042
	   20 B(2,3,6)        =    107.223524     0.000000     0.011034   107.234558
	   21 B(2,3,7)        =    107.198841     0.000001     0.001438   107.200279
	   22 B(2,4,14)       =    117.213466     0.000000    -0.004656   117.208810
	   23 B(3,2,4)        =    111.662159     0.000005     0.036132   111.698291
	   24 B(3,5,8)        =    112.114640    -0.000001    -0.007473   112.107167
	   25 B(3,5,9)        =    109.292814     0.000000     0.003315   109.296129
	   26 B(3,5,10)       =    109.188135     0.000000     0.000519   109.188654
	   27 B(4,14,15)      =    110.146405    -0.000002     0.004800   110.151205
	   28 B(4,14,16)      =    106.365807     0.000002    -0.005263   106.360544
	   29 B(4,14,17)      =    110.995217    -0.000001    -0.008391   110.986826
	   30 B(5,3,6)        =    111.197734    -0.000001    -0.003526   111.194209
	   31 B(5,3,7)        =    111.417973     0.000001     0.004128   111.422101
	   32 B(5,8,11)       =    111.366196    -0.000000     0.000819   111.367016
	   33 B(5,8,12)       =    110.901804     0.000000    -0.003912   110.897892
	   34 B(5,8,13)       =    111.358808     0.000000     0.002722   111.361530
	   35 B(6,3,7)        =    105.531120    -0.000000     0.001956   105.533075
	   36 B(8,5,9)        =    109.956076     0.000001     0.006220   109.962296
	   37 B(8,5,10)       =    109.935556    -0.000000    -0.002867   109.932689
	   38 B(9,5,10)       =    106.173618    -0.000000     0.000750   106.174368
	   39 B(11,8,12)      =    107.675032     0.000000     0.000263   107.675295
	   40 B(11,8,13)      =    107.673682    -0.000000    -0.000483   107.673200
	   41 B(12,8,13)      =    107.687781    -0.000000     0.000604   107.688386
	   42 B(15,14,16)     =    109.457450     0.000001     0.008343   109.465793
	   43 B(15,14,17)     =    109.775904    -0.000000    -0.005261   109.770642
	   44 B(16,14,17)     =    110.039356     0.000000     0.006145   110.045501
	   45 D(1,2,3,5)      =     -1.988022    -0.000000     0.024362    -1.963660
	   46 D(1,2,3,6)      =    121.421320    -0.000000     0.018970   121.440290
	   47 D(1,2,3,7)      =   -125.660924    -0.000000     0.027040  -125.633884
	   48 *D(1,2,4,14)    =    -49.999978    -0.000000    -0.000000   -49.999978
	   49 D(2,3,5,8)      =    179.806225    -0.000000     0.044467   179.850692
	   50 D(2,3,5,9)      =     57.627089    -0.000000     0.039248    57.666337
	   51 D(2,3,5,10)     =    -58.113856    -0.000000     0.036222   -58.077633
	   52 D(2,4,14,15)    =    -65.334755     0.000000     0.090714   -65.244042
	   53 D(2,4,14,16)    =    176.140633     0.000000     0.081250   176.221883
	   54 D(2,4,14,17)    =     56.455561    -0.000000     0.081709    56.537270
	   55 D(3,2,4,14)     =    134.843158    -0.000000     0.052964   134.896123
	   56 D(3,5,8,11)     =    -60.125419    -0.000000    -0.107700   -60.233119
	   57 D(3,5,8,12)     =    179.980645    -0.000000    -0.105953   179.874692
	   58 D(3,5,8,13)     =     60.075520    -0.000000    -0.105904    59.969616
	   59 D(4,2,3,5)      =    173.031010     0.000000    -0.029451   173.001559
	   60 D(4,2,3,6)      =    -63.559648    -0.000000    -0.034843   -63.594491
	   61 D(4,2,3,7)      =     49.358109    -0.000000    -0.026773    49.331335
	   62 D(6,3,5,8)      =     58.586804     0.000000     0.042434    58.629237
	   63 D(6,3,5,9)      =    -63.592332     0.000000     0.037214   -63.555118
	   64 D(6,3,5,10)     =   -179.333277     0.000000     0.034189  -179.299088
	   65 D(7,3,5,8)      =    -58.840780     0.000000     0.039612   -58.801168
	   66 D(7,3,5,9)      =    178.980084     0.000000     0.034392   179.014477
	   67 D(7,3,5,10)     =     63.239140     0.000000     0.031367    63.270506
	   68 D(9,5,8,11)     =     61.675092    -0.000000    -0.104175    61.570917
	   69 D(9,5,8,12)     =    -58.218844    -0.000000    -0.102428   -58.321272
	   70 D(9,5,8,13)     =   -178.123969    -0.000000    -0.102379  -178.226348
	   71 D(10,5,8,11)    =    178.221904    -0.000000    -0.101297   178.120607
	   72 D(10,5,8,12)    =     58.327968    -0.000000    -0.099550    58.228418
	   73 D(10,5,8,13)    =    -61.577157    -0.000000    -0.099501   -61.676658
	 ---------------------------------------------------------------------------

  ==> Convergence Check <==

  Measures of convergence in internal coordinates in au.
  Criteria marked as inactive (o), active & met (*), and active & unmet ( ).
  ---------------------------------------------------------------------------------------------
   Step     Total Energy     Delta E     MAX Force     RMS Force      MAX Disp      RMS Disp   
  ---------------------------------------------------------------------------------------------
    Convergence Criteria    1.00e-06 *    3.00e-04 *             o    1.20e-03 *             o
  ---------------------------------------------------------------------------------------------
      6    -344.89580964   -9.35e-07 *    9.27e-05 *    1.91e-05 o    1.88e-03      7.67e-04 o  ~
  ---------------------------------------------------------------------------------------------


  **** Optimization is complete! (in 6 steps) ****

  ==> Optimization Summary <==

  Measures of convergence in internal coordinates in au.
  --------------------------------------------------------------------------------------------------------------- ~
   Step         Total Energy             Delta E       MAX Force       RMS Force        MAX Disp        RMS Disp  ~
  --------------------------------------------------------------------------------------------------------------- ~
      1    -344.894935902639   -344.894935902639      0.01419190      0.00218905      0.30489467      0.05828278  ~
      2    -344.892528759383      0.002407143255      0.01120915      0.00240993      0.19791526      0.03760757  ~
      3    -344.895728709499     -0.003199950116      0.00245357      0.00059059      0.04341527      0.01117804  ~
      4    -344.895801545332     -0.000072835833      0.00071376      0.00014794      0.01746687      0.00473145  ~
      5    -344.895808708059     -0.000007162728      0.00028532      0.00004938      0.00717606      0.00217023  ~
      6    -344.895809642931     -0.000000934872      0.00009272      0.00001914      0.00187972      0.00076714  ~
  --------------------------------------------------------------------------------------------------------------- ~

	Writing optimization data to binary file.
	Final energy is   -344.8958096429311
	Final (previous) structure:
	Cartesian Geometry (in Angstrom)
	    O     0.7817629753   1.3574510227   0.0735263754
	    C     0.6087592708   0.1850129347   0.0721487583
	    C    -0.7358473960  -0.4963930804   0.1057498286
	    O     1.6147649981  -0.7001343314   0.1480206962
	    C    -1.9135902343   0.4690602278   0.1918195445
	    H    -0.8029751787  -1.1206148369  -0.7828574131
	    H    -0.7257557598  -1.1858840684   0.9455989807
	    C    -3.2553519509  -0.2613683862   0.2187250626
	    H    -1.8802110011   1.1511397228  -0.6509831596
	    H    -1.8081087108   1.0818235920   1.0808488999
	    H    -3.3988668832  -0.8588170650  -0.6774026344
	    H    -4.0783778809   0.4430008807   0.2803692752
	    H    -3.3261765464  -0.9274613153   1.0740719657
	    C     2.6976994963  -0.5273622226  -0.7466101394
	    H     2.3662259871  -0.6778715723  -1.7674257893
	    H     3.4265453470  -1.2804966884  -0.4906932761
	    H     3.1309424376   0.4568989678  -0.6443729245
	Saving final (previous) structure.
			--------------------------
			 OPTKING Finished Execution 
			--------------------------

    Final optimized geometry and variables:
    Molecular point group: c1
    Full point group: C1

    Geometry (in Angstrom), charge = 0, multiplicity = 1:

    O            0.781762915621     1.357450919085     0.073526369765
    C            0.608759224311     0.185012920571     0.072148752750
    C           -0.735847339786    -0.496393042519     0.105749820495
    O            1.614764874832    -0.700134277950     0.148020684852
    C           -1.913590088148     0.469060192006     0.191819529900
    H           -0.802975117362    -1.120614751317    -0.782857353298
    H           -0.725755704427    -1.185883977846     0.945598908480
    C           -3.255351702341    -0.261368366217     0.218725045939
    H           -1.880210857475     1.151139634882    -0.650983109902
    H           -1.808108572773     1.081823509373     1.080848817393
    H           -3.398866623662    -0.858816999375    -0.677402582623
    H           -4.078377569462     0.443000846848     0.280369253773
    H           -3.326176292362    -0.927461244505     1.074071883633
    C            2.697699290276    -0.527362182280    -0.746610082426
    H            2.366225806451    -0.677871520572    -1.767425654326
    H            3.426545085353    -1.280496590621    -0.490693238600
    H            3.130942198460     0.456898932914    -0.644372875322

	Cleaning optimization helper files.


Properties will be evaluated at   0.000000,   0.000000,   0.000000 Bohr

Properties computed using the  density matrix

  Nuclear Dipole Moment: (a.u.)
     X:    -6.6415      Y:    -2.7326      Z:    -1.5297

  Electronic Dipole Moment: (a.u.)
     X:     6.6077      Y:     1.9242      Z:     1.0682

  Dipole Moment: (a.u.)
     X:    -0.0338      Y:    -0.8084      Z:    -0.4615     Total:     0.9315

  Dipole Moment: (Debye)
     X:    -0.0859      Y:    -2.0547      Z:    -1.1730     Total:     2.3675

  Quadrupole Moment: (Debye Ang)
    XX:   -38.2318     YY:   -48.2187     ZZ:   -41.6194
    XY:    -2.1267     XZ:    -3.2036     YZ:     0.6361

  Traceless Quadrupole Moment: (Debye Ang)
    XX:     4.4581     YY:    -5.5287     ZZ:     1.0706
    XY:    -2.1267     XZ:    -3.2036     YZ:     0.6361

  Mulliken Charges: (a.u.)
   Center  Symbol    Alpha    Beta     Spin     Total
       1     O     4.26953  4.26953  0.00000 -0.53906
       2     C     2.60664  2.60664  0.00000  0.78672
       3     C     3.20910  3.20910  0.00000 -0.41821
       4     O     4.31355  4.31355  0.00000 -0.62710
       5     C     3.15247  3.15247  0.00000 -0.30495
       6     H     0.40521  0.40521  0.00000  0.18959
       7     H     0.39852  0.39852  0.00000  0.20295
       8     C     3.24264  3.24264  0.00000 -0.48527
       9     H     0.41114  0.41114  0.00000  0.17772
      10     H     0.41055  0.41055  0.00000  0.17891
      11     H     0.42180  0.42180  0.00000  0.15641
      12     H     0.41498  0.41498  0.00000  0.17005
      13     H     0.42088  0.42088  0.00000  0.15825
      14     C     3.09523  3.09523  0.00000 -0.19047
      15     H     0.41924  0.41924  0.00000  0.16152
      16     H     0.40584  0.40584  0.00000  0.18832
      17     H     0.40269  0.40269  0.00000  0.19463

   Total alpha = 28.00000, Total beta = 28.00000, Total charge =  0.00000


*** PSI4 exiting successfully. Buy a developer a beer!
