    -----------------------------------------------------------------------
          Psi4: An Open-Source Ab Initio Electronic Structure Package
                              Psi4 (no tag) Driver

                          Git: Rev {detached?}  

    J. M. Turney, A. C. Simmonett, R. M. Parrish, E. G. Hohenstein,
    F. A. Evangelista, J. T. Fermann, B. J. Mintz, L. A. Burns, J. J. Wilke,
    M. L. Abrams, N. J. Russ, M. L. Leininger, C. L. Janssen, E. T. Seidl,
    W. D. Allen, H. F. Schaefer, R. A. King, E. F. Valeev, C. D. Sherrill,
    and T. D. Crawford, WIREs Comput. Mol. Sci. 2, 556-565 (2012)
    (doi: 10.1002/wcms.93)

                         Additional Contributions by
    A. E. DePrince, M. Saitow, U. Bozkaya, A. Yu. Sokolov
    -----------------------------------------------------------------------


    Psi4 started on: Fri Sep  2 13:04:49 2016

    Process ID:  20426
    PSI4DATADIR: /export131/home/mjharvey/miniconda3/share
    Memory level set to 256.000 MB

  ==> Input File <==

--------------------------------------------------------------------------
set {
	reference rhf
	basis 6-31G*
}


set_num_threads( 4 )
memory 2 gb

molecule MOL {
0 1

H	 3.449859	 -0.025435	 -0.821321
C	 2.738537	 -0.241289	 -0.032426
C	 1.322923	 0.120767	 -0.479465
H	 2.820262	 -1.296730	 0.207865
H	 3.033508	 0.327130	 0.844207
C	 0.306652	 -0.176050	 0.621399
H	 1.055465	 -0.445190	 -1.365798
H	 1.265943	 1.172573	 -0.733864
N	 -1.068537	 -0.011044	 0.085269
H	 0.372515	 -1.192590	 0.973735
H	 0.391664	 0.520566	 1.441230
O	 -1.656956	 -0.997225	 -0.235017
O	 -1.478635	 1.104830	 -0.018026

	symmetry c1
}
set optking {
	frozen_dihedral = ("
		7 3 6 9
	")
}

ee = optimize('scf')
oeprop('DIPOLE', 'QUADRUPOLE', 'MULLIKEN_CHARGES')
f=open( 'psi4out.xyz', 'w' )
f.write( "13  " )
f.write( str(ee) + "\n" )
f.write( MOL.save_string_xyz() )
f.close()
--------------------------------------------------------------------------

  Memory set to   2.000 GiB by Python script.
gradient() will perform analytic gradient computation.

*** tstart() called on cx1-3-1-2.cx1.hpc.ic.ac.uk
*** at Fri Sep  2 13:04:49 2016


         ---------------------------------------------------------
                                   SCF
            by Justin Turney, Rob Parrish, and Andy Simmonett
                              RHF Reference
                        4 Threads,   2000 MiB Core
         ---------------------------------------------------------

  ==> Geometry <==

    Molecular point group: c1
    Full point group: C1

    Geometry (in Angstrom), charge = 0, multiplicity = 1:

       Center              X                  Y                   Z               Mass       
    ------------   -----------------  -----------------  -----------------  -----------------
           H          3.452248809660     0.007574396843    -0.810215149856     1.007825032070
           C          2.740926809660    -0.208279603157    -0.021320149856    12.000000000000
           C          1.325312809660     0.153776396843    -0.468359149856    12.000000000000
           H          2.822651809660    -1.263720603157     0.218970850144     1.007825032070
           H          3.035897809660     0.360139396843     0.855312850144     1.007825032070
           C          0.309041809660    -0.143040603157     0.632504850144    12.000000000000
           H          1.057854809660    -0.412180603157    -1.354692149856     1.007825032070
           H          1.268332809660     1.205582396843    -0.722758149856     1.007825032070
           N         -1.066147190340     0.021965396843     0.096374850144    14.003074004780
           H          0.374904809660    -1.159580603157     0.984840850144     1.007825032070
           H          0.394053809660     0.553575396843     1.452335850144     1.007825032070
           O         -1.654566190340    -0.964215603157    -0.223911149856    15.994914619560
           O         -1.476245190340     1.137839396843    -0.006920149856    15.994914619560

  Running in c1 symmetry.

  Rotational constants: A =      0.29777  B =      0.06613  C =      0.05998 [cm^-1]
  Rotational constants: A =   8926.90650  B =   1982.41570  C =   1798.29148 [MHz]
  Nuclear repulsion =  247.450694058897369

  Charge       = 0
  Multiplicity = 1
  Electrons    = 48
  Nalpha       = 24
  Nbeta        = 24

  ==> Algorithm <==

  SCF Algorithm Type is DF.
  DIIS enabled.
  MOM disabled.
  Fractional occupation disabled.
  Guess Type is CORE.
  Energy threshold   = 1.00e-08
  Density threshold  = 1.00e-08
  Integral threshold = 0.00e+00

  ==> Primary Basis <==

  Basis Set: 6-31G*
    Number of shells: 50
    Number of basis function: 104
    Number of Cartesian functions: 104
    Spherical Harmonics?: false
    Max angular momentum: 2

  ==> Pre-Iterations <==

   -------------------------------------------------------
    Irrep   Nso     Nmo     Nalpha   Nbeta   Ndocc  Nsocc
   -------------------------------------------------------
     A        104     104       0       0       0       0
   -------------------------------------------------------
    Total     104     104      24      24      24       0
   -------------------------------------------------------

 OEINTS: Overlap, kinetic, potential, dipole, and quadrupole integrals
         stored in file 35.

  ==> Integral Setup <==

  ==> DFJK: Density-Fitted J/K Matrices <==

    J tasked:                  Yes
    K tasked:                  Yes
    wK tasked:                  No
    OpenMP threads:              4
    Integrals threads:           4
    Memory (MB):              1430
    Algorithm:                Core
    Integral Cache:           NONE
    Schwarz Cutoff:          1E-12
    Fitting Condition:       1E-12

   => Auxiliary Basis Set <=

  Basis Set: 
    Number of shells: 207
    Number of basis function: 661
    Number of Cartesian functions: 661
    Spherical Harmonics?: false
    Max angular momentum: 3

  Minimum eigenvalue in the overlap matrix is 3.1307865647E-03.
  Using Symmetric Orthogonalization.
  SCF Guess: Core (One-Electron) Hamiltonian.

  ==> Iterations <==

                           Total Energy        Delta E     RMS |[F,P]|

   @DF-RHF iter   1:  -244.21681612604593   -2.44217e+02   7.84937e-02 
   @DF-RHF iter   2:  -144.36172897110887    9.98551e+01   1.01690e-01 DIIS
   @DF-RHF iter   3:  -307.73464275962874   -1.63373e+02   3.13475e-02 DIIS
   @DF-RHF iter   4:  -288.91859600251030    1.88160e+01   6.37350e-02 DIIS
   @DF-RHF iter   5:  -302.92612942956509   -1.40075e+01   4.39344e-02 DIIS
   @DF-RHF iter   6:  -320.74594842541501   -1.78198e+01   1.28450e-02 DIIS
   @DF-RHF iter   7:  -321.60625480531223   -8.60306e-01   4.33842e-03 DIIS
   @DF-RHF iter   8:  -321.70088794794310   -9.46331e-02   2.23109e-03 DIIS
   @DF-RHF iter   9:  -321.73299885126539   -3.21109e-02   5.01699e-04 DIIS
   @DF-RHF iter  10:  -321.73494821516147   -1.94936e-03   1.87490e-04 DIIS
   @DF-RHF iter  11:  -321.73525792881378   -3.09714e-04   7.28596e-05 DIIS
   @DF-RHF iter  12:  -321.73530516450933   -4.72357e-05   2.96594e-05 DIIS
   @DF-RHF iter  13:  -321.73531136584347   -6.20133e-06   9.35480e-06 DIIS
   @DF-RHF iter  14:  -321.73531258231719   -1.21647e-06   3.63873e-06 DIIS
   @DF-RHF iter  15:  -321.73531297920056   -3.96883e-07   1.69560e-06 DIIS
   @DF-RHF iter  16:  -321.73531307309861   -9.38981e-08   6.38009e-07 DIIS
   @DF-RHF iter  17:  -321.73531308474617   -1.16476e-08   2.00717e-07 DIIS
   @DF-RHF iter  18:  -321.73531308568283   -9.36666e-10   5.99189e-08 DIIS
   @DF-RHF iter  19:  -321.73531308573172   -4.88853e-11   1.57621e-08 DIIS
   @DF-RHF iter  20:  -321.73531308573592   -4.20641e-12   7.93008e-09 DIIS

  ==> Post-Iterations <==

    Orbital Energies (a.u.)
    -----------------------

    Doubly Occupied:                                                      

       1A    -20.601505     2A    -20.599444     3A    -15.846828  
       4A    -11.299122     5A    -11.257313     6A    -11.240065  
       7A     -1.630414     8A     -1.415940     9A     -1.135531  
      10A     -1.028500    11A     -0.884235    12A     -0.833238  
      13A     -0.758319    14A     -0.734684    15A     -0.722945  
      16A     -0.671646    17A     -0.604710    18A     -0.589955  
      19A     -0.550003    20A     -0.522006    21A     -0.514983  
      22A     -0.483474    23A     -0.473521    24A     -0.447875  

    Virtual:                                                              

      25A      0.120540    26A      0.215142    27A      0.252898  
      28A      0.262744    29A      0.282466    30A      0.301644  
      31A      0.317297    32A      0.319824    33A      0.355371  
      34A      0.387778    35A      0.391137    36A      0.539824  
      37A      0.609092    38A      0.689492    39A      0.700395  
      40A      0.713987    41A      0.743298    42A      0.782899  
      43A      0.812739    44A      0.888541    45A      0.893430  
      46A      0.936359    47A      0.978129    48A      1.040130  
      49A      1.074369    50A      1.084670    51A      1.094292  
      52A      1.108160    53A      1.123470    54A      1.156674  
      55A      1.163792    56A      1.175213    57A      1.196220  
      58A      1.228394    59A      1.244192    60A      1.280093  
      61A      1.290638    62A      1.304087    63A      1.384230  
      64A      1.431110    65A      1.522525    66A      1.597277  
      67A      1.664829    68A      1.692116    69A      1.766873  
      70A      1.806301    71A      1.934399    72A      1.983352  
      73A      2.050175    74A      2.109257    75A      2.129984  
      76A      2.134994    77A      2.200002    78A      2.212892  
      79A      2.238650    80A      2.244867    81A      2.303785  
      82A      2.319961    83A      2.415567    84A      2.470193  
      85A      2.517597    86A      2.559695    87A      2.655973  
      88A      2.662390    89A      2.704802    90A      2.759500  
      91A      2.853652    92A      2.960259    93A      3.047090  
      94A      3.080565    95A      3.234023    96A      3.242098  
      97A      3.277624    98A      3.487458    99A      4.118476  
     100A      4.251617   101A      4.268868   102A      4.581518  
     103A      4.721977   104A      4.913395  

    Final Occupation by Irrep:
              A 
    DOCC [    24 ]

  Energy converged.

  @DF-RHF Final Energy:  -321.73531308573592

   => Energetics <=

    Nuclear Repulsion Energy =            247.4506940588973691
    One-Electron Energy =                -928.6795087726865177
    Two-Electron Energy =                 359.4935016280531386
    DFT Exchange-Correlation Energy =       0.0000000000000000
    Empirical Dispersion Energy =           0.0000000000000000
    PCM Polarization Energy =               0.0000000000000000
    EFP Energy =                            0.0000000000000000
    Total Energy =                       -321.7353130857359815

    Alert: EFP and PCM quantities not currently incorporated into SCF psivars.

Properties will be evaluated at   0.000000,   0.000000,   0.000000 Bohr
  ==> Properties <==


Properties computed using the SCF density matrix

  Nuclear Dipole Moment: (a.u.)
     X:    11.6182      Y:    -0.6635      Z:     0.5834

  Electronic Dipole Moment: (a.u.)
     X:    -9.9737      Y:     0.5090      Z:    -0.1195

  Dipole Moment: (a.u.)
     X:     1.6445      Y:    -0.1546      Z:     0.4639     Total:     1.7157

  Dipole Moment: (Debye)
     X:     4.1799      Y:    -0.3929      Z:     1.1792     Total:     4.3608


  Saving occupied orbitals to File 180.

*** tstop() called on cx1-3-1-2.cx1.hpc.ic.ac.uk at Fri Sep  2 13:04:53 2016
Module time:
	user time   =       9.60 seconds =       0.16 minutes
	system time =       0.14 seconds =       0.00 minutes
	total time  =          4 seconds =       0.07 minutes
Total time:
	user time   =       9.60 seconds =       0.16 minutes
	system time =       0.14 seconds =       0.00 minutes
	total time  =          4 seconds =       0.07 minutes

*** tstart() called on cx1-3-1-2.cx1.hpc.ic.ac.uk
*** at Fri Sep  2 13:04:53 2016


         ------------------------------------------------------------
                                   SCF GRAD                          
                          Rob Parrish, Justin Turney,                
                       Andy Simmonett, and Alex Sokolov              
         ------------------------------------------------------------

  ==> Geometry <==

    Molecular point group: c1
    Full point group: C1

    Geometry (in Angstrom), charge = 0, multiplicity = 1:

       Center              X                  Y                   Z               Mass       
    ------------   -----------------  -----------------  -----------------  -----------------
           H          3.452248809660     0.007574396843    -0.810215149856     1.007825032070
           C          2.740926809660    -0.208279603157    -0.021320149856    12.000000000000
           C          1.325312809660     0.153776396843    -0.468359149856    12.000000000000
           H          2.822651809660    -1.263720603157     0.218970850144     1.007825032070
           H          3.035897809660     0.360139396843     0.855312850144     1.007825032070
           C          0.309041809660    -0.143040603157     0.632504850144    12.000000000000
           H          1.057854809660    -0.412180603157    -1.354692149856     1.007825032070
           H          1.268332809660     1.205582396843    -0.722758149856     1.007825032070
           N         -1.066147190340     0.021965396843     0.096374850144    14.003074004780
           H          0.374904809660    -1.159580603157     0.984840850144     1.007825032070
           H          0.394053809660     0.553575396843     1.452335850144     1.007825032070
           O         -1.654566190340    -0.964215603157    -0.223911149856    15.994914619560
           O         -1.476245190340     1.137839396843    -0.006920149856    15.994914619560

  Nuclear repulsion =  247.450694058897369

  ==> Basis Set <==

  Basis Set: 6-31G*
    Number of shells: 50
    Number of basis function: 104
    Number of Cartesian functions: 104
    Spherical Harmonics?: false
    Max angular momentum: 2

  ==> DFJKGrad: Density-Fitted SCF Gradients <==

    Gradient:                    1
    J tasked:                  Yes
    K tasked:                  Yes
    wK tasked:                  No
    OpenMP threads:              4
    Integrals threads:           4
    Memory (MB):              1430
    Schwarz Cutoff:          0E+00
    Fitting Condition:       1E-12

   => Auxiliary Basis Set <=

  Basis Set: 
    Number of shells: 207
    Number of basis function: 661
    Number of Cartesian functions: 661
    Spherical Harmonics?: false
    Max angular momentum: 3


  -Total Gradient:
     Atom            X                  Y                   Z
    ------   -----------------  -----------------  -----------------
       1       -0.000046543641    -0.000168051814    -0.000066260616
       2       -0.000076841110    -0.000326892978     0.000032163732
       3       -0.000084752601    -0.000165033276     0.000092002043
       4        0.000140295860    -0.000098342228     0.000074084172
       5       -0.000109840622     0.000008513319    -0.000114513446
       6        0.000344652517     0.000066179176    -0.000292020603
       7       -0.000466599761     0.000411602745    -0.000118374755
       8        0.000340261836     0.000258210438     0.000670223820
       9       -0.000071153734    -0.000597348583    -0.000563853064
      10        0.000375322893     0.000125803238     0.000354850845
      11       -0.000206663019     0.000448102117    -0.000324782218
      12       -0.000006532627    -0.000011166401     0.000112160521
      13       -0.000131605995     0.000048424249     0.000144319570


*** tstop() called on cx1-3-1-2.cx1.hpc.ic.ac.uk at Fri Sep  2 13:04:56 2016
Module time:
	user time   =      11.14 seconds =       0.19 minutes
	system time =       0.14 seconds =       0.00 minutes
	total time  =          3 seconds =       0.05 minutes
Total time:
	user time   =      20.76 seconds =       0.35 minutes
	system time =       0.28 seconds =       0.00 minutes
	total time  =          7 seconds =       0.12 minutes
CURRENT ENERGY: -321.7353130857

			-----------------------------------------
			 OPTKING 2.0: for geometry optimizations 
			  - R.A. King,  Bethel University        
			-----------------------------------------

	Internal coordinates to be generated automatically.
	Detected frag with atoms:  1 2 3 4 5 6 7 8 9 10 11 12 13
	---Fragment 1 Bond Connectivity---
	 1 : 2
	 2 : 1 3 4 5
	 3 : 2 6 7 8
	 4 : 2
	 5 : 2
	 6 : 3 9 10 11
	 7 : 3
	 8 : 3
	 9 : 6 12 13
	 10 : 6
	 11 : 6
	 12 : 9
	 13 : 9

	Assuming in current code that numbering for constraints corresponds to unified fragment.
	Frozen dihedral atom list: 
	     7     3     6     9
	---Fragment 1 Geometry and Gradient---
	 H           6.5238047928        0.0143135357       -1.5310847419
	 C           5.1796010205       -0.3935914090       -0.0402892443
	 C           2.5044782507        0.2905952757       -0.8850705251
	 H           5.3340388888       -2.3880858485        0.4137949379
	 H           5.7370154277        0.6805648297        1.6163070447
	 C           0.5840043839       -0.2703075658        1.1952609445
	 H           1.9990558786       -0.7789084573       -2.5599971576
	 H           2.3968016556        2.2782205607       -1.3658149635
	 N          -2.0147262071        0.0415085844        0.1821220729
	 H           0.7084674162       -2.1912897690        1.8610794912
	 H           0.7446537819        1.0461058939        2.7445170097
	 O          -3.1266769685       -1.8221034230       -0.4231307513
	 O          -2.7896991147        2.1502048432       -0.0130771880
	            -0.0000465436       -0.0001680518       -0.0000662606
	            -0.0000768411       -0.0003268930        0.0000321637
	            -0.0000847526       -0.0001650333        0.0000920020
	             0.0001402959       -0.0000983422        0.0000740842
	            -0.0001098406        0.0000085133       -0.0001145134
	             0.0003446525        0.0000661792       -0.0002920206
	            -0.0004665998        0.0004116027       -0.0001183748
	             0.0003402618        0.0002582104        0.0006702238
	            -0.0000711537       -0.0005973486       -0.0005638531
	             0.0003753229        0.0001258032        0.0003548508
	            -0.0002066630        0.0004481021       -0.0003247822
	            -0.0000065326       -0.0000111664        0.0001121605
	            -0.0001316060        0.0000484242        0.0001443196

	Previous optimization step data not found.  Starting new optimization.

	---Fragment 1 Intrafragment Coordinates---
	 - Coordinate -           - BOHR/RAD -       - ANG/DEG -
	 R(1,2)           =         2.048351	       1.083941
	 R(2,3)           =         2.887568	       1.528035
	 R(2,4)           =         2.051354	       1.085530
	 R(2,5)           =         2.051544	       1.085631
	 R(3,6)           =         2.886280	       1.527354
	 R(3,7)           =         2.050529	       1.085093
	 R(3,8)           =         2.047770	       1.083634
	 R(6,9)           =         2.806614	       1.485196
	 R(6,10)          =         2.036904	       1.077883
	 R(6,11)          =         2.039350	       1.079177
	 R(9,12)          =         2.252957	       1.192214
	 R(9,13)          =         2.255058	       1.193325
	 B(1,2,3)         =         1.926070	     110.355705
	 B(1,2,4)         =         1.881069	     107.777319
	 B(1,2,5)         =         1.880864	     107.765579
	 B(2,3,6)         =         1.938544	     111.070412
	 B(2,3,7)         =         1.921688	     110.104636
	 B(2,3,8)         =         1.925571	     110.327089
	 B(3,2,4)         =         1.944302	     111.400302
	 B(3,2,5)         =         1.943240	     111.339448
	 B(3,6,9)         =         1.911682	     109.531299
	 B(3,6,10)        =         1.958668	     112.223426
	 B(3,6,11)        =         1.949475	     111.696693
	 B(4,2,5)         =         1.885855	     108.051517
	 B(6,3,7)         =         1.900091	     108.867171
	 B(6,3,8)         =         1.899535	     108.835341
	 B(6,9,12)        =         2.051126	     117.520859
	 B(6,9,13)        =         2.041307	     116.958299
	 B(7,3,8)         =         1.877096	     107.549673
	 B(9,6,10)        =         1.853917	     106.221592
	 B(9,6,11)        =         1.849860	     105.989178
	 B(10,6,11)       =         1.934388	     110.832295
	 B(12,9,13)       =         2.190298	     125.494815
	 D(1,2,3,6)       =        -3.140764	    -179.952522
	 D(1,2,3,7)       =         1.036373	      59.379794
	 D(1,2,3,8)       =        -1.032824	     -59.176475
	 D(2,3,6,9)       =        -2.991417	    -171.395546
	 D(2,3,6,10)      =        -0.936842	     -53.677094
	 D(2,3,6,11)      =         1.247813	      71.494431
	 D(3,6,9,12)      =         1.740350	      99.714700
	 D(3,6,9,13)      =        -1.370654	     -78.532715
	 D(4,2,3,6)       =         1.053591	      60.366342
	 D(4,2,3,7)       =        -1.052457	     -60.301342
	 D(4,2,3,8)       =        -3.121654	    -178.857612
	 D(5,2,3,6)       =        -1.052881	     -60.325658
	 D(5,2,3,7)       =         3.124256	     179.006658
	 D(5,2,3,8)       =         1.055058	      60.450389
	*D(7,3,6,9)       =        -0.872665	     -50.000021
	 D(7,3,6,10)      =         1.181910	      67.718431
	 D(7,3,6,11)      =        -2.916620	    -167.110043
	 D(8,3,6,9)       =         1.168545	      66.952670
	 D(8,3,6,10)      =        -3.060066	    -175.328878
	 D(8,3,6,11)      =        -0.875411	     -50.157352
	 D(10,6,9,12)     =        -0.378650	     -21.695057
	 D(10,6,9,13)     =         2.793531	     160.057528
	 D(11,6,9,12)     =        -2.437208	    -139.641716
	 D(11,6,9,13)     =         0.734973	      42.110870

	Current energy   :      -321.7353130857

	Generating empirical Hessian (Schlegel '84) for each fragment.
	Taking RFO optimization step.
	Going to follow RFO solution 1.
	Using RFO vector 1.
	Norm of target step-size    0.47739
	Projected energy change by RFO approximation:        -0.0006078322

	Back-transformation to cartesian coordinates...
	Successfully converged to displaced geometry.

	Back-transformation to cartesian coordinates to adjust frozen coordinates...
	Successfully converged to displaced geometry.

	--- Internal Coordinate Step in ANG or DEG, aJ/ANG or AJ/DEG ---
	 ---------------------------------------------------------------------------
	   Coordinate                Previous        Force       Change         New 
	   ----------                --------       ------       ------       ------
	    1 R(1,2)          =      1.083941     0.000130     0.000024     1.083964
	    2 R(2,3)          =      1.528035    -0.000253    -0.000055     1.527980
	    3 R(2,4)          =      1.085530    -0.001010    -0.000183     1.085346
	    4 R(2,5)          =      1.085631     0.000971     0.000176     1.085807
	    5 R(3,6)          =      1.527354     0.005175     0.001120     1.528473
	    6 R(3,7)          =      1.085093     0.000025     0.000004     1.085098
	    7 R(3,8)          =      1.083634    -0.000621    -0.000112     1.083521
	    8 R(6,9)          =      1.485196    -0.001998    -0.000377     1.484819
	    9 R(6,10)         =      1.077883    -0.000167    -0.000030     1.077854
	   10 R(6,11)         =      1.079177    -0.000216    -0.000038     1.079139
	   11 R(9,12)         =      1.192214     0.000146     0.000009     1.192222
	   12 R(9,13)         =      1.193325    -0.000643    -0.000038     1.193287
	   13 B(1,2,3)        =    110.355705     0.000003     0.018630   110.374335
	   14 B(1,2,4)        =    107.777319     0.000009     0.050857   107.828176
	   15 B(1,2,5)        =    107.765579    -0.000008    -0.041111   107.724468
	   16 B(2,3,6)        =    111.070412     0.000011     0.205318   111.275730
	   17 B(2,3,7)        =    110.104636     0.000010     0.463595   110.568231
	   18 B(2,3,8)        =    110.327089    -0.000004    -0.049621   110.277468
	   19 B(3,2,4)        =    111.400302    -0.000017    -0.077438   111.322865
	   20 B(3,2,5)        =    111.339448     0.000012     0.051932   111.391380
	   21 B(3,6,9)        =    109.531299    -0.000014    -0.053445   109.477854
	   22 B(3,6,10)       =    112.223426     0.000002    -0.189712   112.033714
	   23 B(3,6,11)       =    111.696693     0.000015     0.302962   111.999655
	   24 B(4,2,5)        =    108.051517     0.000001    -0.002153   108.049365
	   25 B(6,3,7)        =    108.867171     0.000001     0.117529   108.984700
	   26 B(6,3,8)        =    108.835341    -0.000001    -0.176707   108.658634
	   27 B(6,9,12)       =    117.520859     0.000006    -1.357255   116.163604
	   28 B(6,9,13)       =    116.958299    -0.000007    -1.397518   115.560781
	   29 B(7,3,8)        =    107.549673    -0.000018    -0.594760   106.954913
	   30 B(9,6,10)       =    106.221592    -0.000003    -0.421290   105.800302
	   31 B(9,6,11)       =    105.989178     0.000005     0.381994   106.371172
	   32 B(10,6,11)      =    110.832295    -0.000007    -0.029387   110.802908
	   33 B(12,9,13)      =    125.494815     0.000001    -1.487138   124.007677
	   34 D(1,2,3,6)      =   -179.952522     0.000002     2.250626  -177.701896
	   35 D(1,2,3,7)      =     59.379794    -0.000001     1.653353    61.033147
	   36 D(1,2,3,8)      =    -59.176475     0.000003     2.130411   -57.046064
	   37 D(2,3,6,9)      =   -171.395546    -0.000005    -0.790446  -172.185992
	   38 D(2,3,6,10)     =    -53.677094    -0.000007    -1.462642   -55.139735
	   39 D(2,3,6,11)     =     71.494431    -0.000006    -1.412795    70.081637
	   40 D(3,6,9,12)     =     99.714700    -0.000003    -7.650057    92.064643
	   41 D(3,6,9,13)     =    -78.532715     0.000001    12.819594   -65.713121
	   42 D(4,2,3,6)      =     60.366342     0.000002     2.224812    62.591154
	   43 D(4,2,3,7)      =    -60.301342    -0.000002     1.627538   -58.673804
	   44 D(4,2,3,8)      =   -178.857612     0.000002     2.104597  -176.753014
	   45 D(5,2,3,6)      =    -60.325658     0.000002     2.245079   -58.080579
	   46 D(5,2,3,7)      =    179.006658    -0.000002     1.647805   180.654463
	   47 D(5,2,3,8)      =     60.450389     0.000003     2.124864    62.575253
	   48 *D(7,3,6,9)     =    -50.000021    -0.000000     0.000000   -50.000021
	   49 D(7,3,6,10)     =     67.718431    -0.000003    -0.672196    67.046236
	   50 D(7,3,6,11)     =   -167.110043    -0.000002    -0.622349  -167.732392
	   51 D(8,3,6,9)      =     66.952670    -0.000005    -0.742047    66.210623
	   52 D(8,3,6,10)     =   -175.328878    -0.000008    -1.414243  -176.743120
	   53 D(8,3,6,11)     =    -50.157352    -0.000006    -1.364396   -51.521748
	   54 D(10,6,9,12)    =    -21.695057    -0.000001    -7.146556   -28.841613
	   55 D(10,6,9,13)    =    160.057528     0.000002    13.323094   173.380623
	   56 D(11,6,9,12)    =   -139.641716     0.000000    -7.093265  -146.734981
	   57 D(11,6,9,13)    =     42.110870     0.000004    13.376385    55.487255
	 ---------------------------------------------------------------------------

  ==> Convergence Check <==

  Measures of convergence in internal coordinates in au.
  Criteria marked as inactive (o), active & met (*), and active & unmet ( ).
  --------------------------------------------------------------------------------------------- ~
   Step     Total Energy     Delta E     MAX Force     RMS Force      MAX Disp      RMS Disp    ~
  --------------------------------------------------------------------------------------------- ~
    Convergence Criteria    1.00e-06 *    3.00e-04 *             o    1.20e-03 *             o  ~
  --------------------------------------------------------------------------------------------- ~
      1    -321.73531309   -3.22e+02      6.28e-04      1.78e-04 o    2.33e-01      6.27e-02 o  ~
  ---------------------------------------------------------------------------------------------

	Writing optimization data to binary file.
	Structure for next step:
	Cartesian Geometry (in Angstrom)
	    H     3.4252969302   0.0475077077  -0.8229801603
	    C     2.7282202134  -0.2032250082  -0.0316549790
	    C     1.3007114957   0.1463318199  -0.4496899961
	    H     2.8298904573  -1.2634312594   0.1771563928
	    H     3.0260428302   0.3447868216   0.8571428352
	    C     0.3063881268  -0.1465925431   0.6735851078
	    H     1.0130209858  -0.4167312133  -1.3315240716
	    H     1.2316964837   1.1961732932  -0.7087042990
	    N    -1.0784297292   0.0259161463   0.1664296153
	    H     0.3694414009  -1.1675379705   1.0133839637
	    H     0.4156068981   0.5395898380   1.4992763014
	    O    -1.6052018984  -0.9519085061  -0.2668875158
	    O    -1.3784157078   1.1385559785  -0.1433690941
			--------------------------
			 OPTKING Finished Execution 
			--------------------------

    Structure for next step:
    Molecular point group: c1
    Full point group: C1

    Geometry (in Angstrom), charge = 0, multiplicity = 1:

    H            3.407248723070     0.045472689827    -0.809105393169
    C            2.710172059474    -0.205260006934    -0.017780272317
    C            1.282663450772     0.144296794427    -0.435815257482
    H            2.811842295580    -1.265466177206     0.191031083536
    H            3.007994653493     0.342751780996     0.871017474001
    C            0.288340157802    -0.148627546243     0.687459760672
    H            0.994972962904    -0.418766195757    -1.317649265668
    H            1.213648444080     1.194138187578    -0.694829540626
    N           -1.096477592453     0.023881130071     0.180304306844
    H            0.351393427147    -1.169572895676     1.027258590642
    H            0.397558920796     0.537554782515     1.513150891208
    O           -1.623249721438    -0.953943447728    -0.253012791110
    O           -1.396463548157     1.136520877261    -0.129494378880

gradient() will perform analytic gradient computation.

*** tstart() called on cx1-3-1-2.cx1.hpc.ic.ac.uk
*** at Fri Sep  2 13:04:57 2016


         ---------------------------------------------------------
                                   SCF
            by Justin Turney, Rob Parrish, and Andy Simmonett
                              RHF Reference
                        4 Threads,   2000 MiB Core
         ---------------------------------------------------------

  ==> Geometry <==

    Molecular point group: c1
    Full point group: C1

    Geometry (in Angstrom), charge = 0, multiplicity = 1:

       Center              X                  Y                   Z               Mass       
    ------------   -----------------  -----------------  -----------------  -----------------
           H          3.407248723070     0.045472689827    -0.809105393169     1.007825032070
           C          2.710172059474    -0.205260006934    -0.017780272317    12.000000000000
           C          1.282663450772     0.144296794427    -0.435815257482    12.000000000000
           H          2.811842295580    -1.265466177206     0.191031083536     1.007825032070
           H          3.007994653493     0.342751780996     0.871017474001     1.007825032070
           C          0.288340157802    -0.148627546243     0.687459760672    12.000000000000
           H          0.994972962904    -0.418766195757    -1.317649265668     1.007825032070
           H          1.213648444080     1.194138187578    -0.694829540626     1.007825032070
           N         -1.096477592453     0.023881130071     0.180304306844    14.003074004780
           H          0.351393427147    -1.169572895676     1.027258590642     1.007825032070
           H          0.397558920796     0.537554782515     1.513150891208     1.007825032070
           O         -1.623249721438    -0.953943447728    -0.253012791110    15.994914619560
           O         -1.396463548157     1.136520877261    -0.129494378880    15.994914619560

  Running in c1 symmetry.

  Rotational constants: A =      0.29200  B =      0.06807  C =      0.06200 [cm^-1]
  Rotational constants: A =   8754.05057  B =   2040.82932  C =   1858.59876 [MHz]
  Nuclear repulsion =  248.783989764464906

  Charge       = 0
  Multiplicity = 1
  Electrons    = 48
  Nalpha       = 24
  Nbeta        = 24

  ==> Algorithm <==

  SCF Algorithm Type is DF.
  DIIS enabled.
  MOM disabled.
  Fractional occupation disabled.
  Guess Type is READ.
  Energy threshold   = 1.00e-08
  Density threshold  = 1.00e-08
  Integral threshold = 0.00e+00

  ==> Primary Basis <==

  Basis Set: 6-31G*
    Number of shells: 50
    Number of basis function: 104
    Number of Cartesian functions: 104
    Spherical Harmonics?: false
    Max angular momentum: 2

  ==> Pre-Iterations <==

   -------------------------------------------------------
    Irrep   Nso     Nmo     Nalpha   Nbeta   Ndocc  Nsocc
   -------------------------------------------------------
     A        104     104       0       0       0       0
   -------------------------------------------------------
    Total     104     104      24      24      24       0
   -------------------------------------------------------

 OEINTS: Overlap, kinetic, potential, dipole, and quadrupole integrals
         stored in file 35.

  ==> Integral Setup <==

  ==> DFJK: Density-Fitted J/K Matrices <==

    J tasked:                  Yes
    K tasked:                  Yes
    wK tasked:                  No
    OpenMP threads:              4
    Integrals threads:           4
    Memory (MB):              1430
    Algorithm:                Core
    Integral Cache:           NONE
    Schwarz Cutoff:          1E-12
    Fitting Condition:       1E-12

   => Auxiliary Basis Set <=

  Basis Set: 
    Number of shells: 207
    Number of basis function: 661
    Number of Cartesian functions: 661
    Spherical Harmonics?: false
    Max angular momentum: 3

  Minimum eigenvalue in the overlap matrix is 3.3994290348E-03.
  Using Symmetric Orthogonalization.
  SCF Guess: Reading in previously saved MOs, projecting if necessary.

  Using orbitals from previous SCF, no projection.
  Recomputing DOCC and SOCC from number of alpha and beta electrons from previous calculation.
              A 
    DOCC [    24 ]

  ==> Iterations <==

                           Total Energy        Delta E     RMS |[F,P]|

   @DF-RHF iter   0:  -321.64519215269343   -3.21645e+02   4.22067e-03 
   @DF-RHF iter   1:  -321.71907726758627   -7.38851e-02   7.89633e-04 
   @DF-RHF iter   2:  -321.72448661023850   -5.40934e-03   3.66492e-04 DIIS
   @DF-RHF iter   3:  -321.72549404100994   -1.00743e-03   1.91492e-04 DIIS
   @DF-RHF iter   4:  -321.72590259020592   -4.08549e-04   7.44643e-05 DIIS
   @DF-RHF iter   5:  -321.72598680520218   -8.42150e-05   3.80673e-05 DIIS
   @DF-RHF iter   6:  -321.72603900474780   -5.21995e-05   1.97475e-05 DIIS
   @DF-RHF iter   7:  -321.72604866413701   -9.65939e-06   6.42129e-06 DIIS
   @DF-RHF iter   8:  -321.72604938993641   -7.25799e-07   1.35251e-06 DIIS
   @DF-RHF iter   9:  -321.72604941381019   -2.38738e-08   5.82061e-07 DIIS
   @DF-RHF iter  10:  -321.72604941817804   -4.36785e-09   1.82211e-07 DIIS
   @DF-RHF iter  11:  -321.72604941885152   -6.73481e-10   5.73512e-08 DIIS
   @DF-RHF iter  12:  -321.72604941893269   -8.11724e-11   2.76972e-08 DIIS
   @DF-RHF iter  13:  -321.72604941895565   -2.29647e-11   1.37422e-08 DIIS
   @DF-RHF iter  14:  -321.72604941896293   -7.27596e-12   4.72643e-09 DIIS

  ==> Post-Iterations <==

    Orbital Energies (a.u.)
    -----------------------

    Doubly Occupied:                                                      

       1A    -20.601241     2A    -20.598753     3A    -15.844544  
       4A    -11.299823     5A    -11.255497     6A    -11.239140  
       7A     -1.632268     8A     -1.413594     9A     -1.132894  
      10A     -1.027705    11A     -0.885468    12A     -0.829817  
      13A     -0.757544    14A     -0.734344    15A     -0.724237  
      16A     -0.669877    17A     -0.604622    18A     -0.588586  
      19A     -0.546398    20A     -0.520313    21A     -0.512404  
      22A     -0.482593    23A     -0.474651    24A     -0.445944  

    Virtual:                                                              

      25A      0.108344    26A      0.215878    27A      0.253448  
      28A      0.264425    29A      0.286609    30A      0.303382  
      31A      0.319126    32A      0.322024    33A      0.355184  
      34A      0.388491    35A      0.402393    36A      0.546838  
      37A      0.596993    38A      0.694149    39A      0.701388  
      40A      0.714713    41A      0.746976    42A      0.781834  
      43A      0.809379    44A      0.890745    45A      0.895696  
      46A      0.927038    47A      0.977847    48A      1.040024  
      49A      1.054246    50A      1.079326    51A      1.105773  
      52A      1.113251    53A      1.129936    54A      1.158653  
      55A      1.165352    56A      1.175649    57A      1.200167  
      58A      1.229989    59A      1.251059    60A      1.272923  
      61A      1.278084    62A      1.322397    63A      1.377741  
      64A      1.456816    65A      1.489224    66A      1.592849  
      67A      1.665841    68A      1.687620    69A      1.753087  
      70A      1.810086    71A      1.937102    72A      1.970734  
      73A      2.049554    74A      2.099272    75A      2.137708  
      76A      2.145177    77A      2.200032    78A      2.216286  
      79A      2.243950    80A      2.250932    81A      2.308427  
      82A      2.336335    83A      2.408146    84A      2.459486  
      85A      2.518169    86A      2.591545    87A      2.631889  
      88A      2.664154    89A      2.709344    90A      2.795037  
      91A      2.839738    92A      2.952475    93A      3.037857  
      94A      3.082013    95A      3.215251    96A      3.246872  
      97A      3.257089    98A      3.456741    99A      4.085244  
     100A      4.194282   101A      4.295786   102A      4.585393  
     103A      4.722972   104A      4.909995  

    Final Occupation by Irrep:
              A 
    DOCC [    24 ]

  Energy converged.

  @DF-RHF Final Energy:  -321.72604941896293

   => Energetics <=

    Nuclear Repulsion Energy =            248.7839897644649056
    One-Electron Energy =                -931.3755723993789388
    Two-Electron Energy =                 360.8655332159511318
    DFT Exchange-Correlation Energy =       0.0000000000000000
    Empirical Dispersion Energy =           0.0000000000000000
    PCM Polarization Energy =               0.0000000000000000
    EFP Energy =                            0.0000000000000000
    Total Energy =                       -321.7260494189629298

    Alert: EFP and PCM quantities not currently incorporated into SCF psivars.

Properties will be evaluated at   0.000000,   0.000000,   0.000000 Bohr
  ==> Properties <==


Properties computed using the SCF density matrix

  Nuclear Dipole Moment: (a.u.)
     X:    11.4114      Y:    -0.6872      Z:     0.7297

  Electronic Dipole Moment: (a.u.)
     X:    -9.8797      Y:     0.5309      Z:    -0.1089

  Dipole Moment: (a.u.)
     X:     1.5317      Y:    -0.1563      Z:     0.6208     Total:     1.6601

  Dipole Moment: (Debye)
     X:     3.8932      Y:    -0.3972      Z:     1.5780     Total:     4.2196


  Saving occupied orbitals to File 180.

*** tstop() called on cx1-3-1-2.cx1.hpc.ic.ac.uk at Fri Sep  2 13:05:01 2016
Module time:
	user time   =      10.40 seconds =       0.17 minutes
	system time =       0.13 seconds =       0.00 minutes
	total time  =          4 seconds =       0.07 minutes
Total time:
	user time   =      32.54 seconds =       0.54 minutes
	system time =       0.46 seconds =       0.01 minutes
	total time  =         12 seconds =       0.20 minutes

*** tstart() called on cx1-3-1-2.cx1.hpc.ic.ac.uk
*** at Fri Sep  2 13:05:01 2016


         ------------------------------------------------------------
                                   SCF GRAD                          
                          Rob Parrish, Justin Turney,                
                       Andy Simmonett, and Alex Sokolov              
         ------------------------------------------------------------

  ==> Geometry <==

    Molecular point group: c1
    Full point group: C1

    Geometry (in Angstrom), charge = 0, multiplicity = 1:

       Center              X                  Y                   Z               Mass       
    ------------   -----------------  -----------------  -----------------  -----------------
           H          3.407248723070     0.045472689827    -0.809105393169     1.007825032070
           C          2.710172059474    -0.205260006934    -0.017780272317    12.000000000000
           C          1.282663450772     0.144296794427    -0.435815257482    12.000000000000
           H          2.811842295580    -1.265466177206     0.191031083536     1.007825032070
           H          3.007994653493     0.342751780996     0.871017474001     1.007825032070
           C          0.288340157802    -0.148627546243     0.687459760672    12.000000000000
           H          0.994972962904    -0.418766195757    -1.317649265668     1.007825032070
           H          1.213648444080     1.194138187578    -0.694829540626     1.007825032070
           N         -1.096477592453     0.023881130071     0.180304306844    14.003074004780
           H          0.351393427147    -1.169572895676     1.027258590642     1.007825032070
           H          0.397558920796     0.537554782515     1.513150891208     1.007825032070
           O         -1.623249721438    -0.953943447728    -0.253012791110    15.994914619560
           O         -1.396463548157     1.136520877261    -0.129494378880    15.994914619560

  Nuclear repulsion =  248.783989764464906

  ==> Basis Set <==

  Basis Set: 6-31G*
    Number of shells: 50
    Number of basis function: 104
    Number of Cartesian functions: 104
    Spherical Harmonics?: false
    Max angular momentum: 2

  ==> DFJKGrad: Density-Fitted SCF Gradients <==

    Gradient:                    1
    J tasked:                  Yes
    K tasked:                  Yes
    wK tasked:                  No
    OpenMP threads:              4
    Integrals threads:           4
    Memory (MB):              1430
    Schwarz Cutoff:          0E+00
    Fitting Condition:       1E-12

   => Auxiliary Basis Set <=

  Basis Set: 
    Number of shells: 207
    Number of basis function: 661
    Number of Cartesian functions: 661
    Spherical Harmonics?: false
    Max angular momentum: 3


  -Total Gradient:
     Atom            X                  Y                   Z
    ------   -----------------  -----------------  -----------------
       1        0.000353451132    -0.000060912118     0.000181263419
       2        0.001028857126     0.000917611504    -0.001018158099
       3        0.002423186137    -0.003620468870     0.002526833245
       4       -0.000242523472     0.000020929704    -0.000146823909
       5       -0.000077935298    -0.000069530244     0.000058963021
       6        0.003745319099     0.003452502319    -0.019821983926
       7       -0.000740337697     0.001278245842    -0.000955519097
       8       -0.000040739577     0.000407664442    -0.000264140766
       9       -0.032746792096    -0.001170399778     0.062037379882
      10       -0.000838840919    -0.000091339972    -0.001390801624
      11       -0.002460472409    -0.000062400095    -0.000753010932
      12        0.015173257844     0.008548572828    -0.019177311614
      13        0.014423570129    -0.009550475561    -0.021276689601


*** tstop() called on cx1-3-1-2.cx1.hpc.ic.ac.uk at Fri Sep  2 13:05:04 2016
Module time:
	user time   =      11.31 seconds =       0.19 minutes
	system time =       0.18 seconds =       0.00 minutes
	total time  =          3 seconds =       0.05 minutes
Total time:
	user time   =      43.87 seconds =       0.73 minutes
	system time =       0.64 seconds =       0.01 minutes
	total time  =         15 seconds =       0.25 minutes
CURRENT ENERGY: -321.7260494190

			-----------------------------------------
			 OPTKING 2.0: for geometry optimizations 
			  - R.A. King,  Bethel University        
			-----------------------------------------

	Previous internal coordinate definitions found.
	---Fragment 1 Geometry and Gradient---
	 H           6.4387669532        0.0859309303       -1.5289876057
	 C           5.1214829654       -0.3878851991       -0.0335998452
	 C           2.4238826426        0.2726814233       -0.8235714812
	 H           5.3136118675       -2.3913845053        0.3609964308
	 H           5.6842861043        0.6477069976        1.6459844828
	 C           0.5448839314       -0.2808653582        1.2991106750
	 H           1.8802264095       -0.7913534237       -2.4899962513
	 H           2.2934631809        2.2565941393       -1.3130375408
	 N          -2.0720423606        0.0451287956        0.3407257605
	 H           0.6640373422       -2.2101724653        1.9412374040
	 H           0.7512774820        1.0158313204        2.8594407821
	 O          -3.0674974188       -1.8026918625       -0.4781248833
	 O          -2.6389336606        2.1477132023       -0.2447089118
	             0.0003534511       -0.0000609121        0.0001812634
	             0.0010288571        0.0009176115       -0.0010181581
	             0.0024231861       -0.0036204689        0.0025268332
	            -0.0002425235        0.0000209297       -0.0001468239
	            -0.0000779353       -0.0000695302        0.0000589630
	             0.0037453191        0.0034525023       -0.0198219839
	            -0.0007403377        0.0012782458       -0.0009555191
	            -0.0000407396        0.0004076644       -0.0002641408
	            -0.0327467921       -0.0011703998        0.0620373799
	            -0.0008388409       -0.0000913400       -0.0013908016
	            -0.0024604724       -0.0000624001       -0.0007530109
	             0.0151732578        0.0085485728       -0.0191773116
	             0.0144235701       -0.0095504756       -0.0212766896

	---Fragment 1 Intrafragment Coordinates---
	 - Coordinate -           - BOHR/RAD -       - ANG/DEG -
	 R(1,2)           =         2.048395	       1.083964
	 R(2,3)           =         2.887464	       1.527980
	 R(2,4)           =         2.051007	       1.085346
	 R(2,5)           =         2.051878	       1.085807
	 R(3,6)           =         2.888396	       1.528473
	 R(3,7)           =         2.050537	       1.085098
	 R(3,8)           =         2.047559	       1.083521
	 R(6,9)           =         2.805900	       1.484819
	 R(6,10)          =         2.036848	       1.077854
	 R(6,11)          =         2.039277	       1.079139
	 R(9,12)          =         2.252973	       1.192222
	 R(9,13)          =         2.254986	       1.193287
	 B(1,2,3)         =         1.926396	     110.374335
	 B(1,2,4)         =         1.881957	     107.828176
	 B(1,2,5)         =         1.880147	     107.724468
	 B(2,3,6)         =         1.942128	     111.275730
	 B(2,3,7)         =         1.929780	     110.568231
	 B(2,3,8)         =         1.924705	     110.277468
	 B(3,2,4)         =         1.942951	     111.322865
	 B(3,2,5)         =         1.944146	     111.391380
	 B(3,6,9)         =         1.910749	     109.477854
	 B(3,6,10)        =         1.955357	     112.033714
	 B(3,6,11)        =         1.954763	     111.999655
	 B(4,2,5)         =         1.885817	     108.049365
	 B(6,3,7)         =         1.902142	     108.984700
	 B(6,3,8)         =         1.896451	     108.658634
	 B(6,9,12)        =         2.027437	     116.163604
	 B(6,9,13)        =         2.016916	     115.560781
	 B(7,3,8)         =         1.866715	     106.954913
	 B(9,6,10)        =         1.846564	     105.800302
	 B(9,6,11)        =         1.856527	     106.371172
	 B(10,6,11)       =         1.933876	     110.802908
	 B(12,9,13)       =         2.164342	     124.007677
	 D(1,2,3,6)       =        -3.101483	    -177.701896
	 D(1,2,3,7)       =         1.065229	      61.033147
	 D(1,2,3,8)       =        -0.995642	     -57.046064
	 D(2,3,6,9)       =        -3.005212	    -172.185992
	 D(2,3,6,10)      =        -0.962370	     -55.139735
	 D(2,3,6,11)      =         1.223155	      70.081637
	 D(3,6,9,12)      =         1.606831	      92.064643
	 D(3,6,9,13)      =        -1.146910	     -65.713121
	 D(4,2,3,6)       =         1.092422	      62.591154
	 D(4,2,3,7)       =        -1.024051	     -58.673804
	 D(4,2,3,8)       =        -3.084922	    -176.753014
	 D(5,2,3,6)       =        -1.013697	     -58.080579
	 D(5,2,3,7)       =        -3.130170	    -179.345537
	 D(5,2,3,8)       =         1.092144	      62.575253
	*D(7,3,6,9)       =        -0.872665	     -50.000021
	 D(7,3,6,10)      =         1.170178	      67.046236
	 D(7,3,6,11)      =        -2.927483	    -167.732392
	 D(8,3,6,9)       =         1.155593	      66.210623
	 D(8,3,6,10)      =        -3.084749	    -176.743120
	 D(8,3,6,11)      =        -0.899224	     -51.521748
	 D(10,6,9,12)     =        -0.503381	     -28.841613
	 D(10,6,9,13)     =         3.026063	     173.380623
	 D(11,6,9,12)     =        -2.561009	    -146.734981
	 D(11,6,9,13)     =         0.968435	      55.487255

	Current energy   :      -321.7260494190

	Energy change for the previous step:
		Projected    :        -0.0006078322
		Actual       :         0.0092636668

	Performing BFGS update.
	Previous computed or guess Hessian on step 1.
	Steps to be used in Hessian update: 1
	Taking RFO optimization step.
	Going to follow RFO solution 1.
	Using RFO vector 1.
	Norm of target step-size    0.37677
	Projected energy change by RFO approximation:        -0.0149832425

	Back-transformation to cartesian coordinates...
	Successfully converged to displaced geometry.

	Back-transformation to cartesian coordinates to adjust frozen coordinates...
	Successfully converged to displaced geometry.

	--- Internal Coordinate Step in ANG or DEG, aJ/ANG or AJ/DEG ---
	 ---------------------------------------------------------------------------
	   Coordinate                Previous        Force       Change         New 
	   ----------                --------       ------       ------       ------
	    1 R(1,2)          =      1.083964    -0.000666    -0.000004     1.083961
	    2 R(2,3)          =      1.527980    -0.004566    -0.000171     1.527809
	    3 R(2,4)          =      1.085346     0.000588    -0.000091     1.085255
	    4 R(2,5)          =      1.085807     0.000068     0.000104     1.085911
	    5 R(3,6)          =      1.528473    -0.010398     0.000327     1.528800
	    6 R(3,7)          =      1.085098    -0.002550    -0.000063     1.085034
	    7 R(3,8)          =      1.083521    -0.003796    -0.000163     1.083359
	    8 R(6,9)          =      1.484819     0.038612     0.000818     1.485637
	    9 R(6,10)         =      1.077854     0.003304     0.000066     1.077920
	   10 R(6,11)         =      1.079139     0.007125     0.000158     1.079297
	   11 R(9,12)         =      1.192222     0.055573     0.000486     1.192708
	   12 R(9,13)         =      1.193287     0.057730     0.000480     1.193767
	   13 B(1,2,3)        =    110.374335    -0.000050    -0.026724   110.347611
	   14 B(1,2,4)        =    107.828176     0.000006     0.029345   107.857521
	   15 B(1,2,5)        =    107.724468     0.000014    -0.020880   107.703588
	   16 B(2,3,6)        =    111.275730    -0.000145    -0.007623   111.268107
	   17 B(2,3,7)        =    110.568231     0.000033     0.136547   110.704777
	   18 B(2,3,8)        =    110.277468     0.000048     0.020123   110.297591
	   19 B(3,2,4)        =    111.322865     0.000037    -0.015359   111.307506
	   20 B(3,2,5)        =    111.391380     0.000006     0.034111   111.425491
	   21 B(3,6,9)        =    109.477854    -0.000339    -0.179195   109.298659
	   22 B(3,6,10)       =    112.033714     0.000067    -0.044597   111.989117
	   23 B(3,6,11)       =    111.999655    -0.000005     0.062693   112.062348
	   24 B(4,2,5)        =    108.049365    -0.000013    -0.000228   108.049137
	   25 B(6,3,7)        =    108.984700     0.000023     0.017431   109.002131
	   26 B(6,3,8)        =    108.658634     0.000053    -0.008286   108.650348
	   27 B(6,9,12)       =    116.163604     0.000559     1.441658   117.605262
	   28 B(6,9,13)       =    115.560781     0.000677     1.469362   117.030143
	   29 B(7,3,8)        =    106.954913    -0.000006    -0.166486   106.788427
	   30 B(9,6,10)       =    105.800302     0.000136    -0.039764   105.760538
	   31 B(9,6,11)       =    106.371172     0.000229     0.279700   106.650872
	   32 B(10,6,11)      =    110.802908    -0.000078    -0.071237   110.731671
	   33 B(12,9,13)      =    124.007677    -0.000148     1.156967   125.164644
	   34 D(1,2,3,6)      =   -177.701896    -0.000004     0.126085  -177.575811
	   35 D(1,2,3,7)      =     61.033147     0.000007     0.015609    61.048755
	   36 D(1,2,3,8)      =    -57.046064    -0.000003     0.124124   -56.921940
	   37 D(2,3,6,9)      =   -172.185992     0.000009    -0.178363  -172.364355
	   38 D(2,3,6,10)     =    -55.139735     0.000007    -0.367556   -55.507292
	   39 D(2,3,6,11)     =     70.081637    -0.000006    -0.448279    69.633358
	   40 D(3,6,9,12)     =     92.064643     0.000297     8.363052   100.427695
	   41 D(3,6,9,13)     =    -65.713121    -0.000310    -8.989430   -74.702551
	   42 D(4,2,3,6)      =     62.591154    -0.000003     0.116909    62.708063
	   43 D(4,2,3,7)      =    -58.673804     0.000007     0.006433   -58.667371
	   44 D(4,2,3,8)      =   -176.753014    -0.000003     0.114949  -176.638066
	   45 D(5,2,3,6)      =    -58.080579    -0.000007     0.104347   -57.976232
	   46 D(5,2,3,7)      =   -179.345537     0.000004    -0.006129  -179.351665
	   47 D(5,2,3,8)      =     62.575253    -0.000006     0.102387    62.677640
	   48 *D(7,3,6,9)     =    -50.000021    -0.000000    -0.000000   -50.000021
	   49 D(7,3,6,10)     =     67.046236    -0.000002    -0.189194    66.857042
	   50 D(7,3,6,11)     =   -167.732392    -0.000014    -0.269916  -168.002308
	   51 D(8,3,6,9)      =     66.210623     0.000008    -0.193107    66.017516
	   52 D(8,3,6,10)     =   -176.743120     0.000006    -0.382300  -177.125421
	   53 D(8,3,6,11)     =    -51.521748    -0.000006    -0.463023   -51.984771
	   54 D(10,6,9,12)    =    -28.841613     0.000303     8.535682   -20.305932
	   55 D(10,6,9,13)    =    173.380623    -0.000304    -8.816801   164.563822
	   56 D(11,6,9,12)    =   -146.734981     0.000284     8.503305  -138.231676
	   57 D(11,6,9,13)    =     55.487255    -0.000324    -8.849177    46.638077
	 ---------------------------------------------------------------------------

  ==> Convergence Check <==

  Measures of convergence in internal coordinates in au.
  Criteria marked as inactive (o), active & met (*), and active & unmet ( ).
  ---------------------------------------------------------------------------------------------
   Step     Total Energy     Delta E     MAX Force     RMS Force      MAX Disp      RMS Disp   
  ---------------------------------------------------------------------------------------------
    Convergence Criteria    1.00e-06 *    3.00e-04 *             o    1.20e-03 *             o
  ---------------------------------------------------------------------------------------------
      2    -321.72604942    9.26e-03      1.86e-02      6.10e-03 o    1.57e-01      4.95e-02 o  ~
  ---------------------------------------------------------------------------------------------

	Writing optimization data to binary file.
	Structure for next step:
	Cartesian Geometry (in Angstrom)
	    H     3.4339335095   0.0452095806  -0.7882049156
	    C     2.7239985971  -0.2048964188  -0.0081983774
	    C     1.3035490663   0.1410763998  -0.4518502741
	    H     2.8234883441  -1.2643158287   0.2051335358
	    H     3.0061230106   0.3459324949   0.8840999940
	    C     0.2906270509  -0.1479471785   0.6561589583
	    H     1.0297959034  -0.4237541769  -1.3369070235
	    H     1.2374425531   1.1894452363  -0.7168385540
	    N    -1.0846129839   0.0260187019   0.1217745800
	    H     0.3453929791  -1.1691868160   0.9967195621
	    H     0.3894651047   0.5368557979   1.4845057644
	    O    -1.6870775673  -0.9568125297  -0.1842197341
	    O    -1.4624803916   1.1453546542  -0.0496382462
			--------------------------
			 OPTKING Finished Execution 
			--------------------------

    Structure for next step:
    Molecular point group: c1
    Full point group: C1

    Geometry (in Angstrom), charge = 0, multiplicity = 1:

    H            3.449487941421     0.044162409633    -0.800021138687
    C            2.739553083175    -0.205943570661    -0.020014660104
    C            1.319103660891     0.140029221532    -0.463666522888
    H            2.839042822662    -1.265362899680     0.193317236871
    H            3.021677475186     0.344885301005     0.872283643165
    C            0.306181722879    -0.148994334714     0.644342624941
    H            1.045350518904    -0.424801312077    -1.348723204719
    H            1.252997152694     1.188397977920    -0.728654782574
    N           -1.069058206918     0.024971532382     0.109958287465
    H            0.360947646851    -1.170233894179     0.984903202733
    H            0.405019769064     0.535808589398     1.472689367749
    O           -1.671522744301    -0.957859624174    -0.196036003283
    O           -1.446925585777     1.144307399200    -0.061454525676

gradient() will perform analytic gradient computation.

*** tstart() called on cx1-3-1-2.cx1.hpc.ic.ac.uk
*** at Fri Sep  2 13:05:05 2016


         ---------------------------------------------------------
                                   SCF
            by Justin Turney, Rob Parrish, and Andy Simmonett
                              RHF Reference
                        4 Threads,   2000 MiB Core
         ---------------------------------------------------------

  ==> Geometry <==

    Molecular point group: c1
    Full point group: C1

    Geometry (in Angstrom), charge = 0, multiplicity = 1:

       Center              X                  Y                   Z               Mass       
    ------------   -----------------  -----------------  -----------------  -----------------
           H          3.449487941421     0.044162409633    -0.800021138687     1.007825032070
           C          2.739553083175    -0.205943570661    -0.020014660104    12.000000000000
           C          1.319103660891     0.140029221532    -0.463666522888    12.000000000000
           H          2.839042822662    -1.265362899680     0.193317236871     1.007825032070
           H          3.021677475186     0.344885301005     0.872283643165     1.007825032070
           C          0.306181722879    -0.148994334714     0.644342624941    12.000000000000
           H          1.045350518904    -0.424801312077    -1.348723204719     1.007825032070
           H          1.252997152694     1.188397977920    -0.728654782574     1.007825032070
           N         -1.069058206918     0.024971532382     0.109958287465    14.003074004780
           H          0.360947646851    -1.170233894179     0.984903202733     1.007825032070
           H          0.405019769064     0.535808589398     1.472689367749     1.007825032070
           O         -1.671522744301    -0.957859624174    -0.196036003283    15.994914619560
           O         -1.446925585777     1.144307399200    -0.061454525676    15.994914619560

  Running in c1 symmetry.

  Rotational constants: A =      0.29724  B =      0.06631  C =      0.06016 [cm^-1]
  Rotational constants: A =   8911.15326  B =   1987.81498  C =   1803.49459 [MHz]
  Nuclear repulsion =  247.530294901011729

  Charge       = 0
  Multiplicity = 1
  Electrons    = 48
  Nalpha       = 24
  Nbeta        = 24

  ==> Algorithm <==

  SCF Algorithm Type is DF.
  DIIS enabled.
  MOM disabled.
  Fractional occupation disabled.
  Guess Type is READ.
  Energy threshold   = 1.00e-08
  Density threshold  = 1.00e-08
  Integral threshold = 0.00e+00

  ==> Primary Basis <==

  Basis Set: 6-31G*
    Number of shells: 50
    Number of basis function: 104
    Number of Cartesian functions: 104
    Spherical Harmonics?: false
    Max angular momentum: 2

  ==> Pre-Iterations <==

   -------------------------------------------------------
    Irrep   Nso     Nmo     Nalpha   Nbeta   Ndocc  Nsocc
   -------------------------------------------------------
     A        104     104       0       0       0       0
   -------------------------------------------------------
    Total     104     104      24      24      24       0
   -------------------------------------------------------

 OEINTS: Overlap, kinetic, potential, dipole, and quadrupole integrals
         stored in file 35.

  ==> Integral Setup <==

  ==> DFJK: Density-Fitted J/K Matrices <==

    J tasked:                  Yes
    K tasked:                  Yes
    wK tasked:                  No
    OpenMP threads:              4
    Integrals threads:           4
    Memory (MB):              1430
    Algorithm:                Core
    Integral Cache:           NONE
    Schwarz Cutoff:          1E-12
    Fitting Condition:       1E-12

   => Auxiliary Basis Set <=

  Basis Set: 
    Number of shells: 207
    Number of basis function: 661
    Number of Cartesian functions: 661
    Spherical Harmonics?: false
    Max angular momentum: 3

  Minimum eigenvalue in the overlap matrix is 3.1841440766E-03.
  Using Symmetric Orthogonalization.
  SCF Guess: Reading in previously saved MOs, projecting if necessary.

  Using orbitals from previous SCF, no projection.
  Recomputing DOCC and SOCC from number of alpha and beta electrons from previous calculation.
              A 
    DOCC [    24 ]

  ==> Iterations <==

                           Total Energy        Delta E     RMS |[F,P]|

   @DF-RHF iter   0:  -321.67599858742301   -3.21676e+02   3.32568e-03 
   @DF-RHF iter   1:  -321.73068473676562   -5.46861e-02   5.94324e-04 
   @DF-RHF iter   2:  -321.73418921184293   -3.50448e-03   2.49871e-04 DIIS
   @DF-RHF iter   3:  -321.73482966653455   -6.40455e-04   1.21811e-04 DIIS
   @DF-RHF iter   4:  -321.73503840131139   -2.08735e-04   5.10812e-05 DIIS
   @DF-RHF iter   5:  -321.73507964276985   -4.12415e-05   2.91002e-05 DIIS
   @DF-RHF iter   6:  -321.73511006453100   -3.04218e-05   1.04514e-05 DIIS
   @DF-RHF iter   7:  -321.73511307208241   -3.00755e-06   4.30236e-06 DIIS
   @DF-RHF iter   8:  -321.73511324112883   -1.69046e-07   1.19400e-06 DIIS
   @DF-RHF iter   9:  -321.73511325211348   -1.09846e-08   3.81551e-07 DIIS
   @DF-RHF iter  10:  -321.73511325401159   -1.89812e-09   1.04780e-07 DIIS
   @DF-RHF iter  11:  -321.73511325419645   -1.84855e-10   2.85897e-08 DIIS
   @DF-RHF iter  12:  -321.73511325420895   -1.25056e-11   1.04150e-08 DIIS
   @DF-RHF iter  13:  -321.73511325421157   -2.61480e-12   4.62285e-09 DIIS

  ==> Post-Iterations <==

    Orbital Energies (a.u.)
    -----------------------

    Doubly Occupied:                                                      

       1A    -20.601526     2A    -20.599125     3A    -15.846752  
       4A    -11.299761     5A    -11.257083     6A    -11.240097  
       7A     -1.630103     8A     -1.414943     9A     -1.135207  
      10A     -1.028478    11A     -0.884482    12A     -0.832869  
      13A     -0.758293    14A     -0.734537    15A     -0.722851  
      16A     -0.670506    17A     -0.605076    18A     -0.589541  
      19A     -0.550121    20A     -0.522052    21A     -0.513991  
      22A     -0.483120    23A     -0.474207    24A     -0.447479  

    Virtual:                                                              

      25A      0.119938    26A      0.214929    27A      0.253260  
      28A      0.263147    29A      0.282521    30A      0.301464  
      31A      0.316963    32A      0.319766    33A      0.354502  
      34A      0.387796    35A      0.392999    36A      0.540141  
      37A      0.606979    38A      0.691145    39A      0.701461  
      40A      0.711894    41A      0.743751    42A      0.782037  
      43A      0.811873    44A      0.889111    45A      0.893690  
      46A      0.934264    47A      0.978037    48A      1.039996  
      49A      1.071423    50A      1.084017    51A      1.096736  
      52A      1.108323    53A      1.124050    54A      1.157387  
      55A      1.163692    56A      1.174581    57A      1.197959  
      58A      1.228834    59A      1.246941    60A      1.278545  
      61A      1.292995    62A      1.303062    63A      1.381976  
      64A      1.434257    65A      1.518081    66A      1.598575  
      67A      1.667249    68A      1.693751    69A      1.761626  
      70A      1.807976    71A      1.935409    72A      1.982590  
      73A      2.047962    74A      2.109026    75A      2.128911  
      76A      2.135499    77A      2.197670    78A      2.212200  
      79A      2.238560    80A      2.243425    81A      2.304688  
      82A      2.316255    83A      2.417417    84A      2.468820  
      85A      2.512763    86A      2.562603    87A      2.652300  
      88A      2.662487    89A      2.707012    90A      2.767899  
      91A      2.852574    92A      2.955227    93A      3.042980  
      94A      3.080506    95A      3.232194    96A      3.241715  
      97A      3.274222    98A      3.485063    99A      4.113131  
     100A      4.245618   101A      4.268244   102A      4.581029  
     103A      4.722462   104A      4.910566  

    Final Occupation by Irrep:
              A 
    DOCC [    24 ]

  Energy converged.

  @DF-RHF Final Energy:  -321.73511325421157

   => Energetics <=

    Nuclear Repulsion Energy =            247.5302949010117288
    One-Electron Energy =                -928.8464175965821141
    Two-Electron Energy =                 359.5810094413589013
    DFT Exchange-Correlation Energy =       0.0000000000000000
    Empirical Dispersion Energy =           0.0000000000000000
    PCM Polarization Energy =               0.0000000000000000
    EFP Energy =                            0.0000000000000000
    Total Energy =                       -321.7351132542114556

    Alert: EFP and PCM quantities not currently incorporated into SCF psivars.

Properties will be evaluated at   0.000000,   0.000000,   0.000000 Bohr
  ==> Properties <==


Properties computed using the SCF density matrix

  Nuclear Dipole Moment: (a.u.)
     X:    11.5889      Y:    -0.6996      Z:     0.6039

  Electronic Dipole Moment: (a.u.)
     X:    -9.9550      Y:     0.5364      Z:    -0.1099

  Dipole Moment: (a.u.)
     X:     1.6339      Y:    -0.1632      Z:     0.4939     Total:     1.7147

  Dipole Moment: (Debye)
     X:     4.1529      Y:    -0.4148      Z:     1.2554     Total:     4.3583


  Saving occupied orbitals to File 180.

*** tstop() called on cx1-3-1-2.cx1.hpc.ic.ac.uk at Fri Sep  2 13:05:09 2016
Module time:
	user time   =      11.39 seconds =       0.19 minutes
	system time =       0.17 seconds =       0.00 minutes
	total time  =          4 seconds =       0.07 minutes
Total time:
	user time   =      55.90 seconds =       0.93 minutes
	system time =       0.81 seconds =       0.01 minutes
	total time  =         20 seconds =       0.33 minutes

*** tstart() called on cx1-3-1-2.cx1.hpc.ic.ac.uk
*** at Fri Sep  2 13:05:09 2016


         ------------------------------------------------------------
                                   SCF GRAD                          
                          Rob Parrish, Justin Turney,                
                       Andy Simmonett, and Alex Sokolov              
         ------------------------------------------------------------

  ==> Geometry <==

    Molecular point group: c1
    Full point group: C1

    Geometry (in Angstrom), charge = 0, multiplicity = 1:

       Center              X                  Y                   Z               Mass       
    ------------   -----------------  -----------------  -----------------  -----------------
           H          3.449487941421     0.044162409633    -0.800021138687     1.007825032070
           C          2.739553083175    -0.205943570661    -0.020014660104    12.000000000000
           C          1.319103660891     0.140029221532    -0.463666522888    12.000000000000
           H          2.839042822662    -1.265362899680     0.193317236871     1.007825032070
           H          3.021677475186     0.344885301005     0.872283643165     1.007825032070
           C          0.306181722879    -0.148994334714     0.644342624941    12.000000000000
           H          1.045350518904    -0.424801312077    -1.348723204719     1.007825032070
           H          1.252997152694     1.188397977920    -0.728654782574     1.007825032070
           N         -1.069058206918     0.024971532382     0.109958287465    14.003074004780
           H          0.360947646851    -1.170233894179     0.984903202733     1.007825032070
           H          0.405019769064     0.535808589398     1.472689367749     1.007825032070
           O         -1.671522744301    -0.957859624174    -0.196036003283    15.994914619560
           O         -1.446925585777     1.144307399200    -0.061454525676    15.994914619560

  Nuclear repulsion =  247.530294901011729

  ==> Basis Set <==

  Basis Set: 6-31G*
    Number of shells: 50
    Number of basis function: 104
    Number of Cartesian functions: 104
    Spherical Harmonics?: false
    Max angular momentum: 2

  ==> DFJKGrad: Density-Fitted SCF Gradients <==

    Gradient:                    1
    J tasked:                  Yes
    K tasked:                  Yes
    wK tasked:                  No
    OpenMP threads:              4
    Integrals threads:           4
    Memory (MB):              1430
    Schwarz Cutoff:          0E+00
    Fitting Condition:       1E-12

   => Auxiliary Basis Set <=

  Basis Set: 
    Number of shells: 207
    Number of basis function: 661
    Number of Cartesian functions: 661
    Spherical Harmonics?: false
    Max angular momentum: 3


  -Total Gradient:
     Atom            X                  Y                   Z
    ------   -----------------  -----------------  -----------------
       1        0.000046254235     0.000104380883     0.000032252723
       2        0.000391644509     0.000439696719     0.000212381497
       3        0.001220956183    -0.003292078701     0.000120151148
       4       -0.000143713809     0.000055366240    -0.000144380905
       5        0.000160771205    -0.000077386221     0.000128229456
       6        0.001060543291     0.003412614066    -0.001087723845
       7       -0.001065575162     0.001749438745    -0.000743497558
       8       -0.000024019633    -0.000305793263    -0.000152893457
       9       -0.002035766684    -0.001815387664     0.009749075284
      10       -0.000215237117    -0.000036325986    -0.000509855067
      11        0.000176379481    -0.000384996393     0.000338116121
      12        0.000122195117     0.000293539067    -0.003880526191
      13        0.000305568382    -0.000143067492    -0.004061329206


*** tstop() called on cx1-3-1-2.cx1.hpc.ic.ac.uk at Fri Sep  2 13:05:12 2016
Module time:
	user time   =      11.63 seconds =       0.19 minutes
	system time =       0.17 seconds =       0.00 minutes
	total time  =          3 seconds =       0.05 minutes
Total time:
	user time   =      67.56 seconds =       1.13 minutes
	system time =       0.98 seconds =       0.02 minutes
	total time  =         23 seconds =       0.38 minutes
CURRENT ENERGY: -321.7351132542

			-----------------------------------------
			 OPTKING 2.0: for geometry optimizations 
			  - R.A. King,  Bethel University        
			-----------------------------------------

	Previous internal coordinate definitions found.
	---Fragment 1 Geometry and Gradient---
	 H           6.5185875080        0.0834548596       -1.5118208526
	 C           5.1770050537       -0.3891769474       -0.0378222262
	 C           2.4927446600        0.2646168793       -0.8762027452
	 H           5.3650134144       -2.3911893391        0.3653166345
	 H           5.7101428900        0.6517387662        1.6483771958
	 C           0.5785996031       -0.2815584880        1.2176310969
	 H           1.9754261936       -0.8027581407       -2.5487174860
	 H           2.3678214639        2.2457467151       -1.3769579845
	 N          -2.0202272312        0.0471893573        0.2077910493
	 H           0.6820922009       -2.2114215714        1.8611973206
	 H           0.7653764419        1.0125314936        2.7829795839
	 O          -3.1587202116       -1.8100923634       -0.3704543584
	 O          -2.7342930918        2.1624275963       -0.1161322232
	             0.0000462542        0.0001043809        0.0000322527
	             0.0003916445        0.0004396967        0.0002123815
	             0.0012209562       -0.0032920787        0.0001201511
	            -0.0001437138        0.0000553662       -0.0001443809
	             0.0001607712       -0.0000773862        0.0001282295
	             0.0010605433        0.0034126141       -0.0010877238
	            -0.0010655752        0.0017494387       -0.0007434976
	            -0.0000240196       -0.0003057933       -0.0001528935
	            -0.0020357667       -0.0018153877        0.0097490753
	            -0.0002152371       -0.0000363260       -0.0005098551
	             0.0001763795       -0.0003849964        0.0003381161
	             0.0001221951        0.0002935391       -0.0038805262
	             0.0003055684       -0.0001430675       -0.0040613292

	---Fragment 1 Intrafragment Coordinates---
	 - Coordinate -           - BOHR/RAD -       - ANG/DEG -
	 R(1,2)           =         2.048389	       1.083961
	 R(2,3)           =         2.887141	       1.527809
	 R(2,4)           =         2.050834	       1.085255
	 R(2,5)           =         2.052075	       1.085911
	 R(3,6)           =         2.889013	       1.528800
	 R(3,7)           =         2.050418	       1.085034
	 R(3,8)           =         2.047251	       1.083359
	 R(6,9)           =         2.807446	       1.485637
	 R(6,10)          =         2.036973	       1.077920
	 R(6,11)          =         2.039576	       1.079297
	 R(9,12)          =         2.253892	       1.192708
	 R(9,13)          =         2.255892	       1.193767
	 B(1,2,3)         =         1.925929	     110.347611
	 B(1,2,4)         =         1.882469	     107.857521
	 B(1,2,5)         =         1.879782	     107.703588
	 B(2,3,6)         =         1.941995	     111.268107
	 B(2,3,7)         =         1.932163	     110.704777
	 B(2,3,8)         =         1.925056	     110.297591
	 B(3,2,4)         =         1.942682	     111.307506
	 B(3,2,5)         =         1.944742	     111.425491
	 B(3,6,9)         =         1.907621	     109.298659
	 B(3,6,10)        =         1.954579	     111.989117
	 B(3,6,11)        =         1.955857	     112.062348
	 B(4,2,5)         =         1.885813	     108.049137
	 B(6,3,7)         =         1.902446	     109.002131
	 B(6,3,8)         =         1.896306	     108.650348
	 B(6,9,12)        =         2.052599	     117.605262
	 B(6,9,13)        =         2.042561	     117.030143
	 B(7,3,8)         =         1.863810	     106.788427
	 B(9,6,10)        =         1.845870	     105.760538
	 B(9,6,11)        =         1.861409	     106.650872
	 B(10,6,11)       =         1.932632	     110.731671
	 B(12,9,13)       =         2.184535	     125.164644
	 D(1,2,3,6)       =        -3.099283	    -177.575811
	 D(1,2,3,7)       =         1.065502	      61.048755
	 D(1,2,3,8)       =        -0.993475	     -56.921940
	 D(2,3,6,9)       =        -3.008326	    -172.364355
	 D(2,3,6,10)      =        -0.968785	     -55.507292
	 D(2,3,6,11)      =         1.215331	      69.633358
	 D(3,6,9,12)      =         1.752794	     100.427695
	 D(3,6,9,13)      =        -1.303805	     -74.702551
	 D(4,2,3,6)       =         1.094462	      62.708063
	 D(4,2,3,7)       =        -1.023939	     -58.667371
	 D(4,2,3,8)       =        -3.082916	    -176.638066
	 D(5,2,3,6)       =        -1.011876	     -57.976232
	 D(5,2,3,7)       =        -3.130277	    -179.351665
	 D(5,2,3,8)       =         1.093931	      62.677640
	*D(7,3,6,9)       =        -0.872665	     -50.000021
	 D(7,3,6,10)      =         1.166876	      66.857042
	 D(7,3,6,11)      =        -2.932193	    -168.002308
	 D(8,3,6,9)       =         1.152223	      66.017516
	 D(8,3,6,10)      =        -3.091422	    -177.125421
	 D(8,3,6,11)      =        -0.907305	     -51.984771
	 D(10,6,9,12)     =        -0.354405	     -20.305932
	 D(10,6,9,13)     =         2.872181	     164.563822
	 D(11,6,9,12)     =        -2.412598	    -138.231676
	 D(11,6,9,13)     =         0.813988	      46.638077

	Current energy   :      -321.7351132542

	Energy change for the previous step:
		Projected    :        -0.0149832425
		Actual       :        -0.0090638352

	Performing BFGS update.
	Previous computed or guess Hessian on step 1.
	Steps to be used in Hessian update: 2 1
	Taking RFO optimization step.
	Going to follow RFO solution 1.
	Using RFO vector 1.
	Norm of target step-size    0.09323
	Projected energy change by RFO approximation:        -0.0009150611

	Back-transformation to cartesian coordinates...
	Successfully converged to displaced geometry.

	Back-transformation to cartesian coordinates to adjust frozen coordinates...
	Successfully converged to displaced geometry.

	--- Internal Coordinate Step in ANG or DEG, aJ/ANG or AJ/DEG ---
	 ---------------------------------------------------------------------------
	   Coordinate                Previous        Force       Change         New 
	   ----------                --------       ------       ------       ------
	    1 R(1,2)          =      1.083961    -0.000257     0.000009     1.083969
	    2 R(2,3)          =      1.527809    -0.003058     0.000030     1.527839
	    3 R(2,4)          =      1.085255     0.000788     0.000026     1.085281
	    4 R(2,5)          =      1.085911    -0.000889    -0.000050     1.085862
	    5 R(3,6)          =      1.528800    -0.004405     0.000097     1.528897
	    6 R(3,7)          =      1.085034     0.000292     0.000089     1.085123
	    7 R(3,8)          =      1.083359     0.002118     0.000205     1.083564
	    8 R(6,9)          =      1.485637    -0.005302    -0.001413     1.484223
	    9 R(6,10)         =      1.077920     0.001134    -0.000054     1.077866
	   10 R(6,11)         =      1.079297    -0.000259    -0.000221     1.079076
	   11 R(9,12)         =      1.192708    -0.005701    -0.000641     1.192067
	   12 R(9,13)         =      1.193767    -0.002902    -0.000627     1.193140
	   13 B(1,2,3)        =    110.347611    -0.000002     0.041877   110.389487
	   14 B(1,2,4)        =    107.857521    -0.000007    -0.004710   107.852812
	   15 B(1,2,5)        =    107.703588     0.000009     0.003499   107.707087
	   16 B(2,3,6)        =    111.268107    -0.000007     0.106649   111.374755
	   17 B(2,3,7)        =    110.704777     0.000002     0.046788   110.751565
	   18 B(2,3,8)        =    110.297591     0.000012    -0.016575   110.281016
	   19 B(3,2,4)        =    111.307506     0.000022    -0.004308   111.303198
	   20 B(3,2,5)        =    111.425491    -0.000023    -0.034598   111.390894
	   21 B(3,6,9)        =    109.298659     0.000003     0.182586   109.481246
	   22 B(3,6,10)       =    111.989117     0.000010    -0.001585   111.987532
	   23 B(3,6,11)       =    112.062348    -0.000012     0.046368   112.108716
[...]
           H          0.397638045963     0.538740057141     1.458574610122     1.007825032070
           O         -1.677793474677    -0.961512167435    -0.182360179793    15.994914619560
           O         -1.453558543948     1.142780589113    -0.047600670557    15.994914619560

  Nuclear repulsion =  247.443106110193099

  ==> Basis Set <==

  Basis Set: 6-31G*
    Number of shells: 50
    Number of basis function: 104
    Number of Cartesian functions: 104
    Spherical Harmonics?: false
    Max angular momentum: 2

  ==> DFJKGrad: Density-Fitted SCF Gradients <==

    Gradient:                    1
    J tasked:                  Yes
    K tasked:                  Yes
    wK tasked:                  No
    OpenMP threads:              4
    Integrals threads:           4
    Memory (MB):              1430
    Schwarz Cutoff:          0E+00
    Fitting Condition:       1E-12

   => Auxiliary Basis Set <=

  Basis Set: 
    Number of shells: 207
    Number of basis function: 661
    Number of Cartesian functions: 661
    Spherical Harmonics?: false
    Max angular momentum: 3


  -Total Gradient:
     Atom            X                  Y                   Z
    ------   -----------------  -----------------  -----------------
       1       -0.000001511236     0.000002749119     0.000000952262
       2       -0.000006371993     0.000003115109    -0.000001109212
       3        0.001184971396    -0.001991453511     0.000570919550
       4        0.000014021005    -0.000007178691    -0.000009647506
       5       -0.000016689413    -0.000007377108    -0.000001336024
       6       -0.000170716545     0.001849656491     0.000281871101
       7       -0.000965436175     0.001294156842    -0.000531805768
       8        0.000002879205     0.000005841362     0.000002878858
       9       -0.000018140547    -0.001154439891    -0.000234705266
      10        0.000023896315     0.000009690724     0.000014580569
      11       -0.000011609952     0.000011664463    -0.000005706437
      12       -0.000015725507     0.000015905813    -0.000043327274
      13       -0.000019566548    -0.000032330723    -0.000043564854


*** tstop() called on cx1-3-1-2.cx1.hpc.ic.ac.uk at Fri Sep  2 13:05:40 2016
Module time:
	user time   =      11.31 seconds =       0.19 minutes
	system time =       0.11 seconds =       0.00 minutes
	total time  =          3 seconds =       0.05 minutes
Total time:
	user time   =     155.51 seconds =       2.59 minutes
	system time =       2.07 seconds =       0.03 minutes
	total time  =         51 seconds =       0.85 minutes
CURRENT ENERGY: -321.7353438592

			-----------------------------------------
			 OPTKING 2.0: for geometry optimizations 
			  - R.A. King,  Bethel University        
			-----------------------------------------

	Previous internal coordinate definitions found.
	---Fragment 1 Geometry and Gradient---
	 H           6.5295115939        0.0576470656       -1.5181789988
	 C           5.1833087429       -0.3892450035       -0.0404491899
	 C           2.5055678949        0.2790812021       -0.8850973010
	 H           5.3566705281       -2.3884761009        0.3836953643
	 H           5.7224215306        0.6649814676        1.6352799038
	 C           0.5818976858       -0.2819752512        1.1939872293
	 H           1.9970630702       -0.7818990098       -2.5649596868
	 H           2.3865064806        2.2643388030       -1.3730495457
	 N          -2.0153335874        0.0437012766        0.1826207527
	 H           0.6928539053       -2.2092118738        1.8440624334
	 H           0.7514270069        1.0180711648        2.7563065575
	 O          -3.1705701747       -1.8169946699       -0.3446107974
	 O          -2.7468275662        2.1595423434       -0.0899522311
	            -0.0000015112        0.0000027491        0.0000009523
	            -0.0000063720        0.0000031151       -0.0000011092
	             0.0011849714       -0.0019914535        0.0005709195
	             0.0000140210       -0.0000071787       -0.0000096475
	            -0.0000166894       -0.0000073771       -0.0000013360
	            -0.0001707165        0.0018496565        0.0002818711
	            -0.0009654362        0.0012941568       -0.0005318058
	             0.0000028792        0.0000058414        0.0000028789
	            -0.0000181405       -0.0011544399       -0.0002347053
	             0.0000238963        0.0000096907        0.0000145806
	            -0.0000116100        0.0000116645       -0.0000057064
	            -0.0000157255        0.0000159058       -0.0000433273
	            -0.0000195665       -0.0000323307       -0.0000435649

	---Fragment 1 Intrafragment Coordinates---
	 - Coordinate -           - BOHR/RAD -       - ANG/DEG -
	 R(1,2)           =         2.048331	       1.083930
	 R(2,3)           =         2.886241	       1.527333
	 R(2,4)           =         2.051068	       1.085378
	 R(2,5)           =         2.051854	       1.085794
	 R(3,6)           =         2.887539	       1.528020
	 R(3,7)           =         2.050901	       1.085290
	 R(3,8)           =         2.047809	       1.083654
	 R(6,9)           =         2.806161	       1.484956
	 R(6,10)          =         2.036946	       1.077906
	 R(6,11)          =         2.039535	       1.079275
	 R(9,12)          =         2.252717	       1.192087
	 R(9,13)          =         2.255252	       1.193428
	 B(1,2,3)         =         1.926338	     110.371063
	 B(1,2,4)         =         1.882096	     107.836162
	 B(1,2,5)         =         1.880114	     107.722626
	 B(2,3,6)         =         1.941604	     111.245718
	 B(2,3,7)         =         1.928308	     110.483886
	 B(2,3,8)         =         1.926399	     110.374547
	 B(3,2,4)         =         1.944040	     111.385286
	 B(3,2,5)         =         1.943134	     111.333361
	 B(3,6,9)         =         1.911918	     109.544816
	 B(3,6,10)        =         1.957715	     112.168828
	 B(3,6,11)        =         1.952303	     111.858718
	 B(4,2,5)         =         1.885689	     108.042009
	 B(6,3,7)         =         1.900816	     108.908725
	 B(6,3,8)         =         1.897793	     108.735550
	 B(6,9,12)        =         2.052317	     117.589124
	 B(6,9,13)        =         2.040526	     116.913519
	 B(7,3,8)         =         1.867045	     106.973825
	 B(9,6,10)        =         1.849641	     105.976604
	 B(9,6,11)        =         1.853585	     106.202609
	 B(10,6,11)       =         1.932743	     110.738008
	 B(12,9,13)       =         2.189893	     125.471602
	 D(1,2,3,6)       =        -3.119684	    -178.744700
	 D(1,2,3,7)       =         1.050064	      60.164242
	 D(1,2,3,8)       =        -1.011356	     -57.946442
	 D(2,3,6,9)       =        -3.002132	    -172.009467
	 D(2,3,6,10)      =        -0.953299	     -54.620031
	 D(2,3,6,11)      =         1.230635	      70.510176
	 D(3,6,9,12)      =         1.786389	     102.352567
	 D(3,6,9,13)      =        -1.324767	     -75.903552
	 D(4,2,3,6)       =         1.073375	      61.499858
	 D(4,2,3,7)       =        -1.040063	     -59.591200
	 D(4,2,3,8)       =        -3.101483	    -177.701884
	 D(5,2,3,6)       =        -1.032633	     -59.165528
	 D(5,2,3,7)       =         3.137114	     179.743414
	 D(5,2,3,8)       =         1.075694	      61.632730
	*D(7,3,6,9)       =        -0.872665	     -50.000021
	 D(7,3,6,10)      =         1.176167	      67.389416
	 D(7,3,6,11)      =        -2.923084	    -167.480378
	 D(8,3,6,9)       =         1.155999	      66.233877
	 D(8,3,6,10)      =        -3.078354	    -176.376686
	 D(8,3,6,11)      =        -0.894420	     -51.246480
	 D(10,6,9,12)     =        -0.329074	     -18.854566
	 D(10,6,9,13)     =         2.842955	     162.889315
	 D(11,6,9,12)     =        -2.385482	    -136.678075
	 D(11,6,9,13)     =         0.786547	      45.065806

	Current energy   :      -321.7353438592

	Energy change for the previous step:
		Projected    :        -0.0000090682
		Actual       :        -0.0000008548
	Energy ratio indicates iffy step: Trust radius decreased to 7.812e-03.


	Performing BFGS update.
	Previous computed or guess Hessian on step 1.
	Steps to be used in Hessian update: 6 5
	Taking RFO optimization step.
	Going to follow RFO solution 1.
	Using RFO vector 1.

	Determining step-restricting scale parameter for RS-RFO.
	Maximum step size allowed    0.00781

	 Iter      |step|        alpha        rfo_root  
	------------------------------------------------
	    0     0.01126       1.00000           1
	    1     0.00906     607.62867           1
	    2     0.00809    1139.91817           1
	    3     0.00783    1337.75848           1
	    4     0.00781    1354.27751           1
	------------------------------------------------
	Norm of target step-size    0.00781
	Projected energy change by RFO approximation:        -0.0000005348

	Back-transformation to cartesian coordinates...
	Successfully converged to displaced geometry.

	Back-transformation to cartesian coordinates to adjust frozen coordinates...
	Successfully converged to displaced geometry.

	--- Internal Coordinate Step in ANG or DEG, aJ/ANG or AJ/DEG ---
	 ---------------------------------------------------------------------------
	   Coordinate                Previous        Force       Change         New 
	   ----------                --------       ------       ------       ------
	    1 R(1,2)          =      1.083930     0.000009     0.000002     1.083932
	    2 R(2,3)          =      1.527333     0.000091     0.000014     1.527347
	    3 R(2,4)          =      1.085378    -0.000051    -0.000005     1.085373
	    4 R(2,5)          =      1.085794     0.000076     0.000008     1.085803
	    5 R(3,6)          =      1.528020     0.000141     0.000021     1.528041
	    6 R(3,7)          =      1.085290    -0.000045    -0.000010     1.085280
	    7 R(3,8)          =      1.083654    -0.000040     0.000001     1.083655
	    8 R(6,9)          =      1.484956    -0.000243    -0.000024     1.484932
	    9 R(6,10)         =      1.077906     0.000026     0.000007     1.077913
	   10 R(6,11)         =      1.079275    -0.000017    -0.000010     1.079265
	   11 R(9,12)         =      1.192087    -0.000042    -0.000008     1.192078
	   12 R(9,13)         =      1.193428     0.000154     0.000003     1.193432
	   13 B(1,2,3)        =    110.371063     0.000000     0.001056   110.372118
	   14 B(1,2,4)        =    107.836162     0.000001     0.002188   107.838350
	   15 B(1,2,5)        =    107.722626    -0.000001    -0.001687   107.720938
	   16 B(2,3,6)        =    111.245718    -0.000001     0.000357   111.246075
	   17 B(2,3,7)        =    110.483886    -0.000000     0.003642   110.487528
	   18 B(2,3,8)        =    110.374547     0.000000     0.000674   110.375221
	   19 B(3,2,4)        =    111.385286    -0.000001    -0.004794   111.380492
	   20 B(3,2,5)        =    111.333361     0.000001     0.004017   111.337378
	   21 B(3,6,9)        =    109.544816    -0.000000    -0.000940   109.543876
	   22 B(3,6,10)       =    112.168828     0.000001    -0.005019   112.163808
	   23 B(3,6,11)       =    111.858718     0.000000     0.005381   111.864099
	   24 B(4,2,5)        =    108.042009    -0.000000    -0.000769   108.041240
	   25 B(6,3,7)        =    108.908725     0.000000    -0.000761   108.907965
	   26 B(6,3,8)        =    108.735550     0.000001     0.002498   108.738048
	   27 B(6,9,12)       =    117.589124    -0.000001    -0.001282   117.587842
	   28 B(6,9,13)       =    116.913519    -0.000003    -0.003205   116.910314
	   29 B(7,3,8)        =    106.973825    -0.000000    -0.006701   106.967124
	   30 B(9,6,10)       =    105.976604    -0.000001    -0.014276   105.962328
	   31 B(9,6,11)       =    106.202609     0.000001     0.012612   106.215222
	   32 B(10,6,11)      =    110.738008     0.000000     0.002102   110.740110
	   33 B(12,9,13)      =    125.471602     0.000004     0.005502   125.477104
	   34 D(1,2,3,6)      =   -178.744700    -0.000000    -0.121482  -178.866183
	   35 D(1,2,3,7)      =     60.164242    -0.000000    -0.123233    60.041009
	   36 D(1,2,3,8)      =    -57.946442    -0.000000    -0.117639   -58.064080
	   37 D(2,3,6,9)      =   -172.009467     0.000000    -0.004283  -172.013750
	   38 D(2,3,6,10)     =    -54.620031    -0.000000    -0.025664   -54.645694
	   39 D(2,3,6,11)     =     70.510176    -0.000000    -0.022570    70.487606
	   40 D(3,6,9,12)     =    102.352567     0.000000     0.110839   102.463406
	   41 D(3,6,9,13)     =    -75.903552    -0.000000     0.076053   -75.827499
	   42 D(4,2,3,6)      =     61.499858    -0.000000    -0.121807    61.378051
	   43 D(4,2,3,7)      =    -59.591200    -0.000000    -0.123558   -59.714758
	   44 D(4,2,3,8)      =   -177.701884    -0.000000    -0.117964  -177.819847
	   45 D(5,2,3,6)      =    -59.165528    -0.000000    -0.120297   -59.285825
	   46 D(5,2,3,7)      =    179.743414    -0.000000    -0.122048   179.621366
	   47 D(5,2,3,8)      =     61.632730    -0.000000    -0.116453    61.516277
	   48 *D(7,3,6,9)     =    -50.000021    -0.000000    -0.000000   -50.000021
	   49 D(7,3,6,10)     =     67.389416    -0.000000    -0.021381    67.368035
	   50 D(7,3,6,11)     =   -167.480378    -0.000000    -0.018287  -167.498665
	   51 D(8,3,6,9)      =     66.233877     0.000000    -0.007019    66.226858
	   52 D(8,3,6,10)     =   -176.376686    -0.000000    -0.028400  -176.405086
	   53 D(8,3,6,11)     =    -51.246480    -0.000000    -0.025306   -51.271786
	   54 D(10,6,9,12)    =    -18.854566     0.000000     0.125753   -18.728813
	   55 D(10,6,9,13)    =    162.889315    -0.000000     0.090967   162.980282
	   56 D(11,6,9,12)    =   -136.678075     0.000000     0.124179  -136.553896
	   57 D(11,6,9,13)    =     45.065806    -0.000000     0.089392    45.155198
	 ---------------------------------------------------------------------------

  ==> Convergence Check <==

  Measures of convergence in internal coordinates in au.
  Criteria marked as inactive (o), active & met (*), and active & unmet ( ).
  ---------------------------------------------------------------------------------------------
   Step     Total Energy     Delta E     MAX Force     RMS Force      MAX Disp      RMS Disp   
  ---------------------------------------------------------------------------------------------
    Convergence Criteria    1.00e-06 *    3.00e-04 *             o    1.20e-03 *             o
  ---------------------------------------------------------------------------------------------
      7    -321.73534386   -8.55e-07 *    5.81e-05 *    1.50e-05 o    2.19e-03      1.03e-03 o  ~
  ---------------------------------------------------------------------------------------------


  **** Optimization is complete! (in 7 steps) ****

  ==> Optimization Summary <==

  Measures of convergence in internal coordinates in au.
  --------------------------------------------------------------------------------------------------------------- ~
   Step         Total Energy             Delta E       MAX Force       RMS Force        MAX Disp        RMS Disp  ~
  --------------------------------------------------------------------------------------------------------------- ~
      1    -321.735313085736   -321.735313085736      0.00062818      0.00017814      0.23346196      0.06265145  ~
      2    -321.726049418963      0.009263666773      0.01856155      0.00609652      0.15689515      0.04951011  ~
      3    -321.735113254212     -0.009063835249      0.00264115      0.00087517      0.04700397      0.01234509  ~
      4    -321.735300581288     -0.000187327077      0.00076210      0.00031473      0.03987655      0.01655664  ~
      5    -321.735332153514     -0.000031572225      0.00083987      0.00022020      0.01422652      0.00418518  ~
      6    -321.735343004420     -0.000010850907      0.00029708      0.00006205      0.00987517      0.00383861  ~
      7    -321.735343859223     -0.000000854803      0.00005807      0.00001502      0.00219481      0.00103481  ~
  --------------------------------------------------------------------------------------------------------------- ~

	Writing optimization data to binary file.
	Final energy is   -321.7353438592232
	Final (previous) structure:
	Cartesian Geometry (in Angstrom)
	    H     3.4552689826   0.0305055156  -0.8033857861
	    C     2.7428890613  -0.2059796002  -0.0214047910
	    C     1.3258895258   0.1476834228  -0.4683733548
	    H     2.8346281739  -1.2639272124   0.2030428573
	    H     3.0281752832   0.3518930637   0.8653529208
	    C     0.3079270166  -0.1492148877   0.6318308773
	    H     1.0568003415  -0.4137631670  -1.3573183109
	    H     1.2628849341   1.1982365786  -0.7265865814
	    N    -1.0664686836   0.0231257213   0.0966387475
	    H     0.3666425235  -1.1690646618   0.9758358855
	    H     0.3976380763   0.5387400983   1.4585747215
	    O    -1.6777936028  -0.9615122409  -0.1823601937
	    O    -1.4535586549   1.1427806764  -0.0476006742
	Saving final (previous) structure.
			--------------------------
			 OPTKING Finished Execution 
			--------------------------

    Final optimized geometry and variables:
    Molecular point group: c1
    Full point group: C1

    Geometry (in Angstrom), charge = 0, multiplicity = 1:

    H            3.455268718723     0.030505513255    -0.803385724721
    C            2.742888851842    -0.205979584427    -0.021404789390
    C            1.325889424536     0.147683411488    -0.468373319063
    H            2.834627957421    -1.263927115844     0.203042841812
    H            3.028175051931     0.351893036810     0.865352854753
    C            0.307926993059    -0.149214876314     0.631830829072
    H            1.056800260841    -0.413763135383    -1.357318207229
    H            1.262884837706     1.198236487080    -0.726586525871
    N           -1.066468602160     0.023125719552     0.096638740159
    H            0.366642495548    -1.169064572575     0.975835810950
    H            0.397638045963     0.538740057141     1.458574610122
    O           -1.677793474677    -0.961512167435    -0.182360179793
    O           -1.453558543948     1.142780589113    -0.047600670557

	Cleaning optimization helper files.


Properties will be evaluated at   0.000000,   0.000000,   0.000000 Bohr

Properties computed using the  density matrix

  Nuclear Dipole Moment: (a.u.)
     X:    11.6146      Y:    -0.6811      Z:     0.5756

  Electronic Dipole Moment: (a.u.)
     X:    -9.9734      Y:     0.5195      Z:    -0.1118

  Dipole Moment: (a.u.)
     X:     1.6412      Y:    -0.1616      Z:     0.4638     Total:     1.7131

  Dipole Moment: (Debye)
     X:     4.1715      Y:    -0.4107      Z:     1.1788     Total:     4.3543

  Quadrupole Moment: (Debye Ang)
    XX:   -40.8278     YY:   -39.6136     ZZ:   -34.1902
    XY:     0.1709     XZ:    -1.4180     YZ:    -0.2645

  Traceless Quadrupole Moment: (Debye Ang)
    XX:    -2.6173     YY:    -1.4031     ZZ:     4.0204
    XY:     0.1709     XZ:    -1.4180     YZ:    -0.2645

  Mulliken Charges: (a.u.)
   Center  Symbol    Alpha    Beta     Spin     Total
       1     H     0.40732  0.40732  0.00000  0.18535
       2     C     3.24811  3.24811  0.00000 -0.49623
       3     C     3.17259  3.17259  0.00000 -0.34518
       4     H     0.41401  0.41401  0.00000  0.17198
       5     H     0.41511  0.41511  0.00000  0.16978
       6     C     3.08331  3.08331  0.00000 -0.16661
       7     H     0.40107  0.40107  0.00000  0.19786
       8     H     0.39749  0.39749  0.00000  0.20501
       9     N     3.22382  3.22382  0.00000  0.55236
      10     H     0.38792  0.38792  0.00000  0.22416
      11     H     0.38857  0.38857  0.00000  0.22286
      12     O     4.22929  4.22929  0.00000 -0.45858
      13     O     4.23139  4.23139  0.00000 -0.46278

   Total alpha = 24.00000, Total beta = 24.00000, Total charge = -0.00000


*** PSI4 exiting successfully. Buy a developer a beer!
