    -----------------------------------------------------------------------
          Psi4: An Open-Source Ab Initio Electronic Structure Package
                              Psi4 (no tag) Driver

                          Git: Rev {detached?}  

    J. M. Turney, A. C. Simmonett, R. M. Parrish, E. G. Hohenstein,
    F. A. Evangelista, J. T. Fermann, B. J. Mintz, L. A. Burns, J. J. Wilke,
    M. L. Abrams, N. J. Russ, M. L. Leininger, C. L. Janssen, E. T. Seidl,
    W. D. Allen, H. F. Schaefer, R. A. King, E. F. Valeev, C. D. Sherrill,
    and T. D. Crawford, WIREs Comput. Mol. Sci. 2, 556-565 (2012)
    (doi: 10.1002/wcms.93)

                         Additional Contributions by
    A. E. DePrince, M. Saitow, U. Bozkaya, A. Yu. Sokolov
    -----------------------------------------------------------------------


    Psi4 started on: Fri Sep  2 14:41:10 2016

    Process ID:  20555
    PSI4DATADIR: /export131/home/mjharvey/miniconda3/share
    Memory level set to 256.000 MB

  ==> Input File <==

--------------------------------------------------------------------------
set {
	reference rhf
	basis 6-31G*
}


set_num_threads( 4 )
memory 2 gb

molecule MOL {
0 1

H	 0.957514	 -5.286026	 -1.978284
O	 1.865988	 -5.100799	 -2.166529
C	 1.975727	 -3.839604	 -2.775953
C	 1.745440	 -2.682945	 -1.809602
H	 2.982067	 -3.790488	 -3.171606
H	 1.292280	 -3.763918	 -3.620910
C	 0.331305	 -2.631585	 -1.226119
H	 2.470447	 -2.757689	 -1.003287
H	 1.952785	 -1.753635	 -2.337577
C	 0.115918	 -1.429151	 -0.302766
H	 0.137703	 -3.549340	 -0.677840
H	 -0.394428	 -2.592495	 -2.038599
C	 -1.309753	 -1.282496	 0.241564
H	 0.814740	 -1.487387	 0.529763
H	 0.370699	 -0.523365	 -0.848969
C	 -2.037799	 -0.007733	 -0.193645
H	 -1.890610	 -2.142323	 -0.085726
H	 -1.285946	 -1.330893	 1.329189
C	 -3.489788	 0.042957	 0.286558
H	 -2.017067	 0.064384	 -1.280144
H	 -1.513726	 0.868678	 0.179924
C	 -4.216917	 1.317354	 -0.141063
H	 -4.025645	 -0.823308	 -0.095450
H	 -3.513059	 -0.038752	 1.371301
H	 -4.239342	 1.411634	 -1.223113
H	 -5.243387	 1.322503	 0.212445
H	 -3.726170	 2.201406	 0.256408

	symmetry c1
}
set optking {
	frozen_dihedral = ("
		14 10 13 16
	")
}

ee = optimize('scf')
oeprop('DIPOLE', 'QUADRUPOLE', 'MULLIKEN_CHARGES')
f=open( 'psi4out.xyz', 'w' )
f.write( "27  " )
f.write( str(ee) + "\n" )
f.write( MOL.save_string_xyz() )
f.close()
--------------------------------------------------------------------------

  Memory set to   2.000 GiB by Python script.
gradient() will perform analytic gradient computation.

*** tstart() called on cx1-1-1-4.cx1.hpc.ic.ac.uk
*** at Fri Sep  2 14:41:10 2016


         ---------------------------------------------------------
                                   SCF
            by Justin Turney, Rob Parrish, and Andy Simmonett
                              RHF Reference
                        4 Threads,   2000 MiB Core
         ---------------------------------------------------------

  ==> Geometry <==

    Molecular point group: c1
    Full point group: C1

    Geometry (in Angstrom), charge = 0, multiplicity = 1:

       Center              X                  Y                   Z               Mass       
    ------------   -----------------  -----------------  -----------------  -----------------
           H          1.493778933810    -3.504011131919    -1.053852818263     1.007825032070
           O          2.402252933810    -3.318784131919    -1.242097818263    15.994914619560
           C          2.511991933810    -2.057589131919    -1.851521818263    12.000000000000
           C          2.281704933810    -0.900930131919    -0.885170818263    12.000000000000
           H          3.518331933810    -2.008473131919    -2.247174818263     1.007825032070
           H          1.828544933810    -1.981903131919    -2.696478818263     1.007825032070
           C          0.867569933810    -0.849570131919    -0.301687818263    12.000000000000
           H          3.006711933810    -0.975674131919    -0.078855818263     1.007825032070
           H          2.489049933810     0.028379868081    -1.413145818263     1.007825032070
           C          0.652182933810     0.352863868081     0.621665181737    12.000000000000
           H          0.673967933810    -1.767325131919     0.246591181737     1.007825032070
           H          0.141836933810    -0.810480131919    -1.114167818263     1.007825032070
           C         -0.773488066190     0.499518868081     1.165995181737    12.000000000000
           H          1.351004933810     0.294627868081     1.454194181737     1.007825032070
           H          0.906963933810     1.258649868081     0.075462181737     1.007825032070
           C         -1.501534066190     1.774281868081     0.730786181737    12.000000000000
           H         -1.354345066190    -0.360308131919     0.838705181737     1.007825032070
           H         -0.749681066190     0.451121868081     2.253620181737     1.007825032070
           C         -2.953523066190     1.824971868081     1.210989181737    12.000000000000
           H         -1.480802066190     1.846398868081    -0.355712818263     1.007825032070
           H         -0.977461066190     2.650692868081     1.104355181737     1.007825032070
           C         -3.680652066190     3.099368868081     0.783368181737    12.000000000000
           H         -3.489380066190     0.958706868081     0.828981181737     1.007825032070
           H         -2.976794066190     1.743262868081     2.295732181737     1.007825032070
           H         -3.703077066190     3.193648868081    -0.298681818263     1.007825032070
           H         -4.707122066190     3.104517868081     1.136876181737     1.007825032070
           H         -3.189905066190     3.983420868081     1.180839181737     1.007825032070

  Running in c1 symmetry.

  Rotational constants: A =      0.16778  B =      0.01310  C =      0.01303 [cm^-1]
  Rotational constants: A =   5029.78317  B =    392.85974  C =    390.76843 [MHz]
  Nuclear repulsion =  453.470827255110237

  Charge       = 0
  Multiplicity = 1
  Electrons    = 74
  Nalpha       = 37
  Nbeta        = 37

  ==> Algorithm <==

  SCF Algorithm Type is DF.
  DIIS enabled.
  MOM disabled.
  Fractional occupation disabled.
  Guess Type is CORE.
  Energy threshold   = 1.00e-08
  Density threshold  = 1.00e-08
  Integral threshold = 0.00e+00

  ==> Primary Basis <==

  Basis Set: 6-31G*
    Number of shells: 90
    Number of basis function: 171
    Number of Cartesian functions: 171
    Spherical Harmonics?: false
    Max angular momentum: 2

  ==> Pre-Iterations <==

   -------------------------------------------------------
    Irrep   Nso     Nmo     Nalpha   Nbeta   Ndocc  Nsocc
   -------------------------------------------------------
     A        171     171       0       0       0       0
   -------------------------------------------------------
    Total     171     171      37      37      37       0
   -------------------------------------------------------

 OEINTS: Overlap, kinetic, potential, dipole, and quadrupole integrals
         stored in file 35.

  ==> Integral Setup <==

  ==> DFJK: Density-Fitted J/K Matrices <==

    J tasked:                  Yes
    K tasked:                  Yes
    wK tasked:                  No
    OpenMP threads:              4
    Integrals threads:           4
    Memory (MB):              1430
    Algorithm:                Core
    Integral Cache:           NONE
    Schwarz Cutoff:          1E-12
    Fitting Condition:       1E-12

   => Auxiliary Basis Set <=

  Basis Set: 
    Number of shells: 378
    Number of basis function: 1179
    Number of Cartesian functions: 1179
    Spherical Harmonics?: false
    Max angular momentum: 3

  Minimum eigenvalue in the overlap matrix is 3.1090932110E-03.
  Using Symmetric Orthogonalization.
  SCF Guess: Core (One-Electron) Hamiltonian.

  ==> Iterations <==

                           Total Energy        Delta E     RMS |[F,P]|

   @DF-RHF iter   1:  -288.65455641129751   -2.88655e+02   5.75502e-02 
   @DF-RHF iter   2:    18.91878581225535    3.07573e+02   6.68454e-02 DIIS
   @DF-RHF iter   3:  -250.54337166344186   -2.69462e+02   4.99101e-02 DIIS
   @DF-RHF iter   4:  -232.84322822520295    1.77001e+01   6.30926e-02 DIIS
   @DF-RHF iter   5:  -379.95817007553450   -1.47115e+02   1.47563e-02 DIIS
   @DF-RHF iter   6:  -351.12977291919043    2.88284e+01   3.13879e-02 DIIS
   @DF-RHF iter   7:  -388.09701306873302   -3.69672e+01   3.28454e-03 DIIS
   @DF-RHF iter   8:  -388.26792323074682   -1.70910e-01   6.95726e-04 DIIS
   @DF-RHF iter   9:  -388.27562111248398   -7.69788e-03   2.96564e-04 DIIS
   @DF-RHF iter  10:  -388.27721441392640   -1.59330e-03   1.21727e-04 DIIS
   @DF-RHF iter  11:  -388.27747883229353   -2.64418e-04   4.57493e-05 DIIS
   @DF-RHF iter  12:  -388.27752678534733   -4.79531e-05   1.70721e-05 DIIS
   @DF-RHF iter  13:  -388.27753285798013   -6.07263e-06   6.86954e-06 DIIS
   @DF-RHF iter  14:  -388.27753403498463   -1.17700e-06   1.26841e-06 DIIS
   @DF-RHF iter  15:  -388.27753408324639   -4.82618e-08   3.37893e-07 DIIS
   @DF-RHF iter  16:  -388.27753408685788   -3.61149e-09   8.07185e-08 DIIS
   @DF-RHF iter  17:  -388.27753408703853   -1.80648e-10   2.09996e-08 DIIS
   @DF-RHF iter  18:  -388.27753408705206   -1.35287e-11   5.25863e-09 DIIS

  ==> Post-Iterations <==

    Orbital Energies (a.u.)
    -----------------------

    Doubly Occupied:                                                      

       1A    -20.552327     2A    -11.267163     3A    -11.221035  
       4A    -11.215954     5A    -11.215746     6A    -11.215208  
       7A    -11.215098     8A    -11.214053     9A    -11.209496  
      10A     -1.359100    11A     -1.094435    12A     -1.062599  
      13A     -1.011512    14A     -0.950084    15A     -0.884599  
      16A     -0.819808    17A     -0.793905    18A     -0.789039  
      19A     -0.694199    20A     -0.653064    21A     -0.635587  
      22A     -0.615420    23A     -0.602315    24A     -0.582502  
      25A     -0.579816    26A     -0.554486    27A     -0.537191  
      28A     -0.524239    29A     -0.506725    30A     -0.501207  
      31A     -0.478117    32A     -0.476545    33A     -0.470365  
      34A     -0.460792    35A     -0.452430    36A     -0.441950  
      37A     -0.422054  

    Virtual:                                                              

      38A      0.220267    39A      0.229161    40A      0.244951  
      41A      0.256023    42A      0.265962    43A      0.279273  
      44A      0.283336    45A      0.302862    46A      0.312892  
      47A      0.318575    48A      0.326545    49A      0.330706  
      50A      0.331780    51A      0.343390    52A      0.346801  
      53A      0.353917    54A      0.363425    55A      0.377389  
      56A      0.398481    57A      0.408661    58A      0.421111  
      59A      0.435128    60A      0.460741    61A      0.464948  
      62A      0.488531    63A      0.506227    64A      0.693509  
      65A      0.717221    66A      0.731456    67A      0.751060  
      68A      0.753655    69A      0.757403    70A      0.773888  
      71A      0.802080    72A      0.817040    73A      0.823802  
      74A      0.866022    75A      0.882913    76A      0.909325  
      77A      0.934942    78A      0.962969    79A      0.969668  
      80A      0.993995    81A      1.015013    82A      1.026851  
      83A      1.053613    84A      1.056735    85A      1.080203  
      86A      1.102900    87A      1.131515    88A      1.135489  
      89A      1.151497    90A      1.155831    91A      1.159583  
      92A      1.176158    93A      1.181075    94A      1.188311  
      95A      1.194952    96A      1.198476    97A      1.209842  
      98A      1.216524    99A      1.221291   100A      1.225470  
     101A      1.236563   102A      1.246418   103A      1.262837  
     104A      1.269952   105A      1.282337   106A      1.323710  
     107A      1.386528   108A      1.407739   109A      1.437371  
     110A      1.499985   111A      1.555020   112A      1.629111  
     113A      1.662394   114A      1.697645   115A      1.734927  
     116A      1.753143   117A      1.797828   118A      1.818419  
     119A      1.874609   120A      1.931896   121A      1.944090  
     122A      1.995285   123A      2.003861   124A      2.057068  
     125A      2.085800   126A      2.146497   127A      2.168446  
     128A      2.179216   129A      2.218326   130A      2.243927  
     131A      2.257421   132A      2.270611   133A      2.287010  
     134A      2.302801   135A      2.313523   136A      2.334849  
     137A      2.372099   138A      2.391094   139A      2.414764  
     140A      2.464453   141A      2.507165   142A      2.552624  
     143A      2.602321   144A      2.619392   145A      2.636216  
     146A      2.666885   147A      2.697307   148A      2.700162  
     149A      2.725800   150A      2.764261   151A      2.791716  
     152A      2.810977   153A      2.817793   154A      2.890504  
     155A      2.931819   156A      2.947890   157A      2.990710  
     158A      3.050377   159A      3.108571   160A      3.155760  
     161A      3.183931   162A      3.221545   163A      4.186248  
     164A      4.547817   165A      4.602094   166A      4.681543  
     167A      4.749909   168A      4.810997   169A      4.875637  
     170A      4.964297   171A      5.012835  

    Final Occupation by Irrep:
              A 
    DOCC [    37 ]

  Energy converged.

  @DF-RHF Final Energy:  -388.27753408705206

   => Energetics <=

    Nuclear Repulsion Energy =            453.4708272551102368
    One-Electron Energy =               -1424.9363978387652878
    Two-Electron Energy =                 583.1880364966032175
    DFT Exchange-Correlation Energy =       0.0000000000000000
    Empirical Dispersion Energy =           0.0000000000000000
    PCM Polarization Energy =               0.0000000000000000
    EFP Energy =                            0.0000000000000000
    Total Energy =                       -388.2775340870518903

    Alert: EFP and PCM quantities not currently incorporated into SCF psivars.

Properties will be evaluated at   0.000000,   0.000000,   0.000000 Bohr
  ==> Properties <==


Properties computed using the SCF density matrix

  Nuclear Dipole Moment: (a.u.)
     X:    -6.7555      Y:     7.5825      Z:     2.0164

  Electronic Dipole Moment: (a.u.)
     X:     6.2079      Y:    -7.1102      Z:    -2.0735

  Dipole Moment: (a.u.)
     X:    -0.5476      Y:     0.4723      Z:    -0.0571     Total:     0.7254

  Dipole Moment: (Debye)
     X:    -1.3918      Y:     1.2004      Z:    -0.1452     Total:     1.8437


  Saving occupied orbitals to File 180.

*** tstop() called on cx1-1-1-4.cx1.hpc.ic.ac.uk at Fri Sep  2 14:41:23 2016
Module time:
	user time   =      40.36 seconds =       0.67 minutes
	system time =       0.47 seconds =       0.01 minutes
	total time  =         13 seconds =       0.22 minutes
Total time:
	user time   =      40.36 seconds =       0.67 minutes
	system time =       0.47 seconds =       0.01 minutes
	total time  =         13 seconds =       0.22 minutes

*** tstart() called on cx1-1-1-4.cx1.hpc.ic.ac.uk
*** at Fri Sep  2 14:41:23 2016


         ------------------------------------------------------------
                                   SCF GRAD                          
                          Rob Parrish, Justin Turney,                
                       Andy Simmonett, and Alex Sokolov              
         ------------------------------------------------------------

  ==> Geometry <==

    Molecular point group: c1
    Full point group: C1

    Geometry (in Angstrom), charge = 0, multiplicity = 1:

       Center              X                  Y                   Z               Mass       
    ------------   -----------------  -----------------  -----------------  -----------------
           H          1.493778933810    -3.504011131919    -1.053852818263     1.007825032070
           O          2.402252933810    -3.318784131919    -1.242097818263    15.994914619560
           C          2.511991933810    -2.057589131919    -1.851521818263    12.000000000000
           C          2.281704933810    -0.900930131919    -0.885170818263    12.000000000000
           H          3.518331933810    -2.008473131919    -2.247174818263     1.007825032070
           H          1.828544933810    -1.981903131919    -2.696478818263     1.007825032070
           C          0.867569933810    -0.849570131919    -0.301687818263    12.000000000000
           H          3.006711933810    -0.975674131919    -0.078855818263     1.007825032070
           H          2.489049933810     0.028379868081    -1.413145818263     1.007825032070
           C          0.652182933810     0.352863868081     0.621665181737    12.000000000000
           H          0.673967933810    -1.767325131919     0.246591181737     1.007825032070
           H          0.141836933810    -0.810480131919    -1.114167818263     1.007825032070
           C         -0.773488066190     0.499518868081     1.165995181737    12.000000000000
           H          1.351004933810     0.294627868081     1.454194181737     1.007825032070
           H          0.906963933810     1.258649868081     0.075462181737     1.007825032070
           C         -1.501534066190     1.774281868081     0.730786181737    12.000000000000
           H         -1.354345066190    -0.360308131919     0.838705181737     1.007825032070
           H         -0.749681066190     0.451121868081     2.253620181737     1.007825032070
           C         -2.953523066190     1.824971868081     1.210989181737    12.000000000000
           H         -1.480802066190     1.846398868081    -0.355712818263     1.007825032070
           H         -0.977461066190     2.650692868081     1.104355181737     1.007825032070
           C         -3.680652066190     3.099368868081     0.783368181737    12.000000000000
           H         -3.489380066190     0.958706868081     0.828981181737     1.007825032070
           H         -2.976794066190     1.743262868081     2.295732181737     1.007825032070
           H         -3.703077066190     3.193648868081    -0.298681818263     1.007825032070
           H         -4.707122066190     3.104517868081     1.136876181737     1.007825032070
           H         -3.189905066190     3.983420868081     1.180839181737     1.007825032070

  Nuclear repulsion =  453.470827255110237

  ==> Basis Set <==

  Basis Set: 6-31G*
    Number of shells: 90
    Number of basis function: 171
    Number of Cartesian functions: 171
    Spherical Harmonics?: false
    Max angular momentum: 2

  ==> DFJKGrad: Density-Fitted SCF Gradients <==

    Gradient:                    1
    J tasked:                  Yes
    K tasked:                  Yes
    wK tasked:                  No
    OpenMP threads:              4
    Integrals threads:           4
    Memory (MB):              1430
    Schwarz Cutoff:          0E+00
    Fitting Condition:       1E-12

   => Auxiliary Basis Set <=

  Basis Set: 
    Number of shells: 378
    Number of basis function: 1179
    Number of Cartesian functions: 1179
    Spherical Harmonics?: false
    Max angular momentum: 3


  -Total Gradient:
     Atom            X                  Y                   Z
    ------   -----------------  -----------------  -----------------
       1        0.000021645963     0.000015068788     0.000000095543
       2       -0.000061796107    -0.000021392513     0.000020455978
       3        0.000033593491     0.000037173549     0.000020057834
       4        0.000083318993     0.000153461682     0.000031011638
       5        0.000020794897     0.000032239643    -0.000019522135
       6       -0.000010500065     0.000004781640     0.000024855813
       7       -0.000877133556    -0.001545675867     0.001052278371
       8        0.000008652758    -0.000038764761    -0.000025442791
       9        0.000048440296     0.000024854353    -0.000036864465
      10       -0.005822377251    -0.005543154369     0.000493258511
      11        0.001357124477     0.000172526092    -0.001488242665
      12        0.000081414935     0.000007870566    -0.000072901894
      13        0.004898344717     0.005539813780    -0.002813798369
      14       -0.000901878850     0.000268138760     0.002581018404
      15       -0.002714487358     0.000646309241     0.000210426534
      16        0.001328923415     0.001181238306     0.000191617433
      17        0.002446801094    -0.000492589568    -0.001714512734
      18        0.002247677457    -0.000487505048     0.001499570017
      19       -0.000081675832    -0.000087563832     0.000085293753
      20       -0.000055099227     0.000020766488     0.000126010004
      21       -0.002054300667     0.000123587025    -0.000209809279
      22       -0.000017093138    -0.000075874863    -0.000052481326
      23        0.000031735003     0.000035429571    -0.000000317748
      24       -0.000036252773     0.000005379901     0.000034961836
      25        0.000023479442    -0.000007730277     0.000039500592
      26       -0.000008346003    -0.000000505915     0.000013902254
      27        0.000008993882     0.000032117634     0.000009578890


*** tstop() called on cx1-1-1-4.cx1.hpc.ic.ac.uk at Fri Sep  2 14:41:35 2016
Module time:
	user time   =      42.20 seconds =       0.70 minutes
	system time =       0.21 seconds =       0.00 minutes
	total time  =         12 seconds =       0.20 minutes
Total time:
	user time   =      82.58 seconds =       1.38 minutes
	system time =       0.68 seconds =       0.01 minutes
	total time  =         25 seconds =       0.42 minutes
CURRENT ENERGY: -388.2775340871

			-----------------------------------------
			 OPTKING 2.0: for geometry optimizations 
			  - R.A. King,  Bethel University        
			-----------------------------------------

	Internal coordinates to be generated automatically.
	Detected frag with atoms:  1 2 3 4 5 6 7 8 9 10 11 12 13 14 15 16 17 18 19 20
	 21 22 23 24 25 26 27
	---Fragment 1 Bond Connectivity---
	 1 : 2
	 2 : 1 3
	 3 : 2 4 5 6
	 4 : 3 7 8 9
	 5 : 3
	 6 : 3
	 7 : 4 10 11 12
	 8 : 4
	 9 : 4
	 10 : 7 13 14 15
	 11 : 7
	 12 : 7
	 13 : 10 16 17 18
	 14 : 10
	 15 : 10
	 16 : 13 19 20 21
	 17 : 13
	 18 : 13
	 19 : 16 22 23 24
	 20 : 16
	 21 : 16
	 22 : 19 25 26 27
	 23 : 19
	 24 : 19
	 25 : 22
	 26 : 22
	 27 : 22

	Assuming in current code that numbering for constraints corresponds to unified fragment.
	Frozen dihedral atom list: 
	    14    10    13    16
	---Fragment 1 Geometry and Gradient---
	 H           2.8228330880       -6.6216214059       -1.9914932109
	 O           4.5396001468       -6.2715931035       -2.3472247068
	 C           4.7469768029       -3.8882799533       -3.4988691656
	 C           4.3117974410       -1.7025112142       -1.6727304273
	 H           6.6486837995       -3.7954641646       -4.2465449792
	 H           3.4554491466       -3.7452541412       -5.0956064896
	 C           1.6394695760       -1.6054548800       -0.5701073541
	 H           5.6818621154       -1.8437569043       -0.1490159005
	 H           4.7036227060        0.0536301784       -2.6704585823
	 C           1.2324471334        0.6668160729        1.1747769398
	 H           1.2736148172       -3.3397604871        0.4659898003
	 H           0.2680329604       -1.5315854855       -2.1054720426
	 C          -1.4616806122        0.9439538589        2.2034115657
	 H           2.5530293291        0.5567659818        2.7480287475
	 H           1.7139134473        2.3785035479        0.1426028569
	 C          -2.8374881643        3.3529068132        1.3809857452
	 H          -2.5593412645       -0.6808836928        1.5849230997
	 H          -1.4166919021        0.8524967832        4.2587249510
	 C          -5.5813497223        3.4486970309        2.2884379034
	 H          -2.7983103621        3.4891881927       -0.6721998085
	 H          -1.8471337207        5.0090835831        2.0869288469
	 C          -6.9554243955        5.8569583455        1.4803513247
	 H          -6.5939726986        1.8116934224        1.5665474028
	 H          -5.6253255391        3.2942893983        4.3383050979
	 H          -6.9978015041        6.0351217253       -0.5644268374
	 H          -8.8951715792        5.8666885453        2.1483846305
	 H          -6.0280469650        7.5275745127        2.2314626605
	             0.0000216460        0.0000150688        0.0000000955
	            -0.0000617961       -0.0000213925        0.0000204560
	             0.0000335935        0.0000371735        0.0000200578
	             0.0000833190        0.0001534617        0.0000310116
	             0.0000207949        0.0000322396       -0.0000195221
	            -0.0000105001        0.0000047816        0.0000248558
	            -0.0008771336       -0.0015456759        0.0010522784
	             0.0000086528       -0.0000387648       -0.0000254428
	             0.0000484403        0.0000248544       -0.0000368645
	            -0.0058223773       -0.0055431544        0.0004932585
	             0.0013571245        0.0001725261       -0.0014882427
	             0.0000814149        0.0000078706       -0.0000729019
	             0.0048983447        0.0055398138       -0.0028137984
	            -0.0009018788        0.0002681388        0.0025810184
	            -0.0027144874        0.0006463092        0.0002104265
	             0.0013289234        0.0011812383        0.0001916174
	             0.0024468011       -0.0004925896       -0.0017145127
	             0.0022476775       -0.0004875050        0.0014995700
	            -0.0000816758       -0.0000875638        0.0000852938
	            -0.0000550992        0.0000207665        0.0001260100
	            -0.0020543007        0.0001235870       -0.0002098093
	            -0.0000170931       -0.0000758749       -0.0000524813
	             0.0000317350        0.0000354296       -0.0000003177
	            -0.0000362528        0.0000053799        0.0000349618
	             0.0000234794       -0.0000077303        0.0000395006
	            -0.0000083460       -0.0000005059        0.0000139023
	             0.0000089939        0.0000321176        0.0000095789

	Previous optimization step data not found.  Starting new optimization.

	---Fragment 1 Intrafragment Coordinates---
	 - Coordinate -           - BOHR/RAD -       - ANG/DEG -
	 R(1,2)           =         1.787835	       0.946082
	 R(2,3)           =         2.655084	       1.405010
	 R(3,4)           =         2.881276	       1.524705
	 R(3,5)           =         2.045513	       1.082439
	 R(3,6)           =         2.058657	       1.089395
	 R(4,7)           =         2.892496	       1.530643
	 R(4,8)           =         2.053956	       1.086907
	 R(4,9)           =         2.057431	       1.088746
	 R(7,10)          =         2.893701	       1.531281
	 R(7,11)          =         2.053086	       1.086447
	 R(7,12)          =         2.060010	       1.090110
	 R(10,13)         =         2.897105	       1.533082
	 R(10,14)         =         2.056981	       1.088507
	 R(10,15)         =         2.055983	       1.087980
	 R(13,16)         =         2.893490	       1.531169
	 R(13,17)         =         2.056085	       1.088033
	 R(13,18)         =         2.057839	       1.088962
	 R(16,19)         =         2.891612	       1.530175
	 R(16,20)         =         2.058076	       1.089087
	 R(16,21)         =         2.054770	       1.087337
	 R(19,22)         =         2.888046	       1.528288
	 R(19,23)         =         2.055800	       1.087882
	 R(19,24)         =         2.056145	       1.088065
	 R(22,25)         =         2.052963	       1.086381
	 R(22,26)         =         2.051580	       1.085650
	 R(22,27)         =         2.053084	       1.086446
	 B(1,2,3)         =         1.914577	     109.697171
	 B(2,3,4)         =         1.976053	     113.219524
	 B(2,3,5)         =         1.846152	     105.776746
	 B(2,3,6)         =         1.928143	     110.474428
	 B(3,4,7)         =         1.989525	     113.991363
	 B(3,4,8)         =         1.893637	     108.497418
	 B(3,4,9)         =         1.887467	     108.143903
	 B(4,3,5)         =         1.915227	     109.734449
	 B(4,3,6)         =         1.922103	     110.128377
	 B(4,7,10)        =         1.967264	     112.715916
	 B(4,7,11)        =         1.905685	     109.187681
	 B(4,7,12)        =         1.909384	     109.399632
	 B(5,3,6)         =         1.871928	     107.253570
	 B(7,4,8)         =         1.913229	     109.619970
	 B(7,4,9)         =         1.909396	     109.400321
	 B(7,10,13)       =         2.004260	     114.835655
	 B(7,10,14)       =         1.905911	     109.200649
	 B(7,10,15)       =         1.894507	     108.547263
	 B(8,4,9)         =         1.866500	     106.942576
	 B(10,7,11)       =         1.911293	     109.508996
	 B(10,7,12)       =         1.904583	     109.124559
	 B(10,13,16)      =         2.005226	     114.890969
	 B(10,13,17)      =         1.890259	     108.303836
	 B(10,13,18)      =         1.907141	     109.271105
	 B(11,7,12)       =         1.862710	     106.725409
	 B(13,10,14)      =         1.907713	     109.303911
	 B(13,10,15)      =         1.892708	     108.444170
	 B(13,16,19)      =         1.970960	     112.927695
	 B(13,16,20)      =         1.906714	     109.246653
	 B(13,16,21)      =         1.922201	     110.134025
	 B(14,10,15)      =         1.852688	     106.151178
	 B(16,13,17)      =         1.895029	     108.577184
	 B(16,13,18)      =         1.908456	     109.346502
	 B(16,19,22)      =         1.972823	     113.034444
	 B(16,19,23)      =         1.907973	     109.318787
	 B(16,19,24)      =         1.907811	     109.309513
	 B(17,13,18)      =         1.851456	     106.080600
	 B(19,16,20)      =         1.905984	     109.204833
	 B(19,16,21)      =         1.899517	     108.834305
	 B(19,22,25)      =         1.940003	     111.153996
	 B(19,22,26)      =         1.941950	     111.265514
	 B(19,22,27)      =         1.940411	     111.177347
	 B(20,16,21)      =         1.854798	     106.272084
	 B(22,19,23)      =         1.908576	     109.353368
	 B(22,19,24)      =         1.908577	     109.353418
	 B(23,19,24)      =         1.854324	     106.244912
	 B(25,22,26)      =         1.880097	     107.721614
	 B(25,22,27)      =         1.878734	     107.643537
	 B(26,22,27)      =         1.879781	     107.703528
	 D(1,2,3,4)       =         1.271027	      72.824506
	 D(1,2,3,5)       =        -2.914280	    -166.975948
	 D(1,2,3,6)       =        -0.894016	     -51.223344
	 D(2,3,4,7)       =        -1.117499	     -64.027973
	 D(2,3,4,8)       =         1.019514	      58.413834
	 D(2,3,4,9)       =         3.038125	     174.071738
	 D(3,4,7,10)      =        -3.102764	    -177.775300
	 D(3,4,7,11)      =         1.052183	      60.285673
	 D(3,4,7,12)      =        -0.980458	     -56.176098
	 D(4,7,10,13)     =         3.079671	     176.452131
	 D(4,7,10,14)     =        -1.054060	     -60.393174
	 D(4,7,10,15)     =         0.958504	      54.918207
	 D(5,3,4,7)       =         3.107625	     178.053820
	 D(5,3,4,8)       =        -1.038547	     -59.504373
	 D(5,3,4,9)       =         0.980064	      56.153531
	 D(6,3,4,7)       =         1.050839	      60.208659
	 D(6,3,4,8)       =        -3.095333	    -177.349534
	 D(6,3,4,9)       =        -1.076722	     -61.691630
	 D(7,10,13,16)    =        -2.040300	    -116.900561
	 D(7,10,13,17)    =         0.081341	       4.660507
	 D(7,10,13,18)    =         2.090794	     119.793649
	 D(8,4,7,10)      =         1.054185	      60.400341
	 D(8,4,7,11)      =        -1.074053	     -61.538687
	 D(8,4,7,12)      =        -3.106694	    -178.000458
	 D(9,4,7,10)      =        -0.987341	     -56.570459
	 D(9,4,7,11)      =        -3.115578	    -178.509486
	 D(9,4,7,12)      =         1.134966	      65.028743
	 D(10,13,16,19)   =         3.065805	     175.657679
	 D(10,13,16,20)   =         0.941126	      53.922554
	 D(10,13,16,21)   =        -1.089851	     -62.443859
	 D(11,7,10,13)    =        -1.078447	     -61.790472
	 D(11,7,10,14)    =         1.071008	      61.364223
	 D(11,7,10,15)    =         3.083571	     176.675603
	 D(12,7,10,13)    =         0.954645	      54.697150
	 D(12,7,10,14)    =         3.104100	     177.851845
	 D(12,7,10,15)    =        -1.166522	     -66.836774
	 D(13,16,19,22)   =         3.136984	     179.735934
	 D(13,16,19,23)   =        -1.016044	     -58.215021
	 D(13,16,19,24)   =         1.006942	      57.693511
	*D(14,10,13,16)   =         2.094395	     120.000011
	 D(14,10,13,17)   =        -2.067149	    -118.438921
	 D(14,10,13,18)   =        -0.057697	      -3.305779
	 D(15,10,13,16)   =         0.081847	       4.689503
	 D(15,10,13,17)   =         2.203488	     126.250571
	 D(15,10,13,18)   =        -2.070245	    -118.616287
	 D(16,19,22,25)   =         1.044254	      59.831350
	 D(16,19,22,26)   =         3.139610	     179.886377
	 D(16,19,22,27)   =        -1.048345	     -60.065768
	 D(17,13,16,19)   =         0.946761	      54.245425
	 D(17,13,16,20)   =        -1.177917	     -67.489700
	 D(17,13,16,21)   =         3.074291	     176.143887
	 D(18,13,16,19)   =        -1.065991	     -61.076768
	 D(18,13,16,20)   =         3.092516	     177.188107
	 D(18,13,16,21)   =         1.061539	      60.821694
	 D(20,16,19,22)   =        -1.021111	     -58.505371
	 D(20,16,19,23)   =         1.109046	      63.543674
	 D(20,16,19,24)   =         3.132032	     179.452207
	 D(21,16,19,22)   =         0.996740	      57.108989
	 D(21,16,19,23)   =         3.126898	     179.158034
	 D(21,16,19,24)   =        -1.133302	     -64.933434
	 D(23,19,22,25)   =        -1.085565	     -62.198306
	 D(23,19,22,26)   =         1.009790	      57.856722
	 D(23,19,22,27)   =         3.105021	     177.904577
	 D(24,19,22,25)   =        -3.109319	    -178.150847
	 D(24,19,22,26)   =        -1.013963	     -58.095820
	 D(24,19,22,27)   =         1.081267	      61.952035

	Current energy   :      -388.2775340871

	Generating empirical Hessian (Schlegel '84) for each fragment.
	Taking RFO optimization step.
	Going to follow RFO solution 1.
	Using RFO vector 1.
	Norm of target step-size    0.37214
	Projected energy change by RFO approximation:        -0.0008699487

	Back-transformation to cartesian coordinates...
	Successfully converged to displaced geometry.

	Back-transformation to cartesian coordinates to adjust frozen coordinates...
	Successfully converged to displaced geometry.

	--- Internal Coordinate Step in ANG or DEG, aJ/ANG or AJ/DEG ---
	 ---------------------------------------------------------------------------
	   Coordinate                Previous        Force       Change         New 
	   ----------                --------       ------       ------       ------
	    1 R(1,2)          =      0.946082     0.000195     0.000021     0.946103
	    2 R(2,3)          =      1.405010    -0.000146    -0.000021     1.404989
	    3 R(3,4)          =      1.524705     0.000659     0.000141     1.524846
	    4 R(3,5)          =      1.082439    -0.000230    -0.000041     1.082398
	    5 R(3,6)          =      1.089395     0.000102     0.000019     1.089413
	    6 R(4,7)          =      1.530643    -0.000994    -0.000216     1.530427
	    7 R(4,8)          =      1.086907     0.000086     0.000016     1.086922
	    8 R(4,9)          =      1.088746    -0.000398    -0.000073     1.088673
	    9 R(7,10)         =      1.531281    -0.010764    -0.002348     1.528933
	   10 R(7,11)         =      1.086447     0.009381     0.001704     1.088150
	   11 R(7,12)         =      1.090110    -0.000003    -0.000001     1.090110
	   12 R(10,13)        =      1.533082     0.070512     0.015467     1.548549
	   13 R(10,14)        =      1.088507    -0.011375    -0.002080     1.086427
	   14 R(10,15)        =      1.087980     0.001674     0.000306     1.088285
	   15 R(13,16)        =      1.531169    -0.011225    -0.002448     1.528722
	   16 R(13,17)        =      1.088033     0.003306     0.000603     1.088637
	   17 R(13,18)        =      1.088962    -0.012923    -0.002367     1.086595
	   18 R(16,19)        =      1.530175    -0.000929    -0.000202     1.529973
	   19 R(16,20)        =      1.089087     0.001033     0.000189     1.089276
	   20 R(16,21)        =      1.087337     0.007931     0.001445     1.088782
	   21 R(19,22)        =      1.528288     0.000409     0.000088     1.528376
	   22 R(19,23)        =      1.087882     0.000360     0.000066     1.087948
	   23 R(19,24)        =      1.088065    -0.000290    -0.000053     1.088012
	   24 R(22,25)        =      1.086381     0.000334     0.000061     1.086442
	   25 R(22,26)        =      1.085650    -0.000102    -0.000019     1.085631
	   26 R(22,27)        =      1.086446    -0.000278    -0.000050     1.086395
	   27 B(1,2,3)        =    109.697171     0.000001     0.004841   109.702012
	   28 B(2,3,4)        =    113.219524     0.000003     0.010193   113.229717
	   29 B(2,3,5)        =    105.776746    -0.000003    -0.029541   105.747205
	   30 B(2,3,6)        =    110.474428    -0.000001     0.010355   110.484783
	   31 B(3,4,7)        =    113.991363     0.000003     0.013711   114.005074
	   32 B(3,4,8)        =    108.497418     0.000001     0.016872   108.514290
	   33 B(3,4,9)        =    108.143903     0.000001     0.010889   108.154792
	   34 B(4,3,5)        =    109.734449     0.000000    -0.005832   109.728616
	   35 B(4,3,6)        =    110.128377     0.000001     0.017333   110.145710
	   36 B(4,7,10)       =    112.715916     0.000081     0.319649   113.035565
	   37 B(4,7,11)       =    109.187681     0.000053     0.406561   109.594242
	   38 B(4,7,12)       =    109.399632    -0.000020     0.194480   109.594112
	   39 B(5,3,6)        =    107.253570    -0.000000    -0.005415   107.248156
	   40 B(7,4,8)        =    109.619970    -0.000002    -0.009086   109.610883
	   41 B(7,4,9)        =    109.400321    -0.000004    -0.028599   109.371722
	   42 B(7,10,13)      =    114.835655    -0.000352    -1.126548   113.709107
	   43 B(7,10,14)      =    109.200649     0.000042    -0.587336   108.613312
	   44 B(7,10,15)      =    108.547263     0.000022    -0.150166   108.397098
	   45 B(8,4,9)        =    106.942576     0.000000    -0.004356   106.938220
	   46 B(10,7,11)      =    109.508996    -0.000115    -0.856899   108.652097
	   47 B(10,7,12)      =    109.124559    -0.000011     0.022092   109.146651
	   48 B(10,13,16)     =    114.890969    -0.000372    -1.216882   113.674087
	   49 B(10,13,17)     =    108.303836     0.000271     2.036339   110.340176
	   50 B(10,13,18)     =    109.271105     0.000189     0.665290   109.936395
	   51 B(11,7,12)      =    106.725409     0.000009    -0.114637   106.610772
	   52 B(13,10,14)     =    109.303911     0.000186     0.874065   110.177975
	   53 B(13,10,15)     =    108.444170     0.000242     1.713727   110.157898
	   54 B(13,16,19)     =    112.927695     0.000080     0.316003   113.243698
	   55 B(13,16,20)     =    109.246653    -0.000009     0.021991   109.268643
	   56 B(13,16,21)     =    110.134025    -0.000124    -0.916450   109.217575
	   57 B(14,10,15)     =    106.151178    -0.000126    -0.716692   105.434486
	   58 B(16,13,17)     =    108.577184     0.000034    -0.001028   108.576156
	   59 B(16,13,18)     =    109.346502     0.000006    -0.882322   108.464180
	   60 B(16,19,22)     =    113.034444    -0.000001    -0.004174   113.030270
	   61 B(16,19,23)     =    109.318787     0.000002     0.021184   109.339970
	   62 B(16,19,24)     =    109.309513    -0.000002    -0.029159   109.280354
	   63 B(17,13,18)     =    106.080600    -0.000109    -0.572949   105.507651
	   64 B(19,16,20)     =    109.204833    -0.000023     0.181851   109.386684
	   65 B(19,16,21)     =    108.834305     0.000061     0.466183   109.300488
	   66 B(19,22,25)     =    111.153996     0.000002     0.007873   111.161869
	   67 B(19,22,26)     =    111.265514     0.000000    -0.000180   111.265334
	   68 B(19,22,27)     =    111.177347    -0.000001    -0.003563   111.173784
	   69 B(20,16,21)     =    106.272084     0.000011    -0.092074   106.180010
	   70 B(22,19,23)     =    109.353368     0.000000     0.015567   109.368934
	   71 B(22,19,24)     =    109.353418     0.000002    -0.002571   109.350847
	   72 B(23,19,24)     =    106.244912    -0.000000    -0.000656   106.244256
	   73 B(25,22,26)     =    107.721614    -0.000001    -0.008927   107.712687
	   74 B(25,22,27)     =    107.643537     0.000000     0.003095   107.646632
	   75 B(26,22,27)     =    107.703528     0.000000     0.001458   107.704986
	   76 D(1,2,3,4)      =     72.824506     0.000000     0.068588    72.893094
	   77 D(1,2,3,5)      =   -166.975948     0.000000     0.047763  -166.928184
	   78 D(1,2,3,6)      =    -51.223344    -0.000000     0.030235   -51.193108
	   79 D(2,3,4,7)      =    -64.027973    -0.000000    -0.047593   -64.075566
	   80 D(2,3,4,8)      =     58.413834    -0.000000    -0.037491    58.376342
	   81 D(2,3,4,9)      =    174.071738    -0.000000    -0.028014   174.043724
	   82 D(3,4,7,10)     =   -177.775300    -0.000006    -0.553486  -178.328786
	   83 D(3,4,7,11)     =     60.285673     0.000006     0.036105    60.321778
	   84 D(3,4,7,12)     =    -56.176098    -0.000000    -0.169254   -56.345353
	   85 D(4,7,10,13)    =    176.452131     0.000007     5.218761   181.670892
	   86 D(4,7,10,14)    =    -60.393174     0.000012     5.118401   -55.274773
	   87 D(4,7,10,15)    =     54.918207    -0.000014     3.884315    58.802522
	   88 D(5,3,4,7)      =    178.053820     0.000000    -0.012916   178.040904
	   89 D(5,3,4,8)      =    -59.504373     0.000000    -0.002814   -59.507188
	   90 D(5,3,4,9)      =     56.153531     0.000000     0.006663    56.160194
	   91 D(6,3,4,7)      =     60.208659    -0.000000    -0.013164    60.195496
	   92 D(6,3,4,8)      =   -177.349534     0.000000    -0.003061  -177.352596
	   93 D(6,3,4,9)      =    -61.691630     0.000000     0.006416   -61.685214
	   94 D(7,10,13,16)   =   -116.900561    -0.000012    -0.905708  -117.806269
	   95 D(7,10,13,17)   =      4.660507    -0.000013    -0.224619     4.435888
	   96 D(7,10,13,18)   =    119.793649     0.000014     0.604948   120.398597
	   97 D(8,4,7,10)     =     60.400341    -0.000007    -0.578140    59.822200
	   98 D(8,4,7,11)     =    -61.538687     0.000006     0.011451   -61.527235
	   99 D(8,4,7,12)     =   -178.000458    -0.000001    -0.193908  -178.194366
	  100 D(9,4,7,10)     =    -56.570459    -0.000006    -0.551092   -57.121551
	  101 D(9,4,7,11)     =   -178.509486     0.000007     0.038500  -178.470987
	  102 D(9,4,7,12)     =     65.028743    -0.000000    -0.166860    64.861883
	  103 D(10,13,16,19)  =    175.657679     0.000012     5.950007   181.607686
	  104 D(10,13,16,20)  =     53.922554     0.000008     5.487007    59.409562
	  105 D(10,13,16,21)  =    -62.443859     0.000022     6.101876   -56.341983
	  106 D(11,7,10,13)   =    -61.790472     0.000016     5.341502   -56.448970
	  107 D(11,7,10,14)   =     61.364223     0.000021     5.241142    66.605365
	  108 D(11,7,10,15)   =    176.675603    -0.000005     4.007056   180.682659
	  109 D(12,7,10,13)   =     54.697150     0.000002     4.739609    59.436760
	  110 D(12,7,10,14)   =    177.851845     0.000008     4.639249   182.491095
	  111 D(12,7,10,15)   =    -66.836774    -0.000019     3.405164   -63.431611
	  112 D(13,16,19,22)  =    179.735934    -0.000007    -0.466490   179.269444
	  113 D(13,16,19,23)  =    -58.215021    -0.000007    -0.434091   -58.649113
	  114 D(13,16,19,24)  =     57.693511    -0.000007    -0.439353    57.254158
	  115 *D(14,10,13,16) =    120.000011    -0.000000     0.000000   120.000011
	  116 D(14,10,13,17)  =   -118.438921    -0.000001     0.681089  -117.757832
	  117 D(14,10,13,18)  =     -3.305779     0.000026     1.510655    -1.795123
	  118 D(15,10,13,16)  =      4.689503    -0.000019    -0.598518     4.090985
	  119 D(15,10,13,17)  =    126.250571    -0.000020     0.082571   126.333142
	  120 D(15,10,13,18)  =   -118.616287     0.000007     0.912137  -117.704150
	  121 D(16,19,22,25)  =     59.831350     0.000000     0.074243    59.905593
	  122 D(16,19,22,26)  =    179.886377     0.000000     0.068121   179.954499
	  123 D(16,19,22,27)  =    -60.065768     0.000000     0.067445   -59.998323
	  124 D(17,13,16,19)  =     54.245425    -0.000016     4.150289    58.395714
	  125 D(17,13,16,20)  =    -67.489700    -0.000021     3.687290   -63.802411
	  126 D(17,13,16,21)  =    176.143887    -0.000006     4.302158   180.446044
	  127 D(18,13,16,19)  =    -61.076768     0.000009     5.293685   -55.783083
	  128 D(18,13,16,20)  =    177.188107     0.000004     4.830686   182.018793
	  129 D(18,13,16,21)  =     60.821694     0.000019     5.445554    66.267248
	  130 D(20,16,19,22)  =    -58.505371    -0.000001    -0.092894   -58.598265
	  131 D(20,16,19,23)  =     63.543674    -0.000001    -0.060495    63.483179
	  132 D(20,16,19,24)  =    179.452207    -0.000001    -0.065757   179.386450
	  133 D(21,16,19,22)  =     57.108989     0.000007     0.156436    57.265425
	  134 D(21,16,19,23)  =    179.158034     0.000007     0.188835   179.346868
	  135 D(21,16,19,24)  =    -64.933434     0.000007     0.183573   -64.749861
	  136 D(23,19,22,25)  =    -62.198306     0.000000     0.038690   -62.159615
	  137 D(23,19,22,26)  =     57.856722    -0.000000     0.032568    57.889290
	  138 D(23,19,22,27)  =    177.904577    -0.000000     0.031892   177.936469
	  139 D(24,19,22,25)  =   -178.150847    -0.000000     0.032179  -178.118668
	  140 D(24,19,22,26)  =    -58.095820    -0.000000     0.026057   -58.069763
	  141 D(24,19,22,27)  =     61.952035    -0.000000     0.025381    61.977416
	 ---------------------------------------------------------------------------

  ==> Convergence Check <==

  Measures of convergence in internal coordinates in au.
  Criteria marked as inactive (o), active & met (*), and active & unmet ( ).
  --------------------------------------------------------------------------------------------- ~
   Step     Total Energy     Delta E     MAX Force     RMS Force      MAX Disp      RMS Disp    ~
  --------------------------------------------------------------------------------------------- ~
    Convergence Criteria    1.00e-06 *    3.00e-04 *             o    1.20e-03 *             o  ~
  --------------------------------------------------------------------------------------------- ~
      1    -388.27753409   -3.88e+02      8.56e-03      1.18e-03 o    1.06e-01      3.13e-02 o  ~
  ---------------------------------------------------------------------------------------------

	Writing optimization data to binary file.
	Structure for next step:
	Cartesian Geometry (in Angstrom)
	    H     1.4552186611  -3.4902455045  -1.0804553934
	    O     2.3789636024  -3.3345929443  -1.2130388524
	    C     2.5664232904  -2.0767365387  -1.8102413851
	    C     2.3178915059  -0.9144148345  -0.8550468096
	    H     3.5956423831  -2.0609270770  -2.1449694823
	    H     1.9376658760  -1.9769082858  -2.6942774737
	    C     0.8742059616  -0.8157729470  -0.3568019295
	    H     2.9904155992  -1.0146845629  -0.0070744049
	    H     2.5873344827   0.0082679034  -1.3661879252
	    C     0.6404021794   0.3801312121   0.5666614012
	    H     0.6098889418  -1.7256159031   0.1783550578
	    H     0.1973634019  -0.7474594856  -1.2085979113
	    C    -0.8057310891   0.4717063084   1.1128451489
	    H     1.3488007427   0.3272121366   1.3886684314
	    H     0.8943523827   1.2883298350   0.0234770570
	    C    -1.5450332875   1.7389429062   0.6832715467
	    H    -1.3857998252  -0.3928755350   0.7948068425
	    H    -0.7949767734   0.4308936548   2.1986202525
	    C    -2.9586623474   1.8381246308   1.2600163909
	    H    -1.5948859526   1.7748292772  -0.4042715889
	    H    -0.9694180071   2.6109030263   0.9895373727
	    C    -3.6867805463   3.1152174778   0.8419108293
	    H    -3.5379329961   0.9728457321   0.9447878071
	    H    -2.9077787369   1.7911654396   2.3458229299
	    H    -3.7833838212   3.1757981410  -0.2385304714
	    H    -4.6854952592   3.1557463280   1.2656104470
	    H    -3.1505617220   3.9995056986   1.1747142022
			--------------------------
			 OPTKING Finished Execution 
			--------------------------

    Structure for next step:
    Molecular point group: c1
    Full point group: C1

    Geometry (in Angstrom), charge = 0, multiplicity = 1:

    H            1.458030479873    -3.487941661463    -1.081115141222
    O            2.381775350635    -3.332289113166    -1.213698590143
    C            2.569235024318    -2.074432803575    -1.810901077237
    C            2.320703258795    -0.912111188142    -0.855706574720
    H            3.598454038469    -2.058623343146    -2.145629148848
    H            1.940477657948    -1.974604558337    -2.694937098297
    C            0.877017824757    -0.813469308182    -0.357461732612
    H            2.993227300734    -1.012380908902    -0.007734234684
    H            2.590146215046     0.010571479271    -1.366847651219
    C            0.643214060422     0.382434759579     0.566001527593
    H            0.612700825154    -1.723312194822     0.177695213814
    H            0.200175316730    -0.745155851980    -1.209257649377
    C           -0.802919097646     0.474009848882     1.112185233536
    H            1.351612569582     0.329515688112     1.388008494962
    H            0.897164244297     1.290633313109     0.022817224870
    C           -1.542221239564     1.741246349931     0.682611664150
    H           -1.382987789459    -0.390571928459     0.794146951459
    H           -0.792164782818     0.433197198432     2.197960254196
    C           -2.955850191564     1.840428066955     1.259356464274
    H           -1.592073900921     1.777132718188    -0.404931388386
    H           -0.966606003206     2.613206403424     0.988877466746
    C           -3.683968334811     3.117520816370     0.841250934642
    H           -3.535120795977     0.975149234313     0.944127904556
    H           -2.904966584918     1.793468879290     2.345162920402
    H           -3.780571602323     3.178101474950    -0.239190283580
    H           -4.682682971515     3.158049663505     1.264950519970
    H           -3.147749551500     4.001808969719     1.174054282097

gradient() will perform analytic gradient computation.

*** tstart() called on cx1-1-1-4.cx1.hpc.ic.ac.uk
*** at Fri Sep  2 14:41:36 2016


         ---------------------------------------------------------
                                   SCF
            by Justin Turney, Rob Parrish, and Andy Simmonett
                              RHF Reference
                        4 Threads,   2000 MiB Core
         ---------------------------------------------------------

  ==> Geometry <==

    Molecular point group: c1
    Full point group: C1

    Geometry (in Angstrom), charge = 0, multiplicity = 1:

       Center              X                  Y                   Z               Mass       
    ------------   -----------------  -----------------  -----------------  -----------------
           H          1.458030479873    -3.487941661463    -1.081115141222     1.007825032070
           O          2.381775350635    -3.332289113166    -1.213698590143    15.994914619560
           C          2.569235024318    -2.074432803575    -1.810901077237    12.000000000000
           C          2.320703258795    -0.912111188142    -0.855706574720    12.000000000000
           H          3.598454038469    -2.058623343146    -2.145629148848     1.007825032070
           H          1.940477657948    -1.974604558337    -2.694937098297     1.007825032070
           C          0.877017824757    -0.813469308182    -0.357461732612    12.000000000000
           H          2.993227300734    -1.012380908902    -0.007734234684     1.007825032070
           H          2.590146215046     0.010571479271    -1.366847651219     1.007825032070
           C          0.643214060422     0.382434759579     0.566001527593    12.000000000000
           H          0.612700825154    -1.723312194822     0.177695213814     1.007825032070
           H          0.200175316730    -0.745155851980    -1.209257649377     1.007825032070
           C         -0.802919097646     0.474009848882     1.112185233536    12.000000000000
           H          1.351612569582     0.329515688112     1.388008494962     1.007825032070
           H          0.897164244297     1.290633313109     0.022817224870     1.007825032070
           C         -1.542221239564     1.741246349931     0.682611664150    12.000000000000
           H         -1.382987789459    -0.390571928459     0.794146951459     1.007825032070
           H         -0.792164782818     0.433197198432     2.197960254196     1.007825032070
           C         -2.955850191564     1.840428066955     1.259356464274    12.000000000000
           H         -1.592073900921     1.777132718188    -0.404931388386     1.007825032070
           H         -0.966606003206     2.613206403424     0.988877466746     1.007825032070
           C         -3.683968334811     3.117520816370     0.841250934642    12.000000000000
           H         -3.535120795977     0.975149234313     0.944127904556     1.007825032070
           H         -2.904966584918     1.793468879290     2.345162920402     1.007825032070
           H         -3.780571602323     3.178101474950    -0.239190283580     1.007825032070
           H         -4.682682971515     3.158049663505     1.264950519970     1.007825032070
           H         -3.147749551500     4.001808969719     1.174054282097     1.007825032070

  Running in c1 symmetry.

  Rotational constants: A =      0.17397  B =      0.01304  C =      0.01292 [cm^-1]
  Rotational constants: A =   5215.62105  B =    391.01571  C =    387.37231 [MHz]
  Nuclear repulsion =  453.150760619183870

  Charge       = 0
  Multiplicity = 1
  Electrons    = 74
  Nalpha       = 37
  Nbeta        = 37

  ==> Algorithm <==

  SCF Algorithm Type is DF.
  DIIS enabled.
  MOM disabled.
  Fractional occupation disabled.
  Guess Type is READ.
  Energy threshold   = 1.00e-08
  Density threshold  = 1.00e-08
  Integral threshold = 0.00e+00

  ==> Primary Basis <==

  Basis Set: 6-31G*
    Number of shells: 90
    Number of basis function: 171
    Number of Cartesian functions: 171
    Spherical Harmonics?: false
    Max angular momentum: 2

  ==> Pre-Iterations <==

   -------------------------------------------------------
    Irrep   Nso     Nmo     Nalpha   Nbeta   Ndocc  Nsocc
   -------------------------------------------------------
     A        171     171       0       0       0       0
   -------------------------------------------------------
    Total     171     171      37      37      37       0
   -------------------------------------------------------

 OEINTS: Overlap, kinetic, potential, dipole, and quadrupole integrals
         stored in file 35.

  ==> Integral Setup <==

  ==> DFJK: Density-Fitted J/K Matrices <==

    J tasked:                  Yes
    K tasked:                  Yes
    wK tasked:                  No
    OpenMP threads:              4
    Integrals threads:           4
    Memory (MB):              1430
    Algorithm:                Core
    Integral Cache:           NONE
    Schwarz Cutoff:          1E-12
    Fitting Condition:       1E-12

   => Auxiliary Basis Set <=

  Basis Set: 
    Number of shells: 378
    Number of basis function: 1179
    Number of Cartesian functions: 1179
    Spherical Harmonics?: false
    Max angular momentum: 3

  Minimum eigenvalue in the overlap matrix is 3.1704623799E-03.
  Using Symmetric Orthogonalization.
  SCF Guess: Reading in previously saved MOs, projecting if necessary.

  Using orbitals from previous SCF, no projection.
  Recomputing DOCC and SOCC from number of alpha and beta electrons from previous calculation.
              A 
    DOCC [    37 ]

  ==> Iterations <==

                           Total Energy        Delta E     RMS |[F,P]|

   @DF-RHF iter   0:  -388.25153462436685   -3.88252e+02   9.09030e-04 
   @DF-RHF iter   1:  -388.27685050222033   -2.53159e-02   1.89005e-04 
   @DF-RHF iter   2:  -388.27782361715242   -9.73115e-04   6.45869e-05 DIIS
   @DF-RHF iter   3:  -388.27795409938847   -1.30482e-04   2.13705e-05 DIIS
   @DF-RHF iter   4:  -388.27796335939331   -9.26000e-06   3.34723e-06 DIIS
   @DF-RHF iter   5:  -388.27796383095495   -4.71562e-07   1.14319e-06 DIIS
   @DF-RHF iter   6:  -388.27796387637670   -4.54218e-08   3.87514e-07 DIIS
   @DF-RHF iter   7:  -388.27796388270951   -6.33281e-09   9.85986e-08 DIIS
   @DF-RHF iter   8:  -388.27796388316665   -4.57135e-10   2.12006e-08 DIIS
   @DF-RHF iter   9:  -388.27796388318541   -1.87583e-11   5.77843e-09 DIIS

  ==> Post-Iterations <==

    Orbital Energies (a.u.)
    -----------------------

    Doubly Occupied:                                                      

       1A    -20.552175     2A    -11.267115     3A    -11.220487  
       4A    -11.216977     5A    -11.215902     6A    -11.215433  
       7A    -11.215142     8A    -11.214517     9A    -11.209412  
      10A     -1.358926    11A     -1.093551    12A     -1.062615  
      13A     -1.010199    14A     -0.950778    15A     -0.882454  
      16A     -0.821100    17A     -0.793536    18A     -0.789986  
      19A     -0.694115    20A     -0.650629    21A     -0.635895  
      22A     -0.614997    23A     -0.603567    24A     -0.581195  
      25A     -0.579265    26A     -0.554455    27A     -0.538062  
      28A     -0.520916    29A     -0.507707    30A     -0.501437  
      31A     -0.477189    32A     -0.476138    33A     -0.471036  
      34A     -0.463322    35A     -0.453060    36A     -0.441326  
      37A     -0.420855  

    Virtual:                                                              

      38A      0.220988    39A      0.229428    40A      0.244412  
      41A      0.255820    42A      0.266310    43A      0.278699  
      44A      0.282144    45A      0.302969    46A      0.312969  
      47A      0.317518    48A      0.326898    49A      0.330776  
      50A      0.332663    51A      0.343350    52A      0.346688  
      53A      0.357704    54A      0.364971    55A      0.376934  
      56A      0.395709    57A      0.409187    58A      0.420158  
      59A      0.434805    60A      0.461032    61A      0.463173  
      62A      0.483771    63A      0.502614    64A      0.695932  
      65A      0.716135    66A      0.729646    67A      0.749559  
      68A      0.751351    69A      0.754526    70A      0.773782  
      71A      0.798874    72A      0.819777    73A      0.824289  
      74A      0.868225    75A      0.887124    76A      0.910954  
      77A      0.935918    78A      0.956845    79A      0.965451  
      80A      0.992247    81A      1.016479    82A      1.028453  
      83A      1.053535    84A      1.061701    85A      1.078374  
      86A      1.103300    87A      1.131051    88A      1.136559  
      89A      1.152051    90A      1.156606    91A      1.161307  
      92A      1.175867    93A      1.181032    94A      1.187434  
      95A      1.193944    96A      1.197220    97A      1.210251  
      98A      1.219466    99A      1.222276   100A      1.231285  
     101A      1.239131   102A      1.246333   103A      1.261696  
     104A      1.270080   105A      1.279687   106A      1.325080  
     107A      1.382976   108A      1.400933   109A      1.434540  
     110A      1.502612   111A      1.552133   112A      1.628996  
     113A      1.661214   114A      1.703534   115A      1.742656  
     116A      1.754179   117A      1.800131   118A      1.818357  
     119A      1.875461   120A      1.926991   121A      1.943036  
     122A      1.997205   123A      2.004027   124A      2.054136  
     125A      2.087759   126A      2.148014   127A      2.161944  
     128A      2.180239   129A      2.210108   130A      2.248131  
     131A      2.256675   132A      2.264794   133A      2.285776  
     134A      2.303782   135A      2.313516   136A      2.328335  
     137A      2.373918   138A      2.399505   139A      2.404395  
     140A      2.464262   141A      2.505896   142A      2.548646  
     143A      2.607090   144A      2.611118   145A      2.638282  
     146A      2.666818   147A      2.697377   148A      2.698594  
     149A      2.727073   150A      2.760394   151A      2.786923  
     152A      2.811489   153A      2.820444   154A      2.891246  
     155A      2.931413   156A      2.948708   157A      2.991894  
     158A      3.051015   159A      3.105036   160A      3.152355  
     161A      3.184467   162A      3.221258   163A      4.186384  
     164A      4.546292   165A      4.602320   166A      4.681427  
     167A      4.751316   168A      4.811445   169A      4.874795  
     170A      4.962342   171A      5.010673  

    Final Occupation by Irrep:
              A 
    DOCC [    37 ]

  Energy converged.

  @DF-RHF Final Energy:  -388.27796388318541

   => Energetics <=

    Nuclear Repulsion Energy =            453.1507606191838704
    One-Electron Energy =               -1424.3065076845909971
    Two-Electron Energy =                 582.8777831822214921
    DFT Exchange-Correlation Energy =       0.0000000000000000
    Empirical Dispersion Energy =           0.0000000000000000
    PCM Polarization Energy =               0.0000000000000000
    EFP Energy =                            0.0000000000000000
    Total Energy =                       -388.2779638831856346

    Alert: EFP and PCM quantities not currently incorporated into SCF psivars.

Properties will be evaluated at   0.000000,   0.000000,   0.000000 Bohr
  ==> Properties <==


Properties computed using the SCF density matrix

  Nuclear Dipole Moment: (a.u.)
     X:    -6.6848      Y:     7.6415      Z:     2.0080

  Electronic Dipole Moment: (a.u.)
     X:     6.1594      Y:    -7.1512      Z:    -2.0943

  Dipole Moment: (a.u.)
     X:    -0.5254      Y:     0.4902      Z:    -0.0863     Total:     0.7238

  Dipole Moment: (Debye)
     X:    -1.3355      Y:     1.2460      Z:    -0.2193     Total:     1.8396


  Saving occupied orbitals to File 180.

*** tstop() called on cx1-1-1-4.cx1.hpc.ic.ac.uk at Fri Sep  2 14:41:46 2016
Module time:
	user time   =      28.79 seconds =       0.48 minutes
	system time =       0.34 seconds =       0.01 minutes
	total time  =         10 seconds =       0.17 minutes
Total time:
	user time   =     113.12 seconds =       1.89 minutes
	system time =       1.08 seconds =       0.02 minutes
	total time  =         36 seconds =       0.60 minutes

*** tstart() called on cx1-1-1-4.cx1.hpc.ic.ac.uk
*** at Fri Sep  2 14:41:46 2016


         ------------------------------------------------------------
                                   SCF GRAD                          
                          Rob Parrish, Justin Turney,                
                       Andy Simmonett, and Alex Sokolov              
         ------------------------------------------------------------

  ==> Geometry <==

    Molecular point group: c1
    Full point group: C1

    Geometry (in Angstrom), charge = 0, multiplicity = 1:

       Center              X                  Y                   Z               Mass       
    ------------   -----------------  -----------------  -----------------  -----------------
           H          1.458030479873    -3.487941661463    -1.081115141222     1.007825032070
           O          2.381775350635    -3.332289113166    -1.213698590143    15.994914619560
           C          2.569235024318    -2.074432803575    -1.810901077237    12.000000000000
           C          2.320703258795    -0.912111188142    -0.855706574720    12.000000000000
           H          3.598454038469    -2.058623343146    -2.145629148848     1.007825032070
           H          1.940477657948    -1.974604558337    -2.694937098297     1.007825032070
           C          0.877017824757    -0.813469308182    -0.357461732612    12.000000000000
           H          2.993227300734    -1.012380908902    -0.007734234684     1.007825032070
           H          2.590146215046     0.010571479271    -1.366847651219     1.007825032070
           C          0.643214060422     0.382434759579     0.566001527593    12.000000000000
           H          0.612700825154    -1.723312194822     0.177695213814     1.007825032070
           H          0.200175316730    -0.745155851980    -1.209257649377     1.007825032070
           C         -0.802919097646     0.474009848882     1.112185233536    12.000000000000
           H          1.351612569582     0.329515688112     1.388008494962     1.007825032070
           H          0.897164244297     1.290633313109     0.022817224870     1.007825032070
           C         -1.542221239564     1.741246349931     0.682611664150    12.000000000000
           H         -1.382987789459    -0.390571928459     0.794146951459     1.007825032070
           H         -0.792164782818     0.433197198432     2.197960254196     1.007825032070
           C         -2.955850191564     1.840428066955     1.259356464274    12.000000000000
           H         -1.592073900921     1.777132718188    -0.404931388386     1.007825032070
           H         -0.966606003206     2.613206403424     0.988877466746     1.007825032070
           C         -3.683968334811     3.117520816370     0.841250934642    12.000000000000
           H         -3.535120795977     0.975149234313     0.944127904556     1.007825032070
           H         -2.904966584918     1.793468879290     2.345162920402     1.007825032070
           H         -3.780571602323     3.178101474950    -0.239190283580     1.007825032070
           H         -4.682682971515     3.158049663505     1.264950519970     1.007825032070
           H         -3.147749551500     4.001808969719     1.174054282097     1.007825032070

  Nuclear repulsion =  453.150760619183870

  ==> Basis Set <==

  Basis Set: 6-31G*
    Number of shells: 90
    Number of basis function: 171
    Number of Cartesian functions: 171
    Spherical Harmonics?: false
    Max angular momentum: 2

  ==> DFJKGrad: Density-Fitted SCF Gradients <==

    Gradient:                    1
    J tasked:                  Yes
    K tasked:                  Yes
    wK tasked:                  No
    OpenMP threads:              4
    Integrals threads:           4
    Memory (MB):              1430
    Schwarz Cutoff:          0E+00
    Fitting Condition:       1E-12

   => Auxiliary Basis Set <=

  Basis Set: 
    Number of shells: 378
    Number of basis function: 1179
    Number of Cartesian functions: 1179
    Spherical Harmonics?: false
    Max angular momentum: 3


  -Total Gradient:
     Atom            X                  Y                   Z
    ------   -----------------  -----------------  -----------------
       1        0.000015180589    -0.000048264415    -0.000049609883
       2        0.000006095159    -0.000084642266     0.000024716636
       3       -0.000064674340     0.000010282433     0.000088825692
       4        0.000565630487     0.000216180879     0.000180947940
       5       -0.000012200774    -0.000011104387     0.000017941883
       6       -0.000005262294    -0.000004050665    -0.000026497791
       7       -0.000210200468     0.001046993908     0.000250333506
       8        0.000066971754     0.000050330196    -0.000002391880
       9       -0.000046931260    -0.000125395754     0.000044024390
      10        0.000773654385    -0.000106071539    -0.000051885271
      11       -0.000206743504     0.000142608044     0.000120400197
      12       -0.000026385458     0.000204196150     0.000007940812
      13       -0.001060635549    -0.000532427552    -0.000569531154
      14        0.000634416183     0.000377253326    -0.000801766269
      15        0.001454504261    -0.000273514678    -0.000496329701
      16        0.000499220464    -0.000870970297     0.000438320710
      17       -0.001561876152     0.000178756463     0.000632612668
      18       -0.000858274940     0.000272486438    -0.000281051272
      19       -0.000353772215    -0.000262256036     0.000463282908
      20        0.000055262364    -0.000269461285     0.000021437900
      21        0.000217747741    -0.000052751248    -0.000120051553
      22        0.000115865419     0.000034902896     0.000081212270
      23        0.000058804660     0.000095566330     0.000012765923
      24       -0.000046653365    -0.000043363679     0.000028973610
      25        0.000005661961    -0.000002717320    -0.000017445307
      26        0.000022705276    -0.000003548228     0.000009242989
      27       -0.000038110377     0.000060982294    -0.000006419952


*** tstop() called on cx1-1-1-4.cx1.hpc.ic.ac.uk at Fri Sep  2 14:41:58 2016
Module time:
	user time   =      42.84 seconds =       0.71 minutes
	system time =       0.35 seconds =       0.01 minutes
	total time  =         12 seconds =       0.20 minutes
Total time:
	user time   =     155.97 seconds =       2.60 minutes
	system time =       1.43 seconds =       0.02 minutes
	total time  =         48 seconds =       0.80 minutes
CURRENT ENERGY: -388.2779638832

			-----------------------------------------
			 OPTKING 2.0: for geometry optimizations 
			  - R.A. King,  Bethel University        
			-----------------------------------------

	Previous internal coordinate definitions found.
	---Fragment 1 Geometry and Gradient---
	 H           2.7552783004       -6.5912545076       -2.0430115350
	 O           4.5009031228       -6.2971138195       -2.2935579432
	 C           4.8551505670       -3.9201098798       -3.4221070897
	 C           4.3854935948       -1.7236403483       -1.6170510763
	 H           6.8000926345       -3.8902343293       -4.0546514741
	 H           3.6669713405       -3.7314618360       -5.0926930611
	 C           1.6573235025       -1.5372342100       -0.6755047776
	 H           5.6563798519       -1.9131226600       -0.0146155854
	 H           4.8946669906        0.0199772006       -2.5829677262
	 C           1.2154984190        0.7226969593        1.0695878779
	 H           1.1578367609       -3.2565880897        0.3357952892
	 H           0.3782765272       -1.4081404866       -2.2851657814
	 C          -1.5172972014        0.8957487987        2.1017255004
	 H           2.5541775943        0.6226944070        2.6229559256
	 H           1.6953947179        2.4389434998        0.0431183061
	 C          -2.9143757791        3.2904787313        1.2899491004
	 H          -2.6134681672       -0.7380739800        1.5007202475
	 H          -1.4969744916        0.8186240666        4.1535429314
	 C          -5.5857473519        3.4779050138        2.3798388212
	 H          -3.0085836561        3.3582941392       -0.7652094267
	 H          -1.8266206245        4.9382444312        1.8687075911
	 C          -6.9616912350        5.8912605565        1.5897338755
	 H          -6.6804101511        1.8427649915        1.7841431740
	 H          -5.4895912707        3.3891650097        4.4317156566
	 H          -7.1442449542        6.0057414102       -0.4520041296
	 H          -8.8489883833        5.9678489781        2.3904100544
	 H          -5.9483845872        7.5623229889        2.2186410583
	             0.0000151806       -0.0000482644       -0.0000496099
	             0.0000060952       -0.0000846423        0.0000247166
	            -0.0000646743        0.0000102824        0.0000888257
	             0.0005656305        0.0002161809        0.0001809479
	            -0.0000122008       -0.0000111044        0.0000179419
	            -0.0000052623       -0.0000040507       -0.0000264978
	            -0.0002102005        0.0010469939        0.0002503335
	             0.0000669718        0.0000503302       -0.0000023919
	            -0.0000469313       -0.0001253958        0.0000440244
	             0.0007736544       -0.0001060715       -0.0000518853
	            -0.0002067435        0.0001426080        0.0001204002
	            -0.0000263855        0.0002041962        0.0000079408
	            -0.0010606355       -0.0005324276       -0.0005695312
	             0.0006344162        0.0003772533       -0.0008017663
	             0.0014545043       -0.0002735147       -0.0004963297
	             0.0004992205       -0.0008709703        0.0004383207
	            -0.0015618762        0.0001787565        0.0006326127
	            -0.0008582749        0.0002724864       -0.0002810513
	            -0.0003537722       -0.0002622560        0.0004632829
	             0.0000552624       -0.0002694613        0.0000214379
	             0.0002177477       -0.0000527512       -0.0001200516
	             0.0001158654        0.0000349029        0.0000812123
	             0.0000588047        0.0000955663        0.0000127659
	            -0.0000466534       -0.0000433637        0.0000289736
	             0.0000056620       -0.0000027173       -0.0000174453
	             0.0000227053       -0.0000035482        0.0000092430
	            -0.0000381104        0.0000609823       -0.0000064200

	---Fragment 1 Intrafragment Coordinates---
	 - Coordinate -           - BOHR/RAD -       - ANG/DEG -
	 R(1,2)           =         1.787875	       0.946103
	 R(2,3)           =         2.655045	       1.404989
	 R(3,4)           =         2.881542	       1.524846
	 R(3,5)           =         2.045435	       1.082398
	 R(3,6)           =         2.058693	       1.089413
	 R(4,7)           =         2.892087	       1.530427
	 R(4,8)           =         2.053985	       1.086922
	 R(4,9)           =         2.057293	       1.088673
	 R(7,10)          =         2.889264	       1.528933
	 R(7,11)          =         2.056306	       1.088150
	 R(7,12)          =         2.060008	       1.090110
	 R(10,13)         =         2.926333	       1.548549
	 R(10,14)         =         2.053050	       1.086427
	 R(10,15)         =         2.056561	       1.088285
	 R(13,16)         =         2.888865	       1.528722
	 R(13,17)         =         2.057225	       1.088637
	 R(13,18)         =         2.053367	       1.086595
	 R(16,19)         =         2.891231	       1.529973
	 R(16,20)         =         2.058434	       1.089276
	 R(16,21)         =         2.057500	       1.088782
	 R(19,22)         =         2.888213	       1.528376
	 R(19,23)         =         2.055924	       1.087948
	 R(19,24)         =         2.056045	       1.088012
	 R(22,25)         =         2.053077	       1.086442
	 R(22,26)         =         2.051545	       1.085631
	 R(22,27)         =         2.052989	       1.086395
	 B(1,2,3)         =         1.914661	     109.702012
	 B(2,3,4)         =         1.976231	     113.229717
	 B(2,3,5)         =         1.845637	     105.747205
	 B(2,3,6)         =         1.928323	     110.484783
	 B(3,4,7)         =         1.989764	     114.005074
	 B(3,4,8)         =         1.893932	     108.514290
	 B(3,4,9)         =         1.887657	     108.154792
	 B(4,3,5)         =         1.915126	     109.728616
	 B(4,3,6)         =         1.922405	     110.145710
	 B(4,7,10)        =         1.972843	     113.035565
	 B(4,7,11)        =         1.912780	     109.594242
	 B(4,7,12)        =         1.912778	     109.594112
	 B(5,3,6)         =         1.871833	     107.248156
	 B(7,4,8)         =         1.913071	     109.610883
	 B(7,4,9)         =         1.908897	     109.371722
	 B(7,10,13)       =         1.984598	     113.709107
	 B(7,10,14)       =         1.895660	     108.613312
	 B(7,10,15)       =         1.891886	     108.397098
	 B(8,4,9)         =         1.866424	     106.938220
	 B(10,7,11)       =         1.896337	     108.652097
	 B(10,7,12)       =         1.904968	     109.146651
	 B(10,13,16)      =         1.983987	     113.674087
	 B(10,13,17)      =         1.925799	     110.340176
	 B(10,13,18)      =         1.918752	     109.936395
	 B(11,7,12)       =         1.860709	     106.610772
	 B(13,10,14)      =         1.922968	     110.177975
	 B(13,10,15)      =         1.922618	     110.157898
	 B(13,16,19)      =         1.976475	     113.243698
	 B(13,16,20)      =         1.907098	     109.268643
	 B(13,16,21)      =         1.906206	     109.217575
	 B(14,10,15)      =         1.840179	     105.434486
	 B(16,13,17)      =         1.895011	     108.576156
	 B(16,13,18)      =         1.893057	     108.464180
	 B(16,19,22)      =         1.972750	     113.030270
	 B(16,19,23)      =         1.908342	     109.339970
	 B(16,19,24)      =         1.907302	     109.280354
	 B(17,13,18)      =         1.841456	     105.507651
	 B(19,16,20)      =         1.909158	     109.386684
	 B(19,16,21)      =         1.907653	     109.300488
	 B(19,22,25)      =         1.940141	     111.161869
	 B(19,22,26)      =         1.941946	     111.265334
	 B(19,22,27)      =         1.940349	     111.173784
	 B(20,16,21)      =         1.853191	     106.180010
	 B(22,19,23)      =         1.908848	     109.368934
	 B(22,19,24)      =         1.908532	     109.350847
	 B(23,19,24)      =         1.854312	     106.244256
	 B(25,22,26)      =         1.879941	     107.712687
	 B(25,22,27)      =         1.878788	     107.646632
	 B(26,22,27)      =         1.879807	     107.704986
	 D(1,2,3,4)       =         1.272224	      72.893094
	 D(1,2,3,5)       =        -2.913446	    -166.928184
	 D(1,2,3,6)       =        -0.893488	     -51.193108
	 D(2,3,4,7)       =        -1.118330	     -64.075566
	 D(2,3,4,8)       =         1.018859	      58.376342
	 D(2,3,4,9)       =         3.037636	     174.043724
	 D(3,4,7,10)      =        -3.112424	    -178.328786
	 D(3,4,7,11)      =         1.052814	      60.321778
	 D(3,4,7,12)      =        -0.983412	     -56.345353
	 D(4,7,10,13)     =        -3.112430	    -178.329108
	 D(4,7,10,14)     =        -0.964727	     -55.274773
	 D(4,7,10,15)     =         1.026298	      58.802522
	 D(5,3,4,7)       =         3.107400	     178.040904
	 D(5,3,4,8)       =        -1.038596	     -59.507188
	 D(5,3,4,9)       =         0.980180	      56.160194
	 D(6,3,4,7)       =         1.050610	      60.195496
	 D(6,3,4,8)       =        -3.095387	    -177.352596
	 D(6,3,4,9)       =        -1.076610	     -61.685214
	 D(7,10,13,16)    =        -2.056107	    -117.806269
	 D(7,10,13,17)    =         0.077421	       4.435888
	 D(7,10,13,18)    =         2.101352	     120.398597
	 D(8,4,7,10)      =         1.044094	      59.822200
	 D(8,4,7,11)      =        -1.073853	     -61.527235
	 D(8,4,7,12)      =        -3.110078	    -178.194366
	 D(9,4,7,10)      =        -0.996959	     -57.121551
	 D(9,4,7,11)      =        -3.114906	    -178.470987
	 D(9,4,7,12)      =         1.132053	      64.861883
	 D(10,13,16,19)   =        -3.113533	    -178.392314
	 D(10,13,16,20)   =         1.036892	      59.409562
	 D(10,13,16,21)   =        -0.983353	     -56.341983
	 D(11,7,10,13)    =        -0.985220	     -56.448970
	 D(11,7,10,14)    =         1.162483	      66.605365
	 D(11,7,10,15)    =        -3.129678	    -179.317341
	 D(12,7,10,13)    =         1.037367	      59.436760
	 D(12,7,10,14)    =        -3.098115	    -177.508905
	 D(12,7,10,15)    =        -1.107090	     -63.431611
	 D(13,16,19,22)   =         3.128842	     179.269444
	 D(13,16,19,23)   =        -1.023620	     -58.649113
	 D(13,16,19,24)   =         0.999274	      57.254158
	*D(14,10,13,16)   =         2.094395	     120.000011
	 D(14,10,13,17)   =        -2.055262	    -117.757832
	 D(14,10,13,18)   =        -0.031331	      -1.795123
	 D(15,10,13,16)   =         0.071401	       4.090985
	 D(15,10,13,17)   =         2.204929	     126.333142
	 D(15,10,13,18)   =        -2.054325	    -117.704150
[...]

	Back-transformation to cartesian coordinates to adjust frozen coordinates...
	Successfully converged to displaced geometry.

	--- Internal Coordinate Step in ANG or DEG, aJ/ANG or AJ/DEG ---
	 ---------------------------------------------------------------------------
	   Coordinate                Previous        Force       Change         New 
	   ----------                --------       ------       ------       ------
	    1 R(1,2)          =      0.946131    -0.000078    -0.000000     0.946131
	    2 R(2,3)          =      1.404879    -0.000158    -0.000009     1.404869
	    3 R(3,4)          =      1.524795     0.000172    -0.000003     1.524792
	    4 R(3,5)          =      1.082392    -0.000018     0.000002     1.082394
	    5 R(3,6)          =      1.089414     0.000012    -0.000003     1.089411
	    6 R(4,7)          =      1.529746    -0.000131    -0.000023     1.529723
	    7 R(4,8)          =      1.086928    -0.000017    -0.000003     1.086925
	    8 R(4,9)          =      1.088818     0.000037     0.000005     1.088822
	    9 R(7,10)         =      1.530683     0.000405     0.000073     1.530756
	   10 R(7,11)         =      1.088159     0.000144     0.000033     1.088193
	   11 R(7,12)         =      1.090108     0.000013    -0.000000     1.090108
	   12 R(10,13)        =      1.545274    -0.000097     0.000015     1.545289
	   13 R(10,14)        =      1.086668    -0.000168    -0.000027     1.086641
	   14 R(10,15)        =      1.087702     0.000083     0.000007     1.087709
	   15 R(13,16)        =      1.530621     0.000523     0.000080     1.530702
	   16 R(13,17)        =      1.087956    -0.000046    -0.000004     1.087952
	   17 R(13,18)        =      1.086890    -0.000089    -0.000020     1.086870
	   18 R(16,19)        =      1.529175    -0.000019    -0.000013     1.529161
	   19 R(16,20)        =      1.089295     0.000079     0.000010     1.089304
	   20 R(16,21)        =      1.088735     0.000149     0.000025     1.088760
	   21 R(19,22)        =      1.528375     0.000044     0.000004     1.528379
	   22 R(19,23)        =      1.088077     0.000016     0.000004     1.088081
	   23 R(19,24)        =      1.088030    -0.000022    -0.000004     1.088027
	   24 R(22,25)        =      1.086423    -0.000058    -0.000003     1.086420
	   25 R(22,26)        =      1.085630     0.000025     0.000003     1.085633
	   26 R(22,27)        =      1.086375     0.000024    -0.000001     1.086374
	   27 B(1,2,3)        =    109.690476    -0.000001    -0.001217   109.689259
	   28 B(2,3,4)        =    113.211703     0.000001    -0.003210   113.208494
	   29 B(2,3,5)        =    105.757750    -0.000001     0.001156   105.758906
	   30 B(2,3,6)        =    110.483275     0.000000     0.000816   110.484091
	   31 B(3,4,7)        =    113.997887     0.000002     0.001909   113.999795
	   32 B(3,4,8)        =    108.509422     0.000001     0.002385   108.511806
	   33 B(3,4,9)        =    108.158131    -0.000001    -0.002060   108.156071
	   34 B(4,3,5)        =    109.747279    -0.000000     0.001100   109.748379
	   35 B(4,3,6)        =    110.130500     0.000000    -0.000169   110.130332
	   36 B(4,7,10)       =    113.155599    -0.000000     0.004010   113.159608
	   37 B(4,7,11)       =    109.604032     0.000001     0.005845   109.609876
	   38 B(4,7,12)       =    109.499447    -0.000001    -0.006109   109.493338
	   39 B(5,3,6)        =    107.256581    -0.000000     0.000562   107.257143
	   40 B(7,4,8)        =    109.635798    -0.000002    -0.003507   109.632292
	   41 B(7,4,9)        =    109.358388    -0.000001    -0.000120   109.358268
	   42 B(7,10,13)      =    113.635719    -0.000008    -0.024078   113.611641
	   43 B(7,10,14)      =    108.833496     0.000002     0.006694   108.840190
	   44 B(7,10,15)      =    108.672394     0.000004     0.012787   108.685181
	   45 B(8,4,9)        =    106.935311     0.000000     0.001427   106.936738
	   46 B(10,7,11)      =    108.684125    -0.000001    -0.003261   108.680864
	   47 B(10,7,12)      =    109.093974     0.000001     0.005610   109.099584
	   48 B(10,13,16)     =    113.589173    -0.000007    -0.024485   113.564688
	   49 B(10,13,17)     =    109.658111     0.000002     0.000096   109.658207
	   50 B(10,13,18)     =    109.914477     0.000001     0.007069   109.921546
	   51 B(11,7,12)      =    106.588900    -0.000001    -0.006720   106.582180
	   52 B(13,10,14)     =    110.046758     0.000003     0.008599   110.055357
	   53 B(13,10,15)     =    109.595645     0.000000    -0.001675   109.593970
	   54 B(13,16,19)     =    113.382058     0.000001     0.005220   113.387278
	   55 B(13,16,20)     =    109.221563     0.000002     0.014138   109.235701
	   56 B(13,16,21)     =    109.230283    -0.000002    -0.013538   109.216746
	   57 B(14,10,15)     =    105.746407    -0.000002    -0.000586   105.745820
	   58 B(16,13,17)     =    108.790311     0.000003     0.008338   108.798649
	   59 B(16,13,18)     =    108.828149     0.000003     0.011826   108.839975
	   60 B(16,19,22)     =    113.034805     0.000001     0.002318   113.037124
	   61 B(16,19,23)     =    109.325772    -0.000000     0.002014   109.327786
	   62 B(16,19,24)     =    109.307579    -0.000001    -0.005543   109.302036
	   63 B(17,13,18)     =    105.756408    -0.000001    -0.001137   105.755270
	   64 B(19,16,20)     =    109.293968    -0.000001    -0.002437   109.291531
	   65 B(19,16,21)     =    109.290243     0.000000     0.002212   109.292455
	   66 B(19,22,25)     =    111.161490    -0.000001    -0.001514   111.159976
	   67 B(19,22,26)     =    111.270064     0.000001     0.001541   111.271605
	   68 B(19,22,27)     =    111.152435     0.000001    -0.000135   111.152300
	   69 B(20,16,21)     =    106.169640    -0.000000    -0.006372   106.163268
	   70 B(22,19,23)     =    109.352750     0.000000     0.002111   109.354862
	   71 B(22,19,24)     =    109.355901    -0.000001    -0.002170   109.353730
	   72 B(23,19,24)     =    106.237108     0.000000     0.001204   106.238312
	   73 B(25,22,26)     =    107.715209     0.000000     0.000155   107.715364
	   74 B(25,22,27)     =    107.650053     0.000000     0.000062   107.650115
	   75 B(26,22,27)     =    107.717064    -0.000000    -0.000105   107.716960
	   76 D(1,2,3,4)      =     72.325202     0.000000    -0.001577    72.323626
	   77 D(1,2,3,5)      =   -167.476510     0.000000    -0.001307  -167.477817
	   78 D(1,2,3,6)      =    -51.726463    -0.000000     0.000394   -51.726069
	   79 D(2,3,4,7)      =    -64.035545    -0.000000    -0.026040   -64.061585
	   80 D(2,3,4,8)      =     58.439978    -0.000000    -0.027495    58.412483
	   81 D(2,3,4,9)      =    174.103145    -0.000000    -0.025652   174.077492
	   82 D(3,4,7,10)     =   -178.016553     0.000000     0.174777  -177.841776
	   83 D(3,4,7,11)     =     60.504617     0.000000     0.172028    60.676646
	   84 D(3,4,7,12)     =    -56.087178     0.000000     0.180299   -55.906879
	   85 D(4,7,10,13)    =    179.673816    -0.000001    -0.307700   179.366116
	   86 D(4,7,10,14)    =    -57.328218    -0.000001    -0.308252   -57.636470
	   87 D(4,7,10,15)    =     57.375649    -0.000000    -0.298612    57.077037
	   88 D(5,3,4,7)      =    178.066450    -0.000000    -0.026206   178.040244
	   89 D(5,3,4,8)      =    -59.458027    -0.000000    -0.027661   -59.485687
	   90 D(5,3,4,9)      =     56.205140     0.000000    -0.025818    56.179322
	   91 D(6,3,4,7)      =     60.208586    -0.000000    -0.027458    60.181128
	   92 D(6,3,4,8)      =   -177.315891    -0.000000    -0.028912  -177.344803
	   93 D(6,3,4,9)      =    -61.652725     0.000000    -0.027070   -61.679794
	   94 D(7,10,13,16)   =   -117.669972    -0.000000    -0.001917  -117.671889
	   95 D(7,10,13,17)   =      4.282580    -0.000000    -0.008041     4.274539
	   96 D(7,10,13,18)   =    120.138559    -0.000000    -0.005312   120.133247
	   97 D(8,4,7,10)     =     60.127175     0.000000     0.172969    60.300144
	   98 D(8,4,7,11)     =    -61.351654    -0.000000     0.170220   -61.181434
	   99 D(8,4,7,12)     =   -177.943450     0.000000     0.178490  -177.764960
	  100 D(9,4,7,10)     =    -56.819686     0.000000     0.173333   -56.646354
	  101 D(9,4,7,11)     =   -178.298516     0.000000     0.170584  -178.127932
	  102 D(9,4,7,12)     =     65.109689     0.000000     0.178854    65.288543
	  103 D(10,13,16,19)  =    179.052061     0.000000     0.240706   179.292767
	  104 D(10,13,16,20)  =     56.912875     0.000000     0.229953    57.142829
	  105 D(10,13,16,21)  =    -58.807181     0.000000     0.237240   -58.569941
	  106 D(11,7,10,13)   =    -58.331039    -0.000000    -0.299909   -58.630949
	  107 D(11,7,10,14)   =     64.666927    -0.000000    -0.300461    64.366466
	  108 D(11,7,10,15)   =    179.370795     0.000000    -0.290822   179.079973
	  109 D(12,7,10,13)   =     57.517620    -0.000000    -0.306643    57.210976
	  110 D(12,7,10,14)   =   -179.484414    -0.000000    -0.307195  -179.791609
	  111 D(12,7,10,15)   =    -64.780547    -0.000000    -0.297555   -65.078102
	  112 D(13,16,19,22)  =   -179.872183    -0.000001    -0.189489  -180.061672
	  113 D(13,16,19,23)  =    -57.818646    -0.000000    -0.183753   -58.002399
	  114 D(13,16,19,24)  =     58.083361    -0.000001    -0.184287    57.899074
	  115 *D(14,10,13,16) =    120.000011    -0.000000    -0.000000   120.000011
	  116 D(14,10,13,17)  =   -118.047437    -0.000000    -0.006124  -118.053561
	  117 D(14,10,13,18)  =     -2.191458    -0.000000    -0.003396    -2.194853
	  118 D(15,10,13,16)  =      4.116411    -0.000000    -0.003248     4.113163
	  119 D(15,10,13,17)  =    126.068963    -0.000000    -0.009372   126.059591
	  120 D(15,10,13,18)  =   -118.075058    -0.000000    -0.006643  -118.081701
	  121 D(16,19,22,25)  =     59.891881     0.000000     0.067599    59.959481
	  122 D(16,19,22,26)  =    179.946906     0.000000     0.067812   180.014718
	  123 D(16,19,22,27)  =    -60.001820     0.000000     0.068624   -59.933196
	  124 D(17,13,16,19)  =     56.618832     0.000000     0.251131    56.869962
	  125 D(17,13,16,20)  =    -65.520354     0.000000     0.240378   -65.279976
	  126 D(17,13,16,21)  =    178.759590     0.000000     0.247664   179.007255
	  127 D(18,13,16,19)  =    -58.156724     0.000000     0.241739   -57.914985
	  128 D(18,13,16,20)  =    179.704091    -0.000000     0.230986   179.935077
	  129 D(18,13,16,21)  =     63.984035     0.000000     0.238273    64.222307
	  130 D(20,16,19,22)  =    -57.773293    -0.000000    -0.169503   -57.942796
	  131 D(20,16,19,23)  =     64.280244     0.000000    -0.163768    64.116476
	  132 D(20,16,19,24)  =   -179.817749     0.000000    -0.164301  -179.982050
	  133 D(21,16,19,22)  =     58.020426    -0.000000    -0.177259    57.843168
	  134 D(21,16,19,23)  =   -179.926037    -0.000000    -0.171523  -180.097560
	  135 D(21,16,19,24)  =    -64.024030    -0.000000    -0.172056   -64.196086
	  136 D(23,19,22,25)  =    -62.146530     0.000000     0.061916   -62.084613
	  137 D(23,19,22,26)  =     57.908495     0.000000     0.062129    57.970624
	  138 D(23,19,22,27)  =    177.959769     0.000000     0.062941   178.022710
	  139 D(24,19,22,25)  =   -178.090758    -0.000000     0.060505  -178.030254
	  140 D(24,19,22,26)  =    -58.035734    -0.000000     0.060717   -57.975016
	  141 D(24,19,22,27)  =     62.015540     0.000000     0.061530    62.077070
	 ---------------------------------------------------------------------------

  ==> Convergence Check <==

  Measures of convergence in internal coordinates in au.
  Criteria marked as inactive (o), active & met (*), and active & unmet ( ).
  ---------------------------------------------------------------------------------------------
   Step     Total Energy     Delta E     MAX Force     RMS Force      MAX Disp      RMS Disp   
  ---------------------------------------------------------------------------------------------
    Convergence Criteria    1.00e-06 *    3.00e-04 *             o    1.20e-03 *             o
  ---------------------------------------------------------------------------------------------
      6    -388.27807473    5.75e-07 *    9.97e-05 *    2.01e-05 o    5.38e-03      2.04e-03 o  ~
  ---------------------------------------------------------------------------------------------


  **** Optimization is complete! (in 6 steps) ****

  ==> Optimization Summary <==

  Measures of convergence in internal coordinates in au.
  --------------------------------------------------------------------------------------------------------------- ~
   Step         Total Energy             Delta E       MAX Force       RMS Force        MAX Disp        RMS Disp  ~
  --------------------------------------------------------------------------------------------------------------- ~
      1    -388.277534087052   -388.277534087052      0.00855856      0.00118286      0.10649782      0.03133937  ~
      2    -388.277963883185     -0.000429796133      0.00291141      0.00042210      0.06128796      0.02155750  ~
      3    -388.278047055396     -0.000083172211      0.00118083      0.00015940      0.03066686      0.01052690  ~
      4    -388.278070538041     -0.000023482644      0.00050226      0.00011137      0.00899700      0.00277930  ~
      5    -388.278075304996     -0.000004766956      0.00010539      0.00002108      0.00906854      0.00307858  ~
      6    -388.278074729715      0.000000575282      0.00009974      0.00002006      0.00538001      0.00204500  ~
  --------------------------------------------------------------------------------------------------------------- ~

	Writing optimization data to binary file.
	Final energy is   -388.2780747297149
	Final (previous) structure:
	Cartesian Geometry (in Angstrom)
	    H     1.4618494762  -3.4846676743  -1.0641182018
	    O     2.3789348956  -3.3238647457  -1.2322279232
	    C     2.5360746227  -2.0642622882  -1.8342185680
	    C     2.3049401761  -0.9048924819  -0.8711821281
	    H     3.5544267625  -2.0383122061  -2.2000845900
	    H     1.8796457732  -1.9702669986  -2.6985610205
	    C     0.8768121240  -0.8214539122  -0.3293243958
	    H     3.0043895267  -0.9983433139  -0.0444722619
	    H     2.5488240593   0.0208529421  -1.3898728212
	    C     0.6535520741   0.3764344908   0.5970716869
	    H     0.6393418631  -1.7327638222   0.2158477981
	    H     0.1747089522  -0.7645735752  -1.1612808767
	    C    -0.7880248150   0.4759423787   1.1446352901
	    H     1.3614245147   0.3204751902   1.4196486273
	    H     0.9016939822   1.2864970816   0.0554935021
	    C    -1.5204022064   1.7490245408   0.7137219358
	    H    -1.3640088545  -0.3873023789   0.8179855406
	    H    -0.7756953513   0.4288240216   2.2304336931
	    C    -2.9540881683   1.8317390719   1.2391527734
	    H    -1.5319180059   1.8053762191  -0.3740530866
	    H    -0.9610490646   2.6179426658   1.0564311272
	    C    -3.6788606596   3.1042473126   0.8017090519
	    H    -3.5132904828   0.9629120518   0.8980610198
	    H    -2.9425967774   1.7787252182   2.3258301182
	    H    -3.7367467417   3.1700774745  -0.2811715765
	    H    -4.6926233064   3.1330245276   1.1890724699
	    H    -3.1632872296   3.9914111528   1.1585501277
	Saving final (previous) structure.
			--------------------------
			 OPTKING Finished Execution 
			--------------------------

    Final optimized geometry and variables:
    Molecular point group: c1
    Full point group: C1

    Geometry (in Angstrom), charge = 0, multiplicity = 1:

    H            1.461849364555    -3.484667408203    -1.064118120542
    O            2.378934713926    -3.323864491881    -1.232227829099
    C            2.536074429026    -2.064262130599    -1.834218427933
    C            2.304940000059    -0.904892412834    -0.871182061575
    H            3.554426491076    -2.038312050470    -2.200084421952
    H            1.879645629618    -1.970266848174    -2.698560814449
    C            0.876812057040    -0.821453849505    -0.329324370682
    H            3.004389297232    -0.998343237706    -0.044472258496
    H            2.548823864617     0.020852940526    -1.389872715050
    C            0.653552024239     0.376434462060     0.597071641270
    H            0.639341814300    -1.732763689859     0.215847781617
    H            0.174708938902    -0.764573516786    -1.161280788036
    C           -0.788024754777     0.475942342401     1.144635202650
    H            1.361424410722     0.320475165745     1.419648518846
    H            0.901693913311     1.286496983314     0.055493497816
    C           -1.520402090343     1.749024407287     0.713721881278
    H           -1.364008750350    -0.387302349368     0.817985478128
    H           -0.775695292037     0.428823988892     2.230433522752
    C           -2.954087942749     1.831738931997     1.239152678808
    H           -1.531917888903     1.805376081227    -0.374053058000
    H           -0.961048991198     2.617942465843     1.056431046549
    C           -3.678860378652     3.104247075526     0.801708990679
    H           -3.513290214519     0.962911978223     0.898060951232
    H           -2.942596552698     1.778725082371     2.325829940542
    H           -3.736746456385     3.170077232418    -0.281171555039
    H           -4.692622948071     3.133024288343     1.189072379102
    H           -3.163286988044     3.991410847991     1.158550039243

	Cleaning optimization helper files.


Properties will be evaluated at   0.000000,   0.000000,   0.000000 Bohr

Properties computed using the  density matrix

  Nuclear Dipole Moment: (a.u.)
     X:    -6.6961      Y:     7.6149      Z:     2.0131

  Electronic Dipole Moment: (a.u.)
     X:     6.1631      Y:    -7.1260      Z:    -2.0777

  Dipole Moment: (a.u.)
     X:    -0.5330      Y:     0.4889      Z:    -0.0646     Total:     0.7261

  Dipole Moment: (Debye)
     X:    -1.3547      Y:     1.2427      Z:    -0.1642     Total:     1.8457

  Quadrupole Moment: (Debye Ang)
    XX:   -65.2873     YY:   -67.5695     ZZ:   -58.9382
    XY:     8.6436     XZ:     0.7069     YZ:    -1.0821

  Traceless Quadrupole Moment: (Debye Ang)
    XX:    -1.3556     YY:    -3.6379     ZZ:     4.9935
    XY:     8.6436     XZ:     0.7069     YZ:    -1.0821

  Mulliken Charges: (a.u.)
   Center  Symbol    Alpha    Beta     Spin     Total
       1     H     0.27991  0.27991  0.00000  0.44018
       2     O     4.37094  4.37094  0.00000 -0.74187
       3     C     2.99720  2.99720  0.00000  0.00559
       4     C     3.16212  3.16212  0.00000 -0.32423
       5     H     0.41441  0.41441  0.00000  0.17118
       6     H     0.43209  0.43209  0.00000  0.13583
       7     C     3.16337  3.16337  0.00000 -0.32674
       8     H     0.41494  0.41494  0.00000  0.17013
       9     H     0.42406  0.42406  0.00000  0.15189
      10     C     3.15408  3.15408  0.00000 -0.30817
      11     H     0.42456  0.42456  0.00000  0.15088
      12     H     0.42488  0.42488  0.00000  0.15025
      13     C     3.15558  3.15558  0.00000 -0.31117
      14     H     0.41873  0.41873  0.00000  0.16254
      15     H     0.42025  0.42025  0.00000  0.15951
      16     C     3.15246  3.15246  0.00000 -0.30493
      17     H     0.42212  0.42212  0.00000  0.15576
      18     H     0.42007  0.42007  0.00000  0.15986
      19     C     3.15218  3.15218  0.00000 -0.30437
      20     H     0.42476  0.42476  0.00000  0.15049
      21     H     0.42306  0.42306  0.00000  0.15387
      22     C     3.23917  3.23917  0.00000 -0.47834
      23     H     0.42335  0.42335  0.00000  0.15330
      24     H     0.42281  0.42281  0.00000  0.15438
      25     H     0.42201  0.42201  0.00000  0.15597
      26     H     0.41924  0.41924  0.00000  0.16151
      27     H     0.42165  0.42165  0.00000  0.15669

   Total alpha = 37.00000, Total beta = 37.00000, Total charge =  0.00000


*** PSI4 exiting successfully. Buy a developer a beer!
