    -----------------------------------------------------------------------
          Psi4: An Open-Source Ab Initio Electronic Structure Package
                              Psi4 (no tag) Driver

                          Git: Rev {detached?}  

    J. M. Turney, A. C. Simmonett, R. M. Parrish, E. G. Hohenstein,
    F. A. Evangelista, J. T. Fermann, B. J. Mintz, L. A. Burns, J. J. Wilke,
    M. L. Abrams, N. J. Russ, M. L. Leininger, C. L. Janssen, E. T. Seidl,
    W. D. Allen, H. F. Schaefer, R. A. King, E. F. Valeev, C. D. Sherrill,
    and T. D. Crawford, WIREs Comput. Mol. Sci. 2, 556-565 (2012)
    (doi: 10.1002/wcms.93)

                         Additional Contributions by
    A. E. DePrince, M. Saitow, U. Bozkaya, A. Yu. Sokolov
    -----------------------------------------------------------------------


    Psi4 started on: Fri Sep  9 22:47:23 2016

    Process ID:  19955
    PSI4DATADIR: /export131/home/mjharvey/miniconda3/share
    Memory level set to 256.000 MB

  ==> Input File <==

--------------------------------------------------------------------------
set {
	reference rhf
	basis cc-pvtz
}


set_num_threads( 4 )
memory 2 gb

molecule MOL {
0 1

H	 -0.000105	 1.988529	 0.748933
O	 -0.000098	 1.879786	 -0.188206
C	 -0.000014	 0.545691	 -0.532416
C	 -0.794692	 -0.264437	 0.493233
C	 1.432718	 0.056982	 -0.751997
H	 -0.513939	 0.446667	 -1.477264
F	 -2.027522	 0.177599	 0.533177
F	 -0.834118	 -1.539199	 0.198039
F	 -0.286345	 -0.138772	 1.700364
F	 1.986913	 0.756876	 -1.711098
F	 1.480814	 -1.205156	 -1.096104
F	 2.163611	 0.214775	 0.330718

	symmetry c1
}
set optking {
	frozen_dihedral = ("
		6 3 2 1
	")
}

ee = optimize('scf')
oeprop('DIPOLE', 'QUADRUPOLE', 'MULLIKEN_CHARGES')
f=open( 'psi4out.xyz', 'w' )
f.write( "12  " )
f.write( str(ee) + "\n" )
f.write( MOL.save_string_xyz() )
f.close()
--------------------------------------------------------------------------

  Memory set to   2.000 GiB by Python script.
gradient() will perform analytic gradient computation.

*** tstart() called on cx1-27-4-4
*** at Fri Sep  9 22:47:23 2016


         ---------------------------------------------------------
                                   SCF
            by Justin Turney, Rob Parrish, and Andy Simmonett
                              RHF Reference
                        4 Threads,   2000 MiB Core
         ---------------------------------------------------------

  ==> Geometry <==

    Molecular point group: c1
    Full point group: C1

    Geometry (in Angstrom), charge = 0, multiplicity = 1:

       Center              X                  Y                   Z               Mass       
    ------------   -----------------  -----------------  -----------------  -----------------
           H         -0.323414128476     1.966867188350     0.832811279013     1.007825032070
           O         -0.323407128476     1.858124188350    -0.104327720987    15.994914619560
           C         -0.323323128476     0.524029188350    -0.448537720987    12.000000000000
           C         -1.118001128476    -0.286098811650     0.577111279013    12.000000000000
           C          1.109408871524     0.035320188350    -0.668118720987    12.000000000000
           H         -0.837248128476     0.425005188350    -1.393385720987     1.007825032070
           F         -2.350831128476     0.155937188350     0.617055279013    18.998403224000
           F         -1.157427128476    -1.560860811650     0.281917279013    18.998403224000
           F         -0.609654128476    -0.160433811650     1.784242279013    18.998403224000
           F          1.663603871524     0.735214188350    -1.627219720987    18.998403224000
           F          1.157504871524    -1.226817811650    -1.012225720987    18.998403224000
           F          1.840301871524     0.193113188350     0.414596279013    18.998403224000

  Running in c1 symmetry.

  Rotational constants: A =      0.07243  B =      0.03559  C =      0.03151 [cm^-1]
  Rotational constants: A =   2171.36139  B =   1066.98483  C =    944.79253 [MHz]
  Nuclear repulsion =  670.796243323213616

  Charge       = 0
  Multiplicity = 1
  Electrons    = 82
  Nalpha       = 41
  Nbeta        = 41

  ==> Algorithm <==

  SCF Algorithm Type is DF.
  DIIS enabled.
  MOM disabled.
  Fractional occupation disabled.
  Guess Type is CORE.
  Energy threshold   = 1.00e-08
  Density threshold  = 1.00e-08
  Integral threshold = 0.00e+00

  ==> Primary Basis <==

  Basis Set: CC-PVTZ
    Number of shells: 112
    Number of basis function: 328
    Number of Cartesian functions: 380
    Spherical Harmonics?: true
    Max angular momentum: 3

  ==> Pre-Iterations <==

   -------------------------------------------------------
    Irrep   Nso     Nmo     Nalpha   Nbeta   Ndocc  Nsocc
   -------------------------------------------------------
     A        328     328       0       0       0       0
   -------------------------------------------------------
    Total     328     328      41      41      41       0
   -------------------------------------------------------

 OEINTS: Overlap, kinetic, potential, dipole, and quadrupole integrals
         stored in file 35.

  ==> Integral Setup <==

  ==> DFJK: Density-Fitted J/K Matrices <==

    J tasked:                  Yes
    K tasked:                  Yes
    wK tasked:                  No
    OpenMP threads:              4
    Integrals threads:           4
    Memory (MB):              1430
    Algorithm:                Core
    Integral Cache:           NONE
    Schwarz Cutoff:          1E-12
    Fitting Condition:       1E-12

   => Auxiliary Basis Set <=

  Basis Set: 
    Number of shells: 270
    Number of basis function: 850
    Number of Cartesian functions: 1030
    Spherical Harmonics?: true
    Max angular momentum: 4

  Minimum eigenvalue in the overlap matrix is 7.8107484610E-04.
  Using Symmetric Orthogonalization.
  SCF Guess: Core (One-Electron) Hamiltonian.

  ==> Iterations <==

                           Total Energy        Delta E     RMS |[F,P]|

   @DF-RHF iter   1:  -663.80663220047393   -6.63807e+02   6.33677e-02 
   @DF-RHF iter   2:  -506.01052831080926    1.57796e+02   6.36840e-02 DIIS
   @DF-RHF iter   3:  -728.62184307433438   -2.22611e+02   2.41441e-02 DIIS
   @DF-RHF iter   4:  -621.05035897006735    1.07571e+02   5.03527e-02 DIIS
   @DF-RHF iter   5:  -746.79470763926054   -1.25744e+02   2.30810e-02 DIIS
   @DF-RHF iter   6:  -784.72052479247134   -3.79258e+01   7.40937e-03 DIIS
   @DF-RHF iter   7:  -786.30069224895590   -1.58017e+00   3.02562e-03 DIIS
   @DF-RHF iter   8:  -786.57287225779885   -2.72180e-01   4.69494e-04 DIIS
   @DF-RHF iter   9:  -786.58469523234078   -1.18230e-02   2.27979e-04 DIIS
   @DF-RHF iter  10:  -786.58740441099428   -2.70918e-03   6.41305e-05 DIIS
   @DF-RHF iter  11:  -786.58764036080163   -2.35950e-04   1.43185e-05 DIIS
   @DF-RHF iter  12:  -786.58765483281115   -1.44720e-05   5.76547e-06 DIIS
   @DF-RHF iter  13:  -786.58765696998864   -2.13718e-06   2.03582e-06 DIIS
   @DF-RHF iter  14:  -786.58765729702930   -3.27041e-07   5.20985e-07 DIIS
   @DF-RHF iter  15:  -786.58765731671895   -1.96897e-08   1.32313e-07 DIIS
   @DF-RHF iter  16:  -786.58765731801088   -1.29194e-09   4.38247e-08 DIIS
   @DF-RHF iter  17:  -786.58765731815663   -1.45747e-10   1.29958e-08 DIIS
   @DF-RHF iter  18:  -786.58765731817050   -1.38698e-11   4.62927e-09 DIIS

  ==> Post-Iterations <==

    Orbital Energies (a.u.)
    -----------------------

    Doubly Occupied:                                                      

       1A    -26.364589     2A    -26.360555     3A    -26.360206  
       4A    -26.354730     5A    -26.351058     6A    -26.349972  
       7A    -20.609226     8A    -11.525346     9A    -11.515683  
      10A    -11.351469    11A     -1.775359    12A     -1.763949  
      13A     -1.670800    14A     -1.668223    15A     -1.660344  
      16A     -1.657083    17A     -1.439635    18A     -1.103263  
      19A     -1.002776    20A     -0.945129    21A     -0.873523  
      22A     -0.869834    23A     -0.861367    24A     -0.850515  
      25A     -0.839699    26A     -0.818282    27A     -0.750978  
      28A     -0.738221    29A     -0.728353    30A     -0.725120  
      31A     -0.698551    32A     -0.695729    33A     -0.691521  
      34A     -0.679722    35A     -0.675865    36A     -0.672523  
      37A     -0.660997    38A     -0.657963    39A     -0.624791  
      40A     -0.553115    41A     -0.509102  

    Virtual:                                                              

      42A      0.153097    43A      0.158292    44A      0.264629  
      45A      0.285721    46A      0.303420    47A      0.326697  
      48A      0.340098    49A      0.382593    50A      0.399014  
      51A      0.439134    52A      0.452532    53A      0.459460  
      54A      0.485686    55A      0.495314    56A      0.501456  
      57A      0.513151    58A      0.521525    59A      0.538242  
      60A      0.551460    61A      0.587101    62A      0.599692  
      63A      0.610064    64A      0.639936    65A      0.682713  
      66A      0.718008    67A      0.725817    68A      0.752707  
      69A      0.765666    70A      0.797395    71A      0.835398  
      72A      0.862274    73A      0.896045    74A      0.906723  
      75A      0.948469    76A      0.949730    77A      0.980037  
      78A      0.987966    79A      1.011370    80A      1.014949  
      81A      1.040337    82A      1.054787    83A      1.067702  
      84A      1.076844    85A      1.104691    86A      1.111427  
      87A      1.117727    88A      1.135323    89A      1.141632  
      90A      1.165878    91A      1.177614    92A      1.197890  
      93A      1.228947    94A      1.281025    95A      1.308284  
      96A      1.336799    97A      1.362083    98A      1.380807  
      99A      1.397953   100A      1.415906   101A      1.465041  
     102A      1.483809   103A      1.530120   104A      1.547362  
     105A      1.561014   106A      1.627750   107A      1.651448  
     108A      1.711118   109A      1.776908   110A      1.857538  
     111A      1.966573   112A      1.994148   113A      2.026498  
     114A      2.088693   115A      2.105462   116A      2.133976  
     117A      2.160478   118A      2.166422   119A      2.177301  
     120A      2.206441   121A      2.217513   122A      2.235380  
     123A      2.239941   124A      2.256123   125A      2.273145  
     126A      2.303400   127A      2.318893   128A      2.339285  
     129A      2.347539   130A      2.383083   131A      2.426213  
     132A      2.445615   133A      2.449759   134A      2.456759  
     135A      2.481543   136A      2.543032   137A      2.563458  
     138A      2.617972   139A      2.649647   140A      2.683651  
     141A      2.696980   142A      2.725862   143A      2.747532  
     144A      2.778088   145A      2.793979   146A      2.818707  
     147A      2.838779   148A      2.866339   149A      2.897541  
     150A      2.923260   151A      2.948876   152A      3.034637  
     153A      3.080355   154A      3.090836   155A      3.125204  
     156A      3.205077   157A      3.220102   158A      3.227491  
     159A      3.262243   160A      3.273592   161A      3.286402  
     162A      3.299037   163A      3.318566   164A      3.333950  
     165A      3.357424   166A      3.386815   167A      3.415169  
     168A      3.446084   169A      3.480645   170A      3.501724  
     171A      3.539382   172A      3.564498   173A      3.582359  
     174A      3.585023   175A      3.625069   176A      3.664818  
     177A      3.695632   178A      3.712817   179A      3.740823  
     180A      3.783247   181A      3.824129   182A      3.838217  
     183A      3.854668   184A      3.877732   185A      3.904655  
     186A      3.918030   187A      3.928465   188A      3.970716  
     189A      3.995022   190A      4.002361   191A      4.021477  
     192A      4.071919   193A      4.108779   194A      4.164782  
     195A      4.203158   196A      4.225301   197A      4.255413  
     198A      4.336303   199A      4.350715   200A      4.391256  
     201A      4.436446   202A      4.474474   203A      4.517131  
     204A      4.537754   205A      4.582854   206A      4.611142  
     207A      4.659556   208A      4.738713   209A      4.839165  
     210A      5.105087   211A      5.168466   212A      5.182410  
     213A      5.229722   214A      5.269828   215A      5.324631  
     216A      5.329521   217A      5.338306   218A      5.375909  
     219A      5.396370   220A      5.443447   221A      5.470266  
     222A      5.470669   223A      5.487743   224A      5.516722  
     225A      5.548435   226A      5.608507   227A      5.624924  
     228A      5.750710   229A      6.018163   230A      6.055015  
     231A      6.098368   232A      6.131057   233A      6.365502  
     234A      6.552097   235A      6.565203   236A      6.599393  
     237A      6.602856   238A      6.714195   239A      7.024003  
     240A      7.103006   241A      7.187176   242A      7.230629  
     243A      7.290385   244A      7.299966   245A      7.315476  
     246A      7.329538   247A      7.334203   248A      7.337700  
     249A      7.340122   250A      7.341219   251A      7.343029  
     252A      7.343965   253A      7.345803   254A      7.349319  
     255A      7.351030   256A      7.351619   257A      7.354696  
     258A      7.358158   259A      7.364291   260A      7.367881  
     261A      7.378829   262A      7.456018   263A      7.489899  
     264A      7.492740   265A      7.501322   266A      7.510626  
     267A      7.520356   268A      7.543768   269A      7.588978  
     270A      7.599296   271A      7.611878   272A      7.614445  
     273A      7.620797   274A      7.630310   275A      7.714177  
     276A      7.845290   277A      7.871603   278A      7.923842  
     279A      7.929903   280A      7.940561   281A      7.954342  
     282A      7.987825   283A      8.089933   284A      8.099964  
     285A      8.152907   286A      8.160774   287A      8.171679  
     288A      8.192547   289A      8.870772   290A      8.886996  
     291A      8.896854   292A      8.913329   293A      8.917345  
     294A      8.923499   295A      8.996840   296A      9.010518  
     297A      9.023175   298A      9.036556   299A      9.060103  
     300A      9.124541   301A      9.166876   302A      9.215518  
     303A      9.303657   304A      9.325054   305A      9.367900  
     306A      9.387881   307A      9.403780   308A      9.419649  
     309A      9.502318   310A      9.528725   311A      9.651787  
     312A      9.665041   313A      9.680971   314A      9.690432  
     315A      9.713664   316A      9.725545   317A      9.745935  
     318A      9.757417   319A     10.829751   320A     11.364370  
     321A     12.188076   322A     12.428572   323A     12.475233  
     324A     12.538541   325A     12.755254   326A     13.422564  
     327A     13.548002   328A     13.834441  

    Final Occupation by Irrep:
              A 
    DOCC [    41 ]

  Energy converged.

  @DF-RHF Final Energy:  -786.58765731817050

   => Energetics <=

    Nuclear Repulsion Energy =            670.7962433232136163
    One-Electron Energy =               -2428.7574696282208606
    Two-Electron Energy =                 971.3735689868370855
    DFT Exchange-Correlation Energy =       0.0000000000000000
    Empirical Dispersion Energy =           0.0000000000000000
    PCM Polarization Energy =               0.0000000000000000
    EFP Energy =                            0.0000000000000000
    Total Energy =                       -786.5876573181700451

    Alert: EFP and PCM quantities not currently incorporated into SCF psivars.

Properties will be evaluated at   0.000000,   0.000000,   0.000000 Bohr
  ==> Properties <==


Properties computed using the SCF density matrix

  Nuclear Dipole Moment: (a.u.)
     X:    -1.6024      Y:     4.0095      Z:    -0.9584

  Electronic Dipole Moment: (a.u.)
     X:     1.2538      Y:    -3.8045      Z:     1.0315

  Dipole Moment: (a.u.)
     X:    -0.3485      Y:     0.2050      Z:     0.0731     Total:     0.4109

  Dipole Moment: (Debye)
     X:    -0.8858      Y:     0.5212      Z:     0.1859     Total:     1.0445


  Saving occupied orbitals to File 180.

*** tstop() called on cx1-27-4-4 at Fri Sep  9 22:47:38 2016
Module time:
	user time   =      49.79 seconds =       0.83 minutes
	system time =       0.82 seconds =       0.01 minutes
	total time  =         15 seconds =       0.25 minutes
Total time:
	user time   =      49.79 seconds =       0.83 minutes
	system time =       0.82 seconds =       0.01 minutes
	total time  =         15 seconds =       0.25 minutes

*** tstart() called on cx1-27-4-4
*** at Fri Sep  9 22:47:38 2016


         ------------------------------------------------------------
                                   SCF GRAD                          
                          Rob Parrish, Justin Turney,                
                       Andy Simmonett, and Alex Sokolov              
         ------------------------------------------------------------

  ==> Geometry <==

    Molecular point group: c1
    Full point group: C1

    Geometry (in Angstrom), charge = 0, multiplicity = 1:

       Center              X                  Y                   Z               Mass       
    ------------   -----------------  -----------------  -----------------  -----------------
           H         -0.323414128476     1.966867188350     0.832811279013     1.007825032070
           O         -0.323407128476     1.858124188350    -0.104327720987    15.994914619560
           C         -0.323323128476     0.524029188350    -0.448537720987    12.000000000000
           C         -1.118001128476    -0.286098811650     0.577111279013    12.000000000000
           C          1.109408871524     0.035320188350    -0.668118720987    12.000000000000
           H         -0.837248128476     0.425005188350    -1.393385720987     1.007825032070
           F         -2.350831128476     0.155937188350     0.617055279013    18.998403224000
           F         -1.157427128476    -1.560860811650     0.281917279013    18.998403224000
           F         -0.609654128476    -0.160433811650     1.784242279013    18.998403224000
           F          1.663603871524     0.735214188350    -1.627219720987    18.998403224000
           F          1.157504871524    -1.226817811650    -1.012225720987    18.998403224000
           F          1.840301871524     0.193113188350     0.414596279013    18.998403224000

  Nuclear repulsion =  670.796243323213730

  ==> Basis Set <==

  Basis Set: CC-PVTZ
    Number of shells: 112
    Number of basis function: 328
    Number of Cartesian functions: 380
    Spherical Harmonics?: true
    Max angular momentum: 3

  ==> DFJKGrad: Density-Fitted SCF Gradients <==

    Gradient:                    1
    J tasked:                  Yes
    K tasked:                  Yes
    wK tasked:                  No
    OpenMP threads:              4
    Integrals threads:           4
    Memory (MB):              1430
    Schwarz Cutoff:          0E+00
    Fitting Condition:       1E-12

   => Auxiliary Basis Set <=

  Basis Set: 
    Number of shells: 270
    Number of basis function: 850
    Number of Cartesian functions: 1030
    Spherical Harmonics?: true
    Max angular momentum: 4


  -Total Gradient:
     Atom            X                  Y                   Z
    ------   -----------------  -----------------  -----------------
       1       -0.003766937172    -0.001568246638     0.001436774882
       2        0.001293416041    -0.001157623995    -0.002518924591
       3        0.003409601905     0.001308450663     0.000687258100
       4       -0.001624834390     0.004555571511     0.003924366751
       5       -0.002950960575    -0.003711687103    -0.004815596966
       6       -0.000161159930     0.001755652205     0.000801878038
       7        0.000853531628    -0.000836361172    -0.000826784847
       8        0.000012796707    -0.001392630699    -0.000479718309
       9        0.000671554423    -0.000879232216    -0.000638377234
      10        0.000769792239     0.000125984275     0.000353948919
      11        0.000683250477     0.000661197880     0.000652074161
      12        0.000809948629     0.001138925291     0.001423101082


*** tstop() called on cx1-27-4-4 at Fri Sep  9 22:48:03 2016
Module time:
	user time   =      93.36 seconds =       1.56 minutes
	system time =       0.60 seconds =       0.01 minutes
	total time  =         25 seconds =       0.42 minutes
Total time:
	user time   =     143.17 seconds =       2.39 minutes
	system time =       1.42 seconds =       0.02 minutes
	total time  =         40 seconds =       0.67 minutes
CURRENT ENERGY: -786.5876573182

			-----------------------------------------
			 OPTKING 2.0: for geometry optimizations 
			  - R.A. King,  Bethel University        
			-----------------------------------------

	Internal coordinates to be generated automatically.
	Detected frag with atoms:  1 2 3 4 5 6 7 8 9 10 11 12
	---Fragment 1 Bond Connectivity---
	 1 : 2
	 2 : 1 3
	 3 : 2 4 5 6
	 4 : 3 7 8 9
	 5 : 3 10 11 12
	 6 : 3
	 7 : 4
	 8 : 4
	 9 : 4
	 10 : 5
	 11 : 5
	 12 : 5

	Assuming in current code that numbering for constraints corresponds to unified fragment.
	Frozen dihedral atom list: 
	     6     3     2     1
	---Fragment 1 Geometry and Gradient---
	 H          -0.6111641303        3.7168403257        1.5737852377
	 O          -0.6111509022        3.5113458369       -0.1971508207
	 C          -0.6109921652        0.9902716516       -0.8476134529
	 C          -2.1127159491       -0.5406484010        1.0905822655
	 C           2.0964789366        0.0667454829       -1.2625614069
	 H          -1.5821696681        0.8031434110       -2.6331174101
	 F          -4.4424270175        0.2946785799        1.1660654862
	 F          -2.1872202916       -2.9495994656        0.5327464495
	 F          -1.1520793386       -0.3031759665        3.3717292620
	 F           3.1437557108        1.3893534650       -3.0749996307
	 F           2.1873672047       -2.3183496790       -1.9128293973
	 F           3.4776665390        0.3649310386        0.7834734230
	            -0.0037669372       -0.0015682466        0.0014367749
	             0.0012934160       -0.0011576240       -0.0025189246
	             0.0034096019        0.0013084507        0.0006872581
	            -0.0016248344        0.0045555715        0.0039243668
	            -0.0029509606       -0.0037116871       -0.0048155970
	            -0.0001611599        0.0017556522        0.0008018780
	             0.0008535316       -0.0008363612       -0.0008267848
	             0.0000127967       -0.0013926307       -0.0004797183
	             0.0006715544       -0.0008792322       -0.0006383772
	             0.0007697922        0.0001259843        0.0003539489
	             0.0006832505        0.0006611979        0.0006520742
	             0.0008099486        0.0011389253        0.0014231011

	Previous optimization step data not found.  Starting new optimization.

	---Fragment 1 Intrafragment Coordinates---
	 - Coordinate -           - BOHR/RAD -       - ANG/DEG -
	 R(1,2)           =         1.782819	       0.943427
	 R(2,3)           =         2.603635	       1.377785
	 R(3,4)           =         2.890587	       1.529633
	 R(3,5)           =         2.890585	       1.529632
	 R(3,6)           =         2.041134	       1.080122
	 R(4,7)           =         2.476090	       1.310291
	 R(4,8)           =         2.473818	       1.309088
	 R(4,9)           =         2.486533	       1.315817
	 R(5,10)          =         2.476088	       1.310290
	 R(5,11)          =         2.473821	       1.309090
	 R(5,12)          =         2.486534	       1.315817
	 B(1,2,3)         =         1.938820	     111.086213
	 B(2,3,4)         =         1.923335	     110.198983
	 B(2,3,5)         =         1.923337	     110.199120
	 B(2,3,6)         =         1.883133	     107.895553
	 B(3,4,7)         =         1.907712	     109.303871
	 B(3,4,8)         =         1.960790	     112.344965
	 B(3,4,9)         =         1.943188	     111.336489
	 B(3,5,10)        =         1.907715	     109.303995
	 B(3,5,11)        =         1.960790	     112.344968
	 B(3,5,12)        =         1.943188	     111.336480
	 B(4,3,5)         =         1.997260	     114.434569
	 B(4,3,6)         =         1.865858	     106.905813
	 B(5,3,6)         =         1.865857	     106.905708
	 B(7,4,8)         =         1.882887	     107.881463
	 B(7,4,9)         =         1.878962	     107.656585
	 B(8,4,9)         =         1.887572	     108.149925
	 B(10,5,11)       =         1.882886	     107.881409
	 B(10,5,12)       =         1.878961	     107.656526
	 B(11,5,12)       =         1.887572	     108.149916
	 D(1,2,3,4)       =         0.586684	      33.614499
	 D(1,2,3,5)       =        -1.633882	     -93.614515
	*D(1,2,3,6)       =         2.617994	     150.000017
	 D(2,3,4,7)       =         1.039871	      59.580233
	 D(2,3,4,8)       =         3.129343	     179.298137
	 D(2,3,4,9)       =        -1.033690	     -59.226050
	 D(2,3,5,10)      =        -1.039886	     -59.581061
	 D(2,3,5,11)      =        -3.129358	    -179.298982
	 D(2,3,5,12)      =         1.033675	      59.225222
	 D(4,3,5,10)      =         3.064461	     175.580678
	 D(4,3,5,11)      =         0.974989	      55.862757
	 D(4,3,5,12)      =        -1.145164	     -65.613039
	 D(5,3,4,7)       =        -3.064474	    -175.581433
	 D(5,3,4,8)       =        -0.975003	     -55.863529
	 D(5,3,4,9)       =         1.145150	      65.612283
	 D(6,3,4,7)       =        -1.002206	     -57.422178
	 D(6,3,4,8)       =         1.087266	      62.295726
	 D(6,3,4,9)       =        -3.075767	    -176.228462
	 D(6,3,5,10)      =         1.002192	      57.421363
	 D(6,3,5,11)      =        -1.087280	     -62.296558
	 D(6,3,5,12)      =         3.075753	     176.227646
	 R(8,11)          =         5.051369	       2.673070
	 R(9,12)          =         5.346025	       2.828995

	Current energy   :      -786.5876573182

	Generating empirical Hessian (Schlegel '84) for each fragment.
	Taking RFO optimization step.
	Going to follow RFO solution 1.
	Using RFO vector 1.
	Norm of target step-size    0.34612
	Projected energy change by RFO approximation:        -0.0017767131

	Back-transformation to cartesian coordinates...
	Successfully converged to displaced geometry.

	Back-transformation to cartesian coordinates to adjust frozen coordinates...
	Successfully converged to displaced geometry.

	--- Internal Coordinate Step in ANG or DEG, aJ/ANG or AJ/DEG ---
	 ---------------------------------------------------------------------------
	   Coordinate                Previous        Force       Change         New 
	   ----------                --------       ------       ------       ------
	    1 R(1,2)          =      0.943427    -0.010269    -0.001113     0.942314
	    2 R(2,3)          =      1.377785     0.023972     0.003106     1.380890
	    3 R(3,4)          =      1.529633    -0.005390    -0.001579     1.528054
	    4 R(3,5)          =      1.529632    -0.002611    -0.000976     1.528655
	    5 R(3,6)          =      1.080122     0.006473     0.001154     1.081275
	    6 R(4,7)          =      1.310291     0.009149     0.000911     1.311202
	    7 R(4,8)          =      1.309088    -0.011989    -0.001205     1.307883
	    8 R(4,9)          =      1.315817     0.003151     0.000312     1.316128
	    9 R(5,10)         =      1.310290    -0.001102    -0.000110     1.310180
	   10 R(5,11)         =      1.309090     0.006530     0.000613     1.309702
	   11 R(5,12)         =      1.315817    -0.014708    -0.001487     1.314330
	   12 B(1,2,3)        =    111.086213     0.000234     1.095664   112.181877
	   13 B(2,3,4)        =    110.198983     0.000204     0.836809   111.035792
	   14 B(2,3,5)        =    110.199120    -0.000236    -0.806854   109.392267
	   15 B(2,3,6)        =    107.895553     0.000061     0.882910   108.778463
	   16 B(3,4,7)        =    109.303871     0.000006    -0.059878   109.243993
	   17 B(3,4,8)        =    112.344965     0.000072     0.170264   112.515229
	   18 B(3,4,9)        =    111.336489    -0.000034    -0.026788   111.309701
	   19 B(3,5,10)       =    109.303995    -0.000074    -0.220731   109.083264
	   20 B(3,5,11)       =    112.344968    -0.000077    -0.552854   111.792114
	   21 B(3,5,12)       =    111.336480     0.000073     0.484593   111.821072
	   22 B(4,3,5)        =    114.434569     0.000004    -0.284576   114.149994
	   23 B(4,3,6)        =    106.905813    -0.000160    -1.352770   105.553043
	   24 B(5,3,6)        =    106.905708     0.000132     0.790807   107.696516
	   25 B(7,4,8)        =    107.881463    -0.000006     0.176703   108.058167
	   26 B(7,4,9)        =    107.656585    -0.000055    -0.517786   107.138799
	   27 B(8,4,9)        =    108.149925     0.000013     0.232088   108.382013
	   28 B(10,5,11)      =    107.881409     0.000026    -0.123746   107.757663
	   29 B(10,5,12)      =    107.656526     0.000056     0.381599   108.038125
	   30 B(11,5,12)      =    108.149916     0.000001     0.048708   108.198624
	   31 D(1,2,3,4)      =     33.614499     0.000011     0.651914    34.266413
	   32 D(1,2,3,5)      =    -93.614515     0.000015     1.005509   -92.609006
	   33 *D(1,2,3,6)     =    150.000017     0.000000     0.000000   150.000017
	   34 D(2,3,4,7)      =     59.580233     0.000009     3.929818    63.510051
	   35 D(2,3,4,8)      =    179.298137     0.000018     4.220437   183.518575
	   36 D(2,3,4,9)      =    -59.226050     0.000028     4.623218   -54.602832
	   37 D(2,3,5,10)     =    -59.581061    -0.000001     4.551275   -55.029786
	   38 D(2,3,5,11)     =   -179.298982     0.000014     5.198928  -174.100054
	   39 D(2,3,5,12)     =     59.225222     0.000014     5.181871    64.407093
	   40 D(4,3,5,10)     =    175.580678    -0.000021     4.299135   179.879813
	   41 D(4,3,5,11)     =     55.862757    -0.000005     4.946787    60.809544
	   42 D(4,3,5,12)     =    -65.613039    -0.000005     4.929731   -60.683308
	   43 D(5,3,4,7)      =   -175.581433    -0.000025     3.306340  -172.275094
	   44 D(5,3,4,8)      =    -55.863529    -0.000015     3.596959   -52.266570
	   45 D(5,3,4,9)      =     65.612283    -0.000006     3.999740    69.612023
	   46 D(6,3,4,7)      =    -57.422178    -0.000012     3.219334   -54.202844
	   47 D(6,3,4,8)      =     62.295726    -0.000002     3.509953    65.805680
	   48 D(6,3,4,9)      =   -176.228462     0.000008     3.912734  -172.315727
	   49 D(6,3,5,10)     =     57.421363     0.000004     5.618028    63.039391
	   50 D(6,3,5,11)     =    -62.296558     0.000019     6.265681   -56.030877
	   51 D(6,3,5,12)     =    176.227646     0.000019     6.248624   182.476270
	   52 R(8,11)         =      2.673070    -0.001870     0.002198     2.675268
	   53 R(9,12)         =      2.828995     0.002343    -0.003387     2.825608
	 ---------------------------------------------------------------------------

  ==> Convergence Check <==

  Measures of convergence in internal coordinates in au.
  Criteria marked as inactive (o), active & met (*), and active & unmet ( ).
  --------------------------------------------------------------------------------------------- ~
   Step     Total Energy     Delta E     MAX Force     RMS Force      MAX Disp      RMS Disp    ~
  --------------------------------------------------------------------------------------------- ~
    Convergence Criteria    1.00e-06 *    3.00e-04 *             o    1.20e-03 *             o  ~
  --------------------------------------------------------------------------------------------- ~
      1    -786.58765732   -7.87e+02      3.10e-03      1.17e-03 o    1.09e-01      4.75e-02 o  ~
  ---------------------------------------------------------------------------------------------

	Writing optimization data to binary file.
	Structure for next step:
	Cartesian Geometry (in Angstrom)
	    H    -0.2834253835   1.9986180120   0.8143445338
	    O    -0.3083461561   1.8625101515  -0.1177549190
	    C    -0.3287361835   0.5219756968  -0.4485266921
	    C    -1.1129973928  -0.2859909257   0.5844653044
	    C     1.1022030653   0.0321189920  -0.6704294769
	    H    -0.8655321986   0.4012664683  -1.3793516783
	    F    -2.3644398815   0.1053137544   0.5796916866
	    F    -1.0888949516  -1.5704054135   0.3389921606
	    F    -0.6490299710  -0.0869504882   1.7999121639
	    F     1.6791042088   0.7886533042  -1.5712134982
	    F     1.1313098847  -1.2021812577  -1.1074372982
	    F     1.8162983210   0.0944711693   0.4312260047
			--------------------------
			 OPTKING Finished Execution 
			--------------------------

    Structure for next step:
    Molecular point group: c1
    Full point group: C1

    Geometry (in Angstrom), charge = 0, multiplicity = 1:

    H           -0.282219908002     1.999339833156     0.813840294770
    O           -0.307140678680     1.863231983033    -0.118259086888
    C           -0.327530704504     0.522697630734    -0.449030834723
    C           -1.111791853885    -0.285268930076     0.583961082853
    C            1.103408434982     0.032840963284    -0.670933602600
    H           -0.864326678611     0.401988411441    -1.379855749878
    F           -2.363234247086     0.106035720088     0.579187465462
    F           -1.087689414575    -1.569683319792     0.338487957846
    F           -0.647824467543    -0.086228507831     1.799407849549
    F            1.680309534431     0.789375217730    -1.571717555116
    F            1.132515252145    -1.201459192126    -1.107941390541
    F            1.817503636188     0.095193135818     0.430721794911

gradient() will perform analytic gradient computation.

*** tstart() called on cx1-27-4-4
*** at Fri Sep  9 22:48:03 2016


         ---------------------------------------------------------
                                   SCF
            by Justin Turney, Rob Parrish, and Andy Simmonett
                              RHF Reference
                        4 Threads,   2000 MiB Core
         ---------------------------------------------------------

  ==> Geometry <==

    Molecular point group: c1
    Full point group: C1

    Geometry (in Angstrom), charge = 0, multiplicity = 1:

       Center              X                  Y                   Z               Mass       
    ------------   -----------------  -----------------  -----------------  -----------------
           H         -0.282219908002     1.999339833156     0.813840294770     1.007825032070
           O         -0.307140678680     1.863231983033    -0.118259086888    15.994914619560
           C         -0.327530704504     0.522697630734    -0.449030834723    12.000000000000
           C         -1.111791853885    -0.285268930076     0.583961082853    12.000000000000
           C          1.103408434982     0.032840963284    -0.670933602600    12.000000000000
           H         -0.864326678611     0.401988411441    -1.379855749878     1.007825032070
           F         -2.363234247086     0.106035720088     0.579187465462    18.998403224000
           F         -1.087689414575    -1.569683319792     0.338487957846    18.998403224000
           F         -0.647824467543    -0.086228507831     1.799407849549    18.998403224000
           F          1.680309534431     0.789375217730    -1.571717555116    18.998403224000
           F          1.132515252145    -1.201459192126    -1.107941390541    18.998403224000
           F          1.817503636188     0.095193135818     0.430721794911    18.998403224000

  Running in c1 symmetry.

  Rotational constants: A =      0.07234  B =      0.03569  C =      0.03158 [cm^-1]
  Rotational constants: A =   2168.58778  B =   1070.00791  C =    946.87995 [MHz]
  Nuclear repulsion =  671.048820313420038

  Charge       = 0
  Multiplicity = 1
  Electrons    = 82
  Nalpha       = 41
  Nbeta        = 41

  ==> Algorithm <==

  SCF Algorithm Type is DF.
  DIIS enabled.
  MOM disabled.
  Fractional occupation disabled.
  Guess Type is READ.
  Energy threshold   = 1.00e-08
  Density threshold  = 1.00e-08
  Integral threshold = 0.00e+00

  ==> Primary Basis <==

  Basis Set: CC-PVTZ
    Number of shells: 112
    Number of basis function: 328
    Number of Cartesian functions: 380
    Spherical Harmonics?: true
    Max angular momentum: 3

  ==> Pre-Iterations <==

   -------------------------------------------------------
    Irrep   Nso     Nmo     Nalpha   Nbeta   Ndocc  Nsocc
   -------------------------------------------------------
     A        328     328       0       0       0       0
   -------------------------------------------------------
    Total     328     328      41      41      41       0
   -------------------------------------------------------

 OEINTS: Overlap, kinetic, potential, dipole, and quadrupole integrals
         stored in file 35.

  ==> Integral Setup <==

  ==> DFJK: Density-Fitted J/K Matrices <==

    J tasked:                  Yes
    K tasked:                  Yes
    wK tasked:                  No
    OpenMP threads:              4
    Integrals threads:           4
    Memory (MB):              1430
    Algorithm:                Core
    Integral Cache:           NONE
    Schwarz Cutoff:          1E-12
    Fitting Condition:       1E-12

   => Auxiliary Basis Set <=

  Basis Set: 
    Number of shells: 270
    Number of basis function: 850
    Number of Cartesian functions: 1030
    Spherical Harmonics?: true
    Max angular momentum: 4

  Minimum eigenvalue in the overlap matrix is 7.8583940757E-04.
  Using Symmetric Orthogonalization.
  SCF Guess: Reading in previously saved MOs, projecting if necessary.

  Using orbitals from previous SCF, no projection.
  Recomputing DOCC and SOCC from number of alpha and beta electrons from previous calculation.
              A 
    DOCC [    41 ]

  ==> Iterations <==

                           Total Energy        Delta E     RMS |[F,P]|

   @DF-RHF iter   0:  -786.55738251729258   -7.86557e+02   7.48889e-04 
   @DF-RHF iter   1:  -786.58674903136625   -2.93665e-02   1.15586e-04 
   @DF-RHF iter   2:  -786.58774554893876   -9.96518e-04   3.89057e-05 DIIS
   @DF-RHF iter   3:  -786.58786765061450   -1.22102e-04   1.47053e-05 DIIS
   @DF-RHF iter   4:  -786.58787930764333   -1.16570e-05   3.73099e-06 DIIS
   @DF-RHF iter   5:  -786.58788047466214   -1.16702e-06   1.60221e-06 DIIS
   @DF-RHF iter   6:  -786.58788070657079   -2.31909e-07   3.12976e-07 DIIS
   @DF-RHF iter   7:  -786.58788071658114   -1.00104e-08   4.30293e-08 DIIS
   @DF-RHF iter   8:  -786.58788071673553   -1.54387e-10   1.16094e-08 DIIS
   @DF-RHF iter   9:  -786.58788071674371   -8.18545e-12   3.89841e-09 DIIS

  ==> Post-Iterations <==

    Orbital Energies (a.u.)
    -----------------------

    Doubly Occupied:                                                      

       1A    -26.363381     2A    -26.361981     3A    -26.358874  
       4A    -26.353404     5A    -26.352995     6A    -26.349192  
       7A    -20.608564     8A    -11.524849     9A    -11.515313  
      10A    -11.351674    11A     -1.775121    12A     -1.763876  
      13A     -1.671159    14A     -1.667098    15A     -1.660214  
      16A     -1.657599    17A     -1.437517    18A     -1.104387  
      19A     -1.002432    20A     -0.945118    21A     -0.873379  
      22A     -0.869217    23A     -0.861635    24A     -0.850735  
      25A     -0.839300    26A     -0.817882    27A     -0.750751  
      28A     -0.737518    29A     -0.728606    30A     -0.725288  
      31A     -0.698775    32A     -0.695621    33A     -0.691109  
      34A     -0.679775    35A     -0.675306    36A     -0.672117  
      37A     -0.661167    38A     -0.657765    39A     -0.623242  
      40A     -0.552248    41A     -0.509351  

    Virtual:                                                              

      42A      0.152917    43A      0.158162    44A      0.264879  
      45A      0.285626    46A      0.305044    47A      0.326419  
      48A      0.339864    49A      0.384060    50A      0.397683  
      51A      0.439308    52A      0.452179    53A      0.461430  
      54A      0.486983    55A      0.494868    56A      0.501387  
      57A      0.512283    58A      0.522530    59A      0.536324  
      60A      0.554661    61A      0.587722    62A      0.597850  
      63A      0.610648    64A      0.640555    65A      0.679598  
      66A      0.719913    67A      0.728683    68A      0.755659  
      69A      0.765063    70A      0.798511    71A      0.835886  
      72A      0.864602    73A      0.893514    74A      0.901419  
      75A      0.948142    76A      0.953998    77A      0.980922  
      78A      0.991652    79A      1.004154    80A      1.013868  
      81A      1.045003    82A      1.047117    83A      1.067837  
      84A      1.077260    85A      1.102185    86A      1.110392  
      87A      1.117520    88A      1.137653    89A      1.138196  
      90A      1.174533    91A      1.180228    92A      1.198136  
      93A      1.230077    94A      1.280867    95A      1.302280  
      96A      1.340210    97A      1.359545    98A      1.382496  
      99A      1.395077   100A      1.416360   101A      1.464443  
     102A      1.482602   103A      1.525443   104A      1.557439  
     105A      1.559734   106A      1.626812   107A      1.654966  
     108A      1.708630   109A      1.765324   110A      1.855818  
     111A      1.969073   112A      1.995047   113A      2.029712  
     114A      2.088546   115A      2.103188   116A      2.134182  
     117A      2.160799   118A      2.170936   119A      2.177493  
     120A      2.210501   121A      2.214967   122A      2.234410  
     123A      2.240620   124A      2.252386   125A      2.273381  
     126A      2.307023   127A      2.316562   128A      2.335906  
     129A      2.350442   130A      2.386975   131A      2.427466  
     132A      2.447107   133A      2.450324   134A      2.456671  
     135A      2.480290   136A      2.545392   137A      2.562659  
     138A      2.618232   139A      2.649050   140A      2.679530  
     141A      2.697997   142A      2.729419   143A      2.749243  
     144A      2.775328   145A      2.794718   146A      2.815003  
     147A      2.833963   148A      2.863932   149A      2.907434  
     150A      2.914335   151A      2.945670   152A      3.033712  
     153A      3.079433   154A      3.092564   155A      3.132126  
     156A      3.201062   157A      3.217663   158A      3.226787  
     159A      3.262378   160A      3.274110   161A      3.287372  
     162A      3.299863   163A      3.318360   164A      3.332736  
     165A      3.357663   166A      3.387674   167A      3.416116  
     168A      3.449782   169A      3.479181   170A      3.498027  
     171A      3.543348   172A      3.560959   173A      3.580741  
     174A      3.589754   175A      3.623871   176A      3.668263  
     177A      3.698739   178A      3.708920   179A      3.744572  
     180A      3.783079   181A      3.813925   182A      3.832414  
     183A      3.857155   184A      3.877972   185A      3.904551  
     186A      3.920255   187A      3.926749   188A      3.975907  
     189A      3.983252   190A      4.002017   191A      4.018232  
     192A      4.077915   193A      4.114550   194A      4.149541  
     195A      4.203836   196A      4.222068   197A      4.257162  
     198A      4.332774   199A      4.353068   200A      4.389913  
     201A      4.447488   202A      4.471955   203A      4.526195  
     204A      4.532439   205A      4.576813   206A      4.608063  
     207A      4.661526   208A      4.739349   209A      4.832846  
     210A      5.109569   211A      5.170370   212A      5.174630  
     213A      5.230917   214A      5.258771   215A      5.322283  
     216A      5.332133   217A      5.349338   218A      5.372931  
     219A      5.392612   220A      5.441795   221A      5.471452  
     222A      5.475590   223A      5.486585   224A      5.517605  
     225A      5.544094   226A      5.602674   227A      5.626641  
     228A      5.755256   229A      6.004279   230A      6.048544  
     231A      6.096568   232A      6.130623   233A      6.367811  
     234A      6.555011   235A      6.565711   236A      6.599255  
     237A      6.603180   238A      6.713990   239A      7.026929  
     240A      7.105442   241A      7.184276   242A      7.227604  
     243A      7.290766   244A      7.299906   245A      7.315528  
     246A      7.329780   247A      7.334336   248A      7.338728  
     249A      7.339491   250A      7.341349   251A      7.343283  
     252A      7.343803   253A      7.345150   254A      7.349310  
     255A      7.351469   256A      7.352170   257A      7.355052  
     258A      7.359131   259A      7.363342   260A      7.368658  
     261A      7.379993   262A      7.448130   263A      7.489507  
     264A      7.493554   265A      7.501730   266A      7.511391  
     267A      7.521389   268A      7.542148   269A      7.589617  
     270A      7.597570   271A      7.613390   272A      7.614395  
     273A      7.620556   274A      7.631305   275A      7.716661  
     276A      7.844400   277A      7.873382   278A      7.925299  
     279A      7.926906   280A      7.944616   281A      7.954155  
     282A      7.989355   283A      8.088854   284A      8.103482  
     285A      8.153650   286A      8.161387   287A      8.172691  
     288A      8.191978   289A      8.870909   290A      8.888110  
     291A      8.896118   292A      8.911898   293A      8.918280  
     294A      8.923673   295A      8.998680   296A      9.010465  
     297A      9.023879   298A      9.035861   299A      9.060113  
     300A      9.122402   301A      9.167946   302A      9.216102  
     303A      9.305545   304A      9.325778   305A      9.369708  
     306A      9.388287   307A      9.404925   308A      9.418176  
     309A      9.502172   310A      9.525847   311A      9.652819  
     312A      9.665404   313A      9.679322   314A      9.689158  
     315A      9.717048   316A      9.725265   317A      9.745654  
     318A      9.756794   319A     10.824113   320A     11.365261  
     321A     12.144572   322A     12.412585   323A     12.508001  
     324A     12.564285   325A     12.728465   326A     13.434883  
     327A     13.538378   328A     13.794158  

    Final Occupation by Irrep:
              A 
    DOCC [    41 ]

  Energy converged.

  @DF-RHF Final Energy:  -786.58788071674371

   => Energetics <=

    Nuclear Repulsion Energy =            671.0488203134200376
    One-Electron Energy =               -2429.2823365866270251
    Two-Electron Energy =                 971.6456355564632759
    DFT Exchange-Correlation Energy =       0.0000000000000000
    Empirical Dispersion Energy =           0.0000000000000000
    PCM Polarization Energy =               0.0000000000000000
    EFP Energy =                            0.0000000000000000
    Total Energy =                       -786.5878807167437117

    Alert: EFP and PCM quantities not currently incorporated into SCF psivars.

Properties will be evaluated at   0.000000,   0.000000,   0.000000 Bohr
  ==> Properties <==


Properties computed using the SCF density matrix

  Nuclear Dipole Moment: (a.u.)
     X:    -1.5778      Y:     4.0211      Z:    -0.9728

  Electronic Dipole Moment: (a.u.)
     X:     1.2471      Y:    -3.8070      Z:     1.0528

  Dipole Moment: (a.u.)
     X:    -0.3307      Y:     0.2141      Z:     0.0799     Total:     0.4020

  Dipole Moment: (Debye)
     X:    -0.8405      Y:     0.5443      Z:     0.2032     Total:     1.0217


  Saving occupied orbitals to File 180.

*** tstop() called on cx1-27-4-4 at Fri Sep  9 22:48:15 2016
Module time:
	user time   =      39.73 seconds =       0.66 minutes
	system time =       0.62 seconds =       0.01 minutes
	total time  =         12 seconds =       0.20 minutes
Total time:
	user time   =     184.11 seconds =       3.07 minutes
	system time =       2.09 seconds =       0.03 minutes
	total time  =         52 seconds =       0.87 minutes

*** tstart() called on cx1-27-4-4
*** at Fri Sep  9 22:48:15 2016


         ------------------------------------------------------------
                                   SCF GRAD                          
                          Rob Parrish, Justin Turney,                
                       Andy Simmonett, and Alex Sokolov              
         ------------------------------------------------------------

  ==> Geometry <==

    Molecular point group: c1
    Full point group: C1

    Geometry (in Angstrom), charge = 0, multiplicity = 1:

       Center              X                  Y                   Z               Mass       
    ------------   -----------------  -----------------  -----------------  -----------------
           H         -0.282219908002     1.999339833156     0.813840294770     1.007825032070
           O         -0.307140678680     1.863231983033    -0.118259086888    15.994914619560
           C         -0.327530704504     0.522697630734    -0.449030834723    12.000000000000
           C         -1.111791853885    -0.285268930076     0.583961082853    12.000000000000
           C          1.103408434982     0.032840963284    -0.670933602600    12.000000000000
           H         -0.864326678611     0.401988411441    -1.379855749878     1.007825032070
           F         -2.363234247086     0.106035720088     0.579187465462    18.998403224000
           F         -1.087689414575    -1.569683319792     0.338487957846    18.998403224000
           F         -0.647824467543    -0.086228507831     1.799407849549    18.998403224000
           F          1.680309534431     0.789375217730    -1.571717555116    18.998403224000
           F          1.132515252145    -1.201459192126    -1.107941390541    18.998403224000
           F          1.817503636188     0.095193135818     0.430721794911    18.998403224000

  Nuclear repulsion =  671.048820313420038

  ==> Basis Set <==

  Basis Set: CC-PVTZ
    Number of shells: 112
    Number of basis function: 328
    Number of Cartesian functions: 380
    Spherical Harmonics?: true
    Max angular momentum: 3

  ==> DFJKGrad: Density-Fitted SCF Gradients <==

    Gradient:                    1
    J tasked:                  Yes
    K tasked:                  Yes
    wK tasked:                  No
    OpenMP threads:              4
    Integrals threads:           4
    Memory (MB):              1430
    Schwarz Cutoff:          0E+00
    Fitting Condition:       1E-12

   => Auxiliary Basis Set <=

  Basis Set: 
    Number of shells: 270
    Number of basis function: 850
    Number of Cartesian functions: 1030
    Spherical Harmonics?: true
    Max angular momentum: 4


  -Total Gradient:
     Atom            X                  Y                   Z
    ------   -----------------  -----------------  -----------------
       1       -0.003019163971     0.001137562494     0.000044556983
       2        0.004655467611     0.000482515404     0.001017515551
       3        0.001211851083     0.000011787968    -0.002339843716
       4       -0.000169774060    -0.000189257800    -0.000582165967
       5        0.000005600446    -0.001436619138     0.000092328041
       6       -0.002897333508    -0.001168942910     0.001512716513
       7        0.001337289034    -0.000001312962     0.000539337866
       8       -0.000074700820    -0.001366189697    -0.000447225305
       9       -0.000700859545     0.000631853296    -0.000854320996
      10       -0.000535418300     0.000441210680    -0.000664185410
      11       -0.000392687722     0.001537775617     0.000336251909
      12        0.000579729755    -0.000080382947     0.001345034528


*** tstop() called on cx1-27-4-4 at Fri Sep  9 22:48:40 2016
Module time:
	user time   =      94.32 seconds =       1.57 minutes
	system time =       0.69 seconds =       0.01 minutes
	total time  =         25 seconds =       0.42 minutes
Total time:
	user time   =     278.46 seconds =       4.64 minutes
	system time =       2.78 seconds =       0.05 minutes
	total time  =         77 seconds =       1.28 minutes
CURRENT ENERGY: -786.5878807167

			-----------------------------------------
			 OPTKING 2.0: for geometry optimizations 
			  - R.A. King,  Bethel University        
			-----------------------------------------

	Previous internal coordinate definitions found.
	---Fragment 1 Geometry and Gradient---
	 H          -0.5333183354        3.7782047312        1.5379352730
	 O          -0.5804117670        3.5209981700       -0.2234772869
	 C          -0.6189433316        0.9877553724       -0.8485453028
	 C          -2.1009821206       -0.5390801521        1.1035265189
	 C           2.0851397548        0.0620604265       -1.2678807623
	 H          -1.6333407119        0.7596480062       -2.6075494702
	 F          -4.4658655148        0.2003784713        1.0945056893
	 F          -2.0554351112       -2.9662715898        0.6396495396
	 F          -1.2242108258       -0.1629482646        3.4003880370
	 F           3.1753248386        1.4917029776       -2.9701157374
	 F           2.1401436679       -2.2704288330       -2.0937057994
	 F           3.4345841179        0.1798889564        0.8139462318
	            -0.0030191640        0.0011375625        0.0000445570
	             0.0046554676        0.0004825154        0.0010175156
	             0.0012118511        0.0000117880       -0.0023398437
	            -0.0001697741       -0.0001892578       -0.0005821660
	             0.0000056004       -0.0014366191        0.0000923280
	            -0.0028973335       -0.0011689429        0.0015127165
	             0.0013372890       -0.0000013130        0.0005393379
	            -0.0000747008       -0.0013661897       -0.0004472253
	            -0.0007008595        0.0006318533       -0.0008543210
	            -0.0005354183        0.0004412107       -0.0006641854
	            -0.0003926877        0.0015377756        0.0003362519
	             0.0005797298       -0.0000803829        0.0013450345

	---Fragment 1 Intrafragment Coordinates---
	 - Coordinate -           - BOHR/RAD -       - ANG/DEG -
	 R(1,2)           =         1.780715	       0.942314
	 R(2,3)           =         2.609505	       1.380890
	 R(3,4)           =         2.887603	       1.528054
	 R(3,5)           =         2.888740	       1.528655
	 R(3,6)           =         2.043314	       1.081275
	 R(4,7)           =         2.477812	       1.311202
	 R(4,8)           =         2.471541	       1.307883
	 R(4,9)           =         2.487122	       1.316128
	 R(5,10)          =         2.475881	       1.310180
	 R(5,11)          =         2.474978	       1.309702
	 R(5,12)          =         2.483724	       1.314330
	 B(1,2,3)         =         1.957943	     112.181877
	 B(2,3,4)         =         1.937940	     111.035792
	 B(2,3,5)         =         1.909255	     109.392267
	 B(2,3,6)         =         1.898542	     108.778463
	 B(3,4,7)         =         1.906667	     109.243993
	 B(3,4,8)         =         1.963761	     112.515229
	 B(3,4,9)         =         1.942721	     111.309701
	 B(3,5,10)        =         1.903862	     109.083264
	 B(3,5,11)        =         1.951140	     111.792114
	 B(3,5,12)        =         1.951646	     111.821072
	 B(4,3,5)         =         1.992293	     114.149994
	 B(4,3,6)         =         1.842248	     105.553043
	 B(5,3,6)         =         1.879659	     107.696516
	 B(7,4,8)         =         1.885971	     108.058167
	 B(7,4,9)         =         1.869925	     107.138799
	 B(8,4,9)         =         1.891623	     108.382013
	 B(10,5,11)       =         1.880726	     107.757663
	 B(10,5,12)       =         1.885621	     108.038125
	 B(11,5,12)       =         1.888422	     108.198624
	 D(1,2,3,4)       =         0.598062	      34.266413
	 D(1,2,3,5)       =        -1.616332	     -92.609006
	*D(1,2,3,6)       =         2.617994	     150.000017
	 D(2,3,4,7)       =         1.108460	      63.510051
	 D(2,3,4,8)       =        -3.080182	    -176.481425
	 D(2,3,4,9)       =        -0.952999	     -54.602832
	 D(2,3,5,10)      =        -0.960451	     -55.029786
	 D(2,3,5,11)      =        -3.038619	    -174.100054
	 D(2,3,5,12)      =         1.124116	      64.407093
	 D(4,3,5,10)      =         3.139495	     179.879813
	 D(4,3,5,11)      =         1.061327	      60.809544
	 D(4,3,5,12)      =        -1.059124	     -60.683308
	 D(5,3,4,7)       =        -3.006768	    -172.275094
	 D(5,3,4,8)       =        -0.912224	     -52.266570
	 D(5,3,4,9)       =         1.214959	      69.612023
	 D(6,3,4,7)       =        -0.946018	     -54.202844
	 D(6,3,4,8)       =         1.148526	      65.805680
	 D(6,3,4,9)       =        -3.007477	    -172.315727
	 D(6,3,5,10)      =         1.100245	      63.039391
	 D(6,3,5,11)      =        -0.977923	     -56.030877
	 D(6,3,5,12)      =        -3.098374	    -177.523730
	 R(8,11)          =         5.055523	       2.675268
	 R(9,12)          =         5.339624	       2.825608

	Current energy   :      -786.5878807167

	Energy change for the previous step:
		Projected    :        -0.0017767131
		Actual       :        -0.0002233986
	Energy ratio indicates iffy step: Trust radius decreased to 1.250e-01.


	Performing BFGS update.
	Previous computed or guess Hessian on step 1.
	Steps to be used in Hessian update: 1
	Taking RFO optimization step.
	Going to follow RFO solution 1.
	Using RFO vector 1.
	Norm of target step-size    0.04069
	Projected energy change by RFO approximation:        -0.0000524065

	Back-transformation to cartesian coordinates...
	Successfully converged to displaced geometry.

	Back-transformation to cartesian coordinates to adjust frozen coordinates...
	Successfully converged to displaced geometry.

	--- Internal Coordinate Step in ANG or DEG, aJ/ANG or AJ/DEG ---
	 ---------------------------------------------------------------------------
	   Coordinate                Previous        Force       Change         New 
	   ----------                --------       ------       ------       ------
	    1 R(1,2)          =      0.942314    -0.001059    -0.000120     0.942194
	    2 R(2,3)          =      1.380890    -0.015252    -0.001397     1.379494
	    3 R(3,4)          =      1.528054     0.003319     0.000517     1.528571
	    4 R(3,5)          =      1.528655     0.003416     0.000551     1.529207
	    5 R(3,6)          =      1.081275    -0.002197    -0.000261     1.081015
	    6 R(4,7)          =      1.311202     0.010535     0.000818     1.312020
	    7 R(4,8)          =      1.307883    -0.011758    -0.000917     1.306967
	    8 R(4,9)          =      1.316128     0.007641     0.000595     1.316723
	    9 R(5,10)         =      1.310180    -0.003919    -0.000297     1.309882
	   10 R(5,11)         =      1.309702     0.012846     0.000980     1.310682
	   11 R(5,12)         =      1.314330    -0.011910    -0.000965     1.313366
	   12 B(1,2,3)        =    112.181877    -0.000150    -0.496101   111.685777
	   13 B(2,3,4)        =    111.035792    -0.000110    -0.354793   110.680999
	   14 B(2,3,5)        =    109.392267     0.000113     0.293157   109.685423
	   15 B(2,3,6)        =    108.778463    -0.000026    -0.261911   108.516553
	   16 B(3,4,7)        =    109.243993    -0.000002     0.048609   109.292603
	   17 B(3,4,8)        =    112.515229    -0.000028    -0.130027   112.385201
	   18 B(3,4,9)        =    111.309701     0.000028     0.083559   111.393260
	   19 B(3,5,10)       =    109.083264     0.000096     0.238321   109.321585
	   20 B(3,5,11)       =    111.792114     0.000018     0.061481   111.853595
	   21 B(3,5,12)       =    111.821072    -0.000020    -0.088409   111.732663
	   22 B(4,3,5)        =    114.149994    -0.000004     0.056320   114.206314
	   23 B(4,3,6)        =    105.553043     0.000069     0.332491   105.885534
	   24 B(5,3,6)        =    107.696516    -0.000046    -0.080212   107.616304
	   25 B(7,4,8)        =    108.058167    -0.000002    -0.062887   107.995279
	   26 B(7,4,9)        =    107.138799     0.000038     0.241972   107.380771
	   27 B(8,4,9)        =    108.382013    -0.000031    -0.168264   108.213749
	   28 B(10,5,11)      =    107.757663    -0.000029     0.027763   107.785426
	   29 B(10,5,12)      =    108.038125    -0.000054    -0.160370   107.877755
	   30 B(11,5,12)      =    108.198624    -0.000015    -0.085452   108.113172
	   31 D(1,2,3,4)      =     34.266413    -0.000002    -0.049738    34.216676
	   32 D(1,2,3,5)      =    -92.609006    -0.000001    -0.081540   -92.690546
	   33 *D(1,2,3,6)     =    150.000017     0.000000     0.000000   150.000017
	   34 D(2,3,4,7)      =     63.510051    -0.000002     0.571003    64.081054
	   35 D(2,3,4,8)      =   -176.481425    -0.000007     0.441463  -176.039963
	   36 D(2,3,4,9)      =    -54.602832    -0.000016     0.190989   -54.411844
	   37 D(2,3,5,10)     =    -55.029786    -0.000001     0.448486   -54.581300
	   38 D(2,3,5,11)     =   -174.100054    -0.000010     0.219999  -173.880055
	   39 D(2,3,5,12)     =     64.407093    -0.000005     0.349622    64.756715
	   40 D(4,3,5,10)     =    179.879813     0.000012     0.643626   180.523439
	   41 D(4,3,5,11)     =     60.809544     0.000004     0.415139    61.224684
	   42 D(4,3,5,12)     =    -60.683308     0.000008     0.544763   -60.138546
	   43 D(5,3,4,7)      =   -172.275094     0.000012     0.721496  -171.553597
	   44 D(5,3,4,8)      =    -52.266570     0.000007     0.591956   -51.674614
	   45 D(5,3,4,9)      =     69.612023    -0.000002     0.341482    69.953505
	   46 D(6,3,4,7)      =    -54.202844     0.000009     0.873655   -53.329189
	   47 D(6,3,4,8)      =     65.805680     0.000004     0.744115    66.549795
	   48 D(6,3,4,9)      =   -172.315727    -0.000005     0.493641  -171.822086
	   49 D(6,3,5,10)     =     63.039391    -0.000000     0.250707    63.290098
	   50 D(6,3,5,11)     =    -56.030877    -0.000009     0.022220   -56.008657
	   51 D(6,3,5,12)     =   -177.523730    -0.000004     0.151843  -177.371887
	   52 R(8,11)         =      2.675268     0.001308     0.001107     2.676374
	   53 R(9,12)         =      2.825608     0.000823     0.001423     2.827031
	 ---------------------------------------------------------------------------

  ==> Convergence Check <==

  Measures of convergence in internal coordinates in au.
  Criteria marked as inactive (o), active & met (*), and active & unmet ( ).
  ---------------------------------------------------------------------------------------------
   Step     Total Energy     Delta E     MAX Force     RMS Force      MAX Disp      RMS Disp   
  ---------------------------------------------------------------------------------------------
    Convergence Criteria    1.00e-06 *    3.00e-04 *             o    1.20e-03 *             o
  ---------------------------------------------------------------------------------------------
      2    -786.58788072   -2.23e-04      1.97e-03      7.43e-04 o    1.52e-02      5.59e-03 o  ~
  ---------------------------------------------------------------------------------------------

	Writing optimization data to binary file.
	Structure for next step:
	Cartesian Geometry (in Angstrom)
	    H    -0.2876331609   1.9890527537   0.8158055269
	    O    -0.3111346767   1.8622966139  -0.1175275733
	    C    -0.3271675530   0.5235360718  -0.4498912109
	    C    -1.1110744666  -0.2807575183   0.5869939740
	    C     1.1031382243   0.0314044392  -0.6746240040
	    H    -0.8632488733   0.4074658065  -1.3814151665
	    F    -2.3660739535   0.1016024682   0.5738144404
	    F    -1.0778817357  -1.5654982466   0.3492947169
	    F    -0.6500050585  -0.0751667387   1.8030975210
	    F     1.6874398541   0.7907508494  -1.5678071540
	    F     1.1308214790  -1.2017754909  -1.1177821640
	    F     1.8147987297   0.0851521411   0.4279092617
			--------------------------
			 OPTKING Finished Execution 
			--------------------------

    Structure for next step:
    Molecular point group: c1
    Full point group: C1

    Geometry (in Angstrom), charge = 0, multiplicity = 1:

    H           -0.288135042583     1.988683823129     0.815798775749
    O           -0.311636556527     1.861927692985    -0.117534253245
    C           -0.327669431644     0.523167253103    -0.449897865479
    C           -1.111576285394    -0.281126275565     0.586987240246
    C            1.102636236437     0.031035658056    -0.674630641392
    H           -0.863750711013     0.407096996705    -1.381421749947
    F           -2.366575676420     0.101233681741     0.573807707675
    F           -1.078383557032    -1.565866905803     0.349288001354
    F           -0.650506912513    -0.075535511694     1.803090694446
    F            1.686937821611     0.790382010274    -1.567813723173
    F            1.130319489012    -1.202144177880    -1.117788767512
    F            1.814296687445     0.084783355876     0.427902540108

gradient() will perform analytic gradient computation.

*** tstart() called on cx1-27-4-4
*** at Fri Sep  9 22:48:40 2016


         ---------------------------------------------------------
                                   SCF
            by Justin Turney, Rob Parrish, and Andy Simmonett
                              RHF Reference
                        4 Threads,   2000 MiB Core
         ---------------------------------------------------------

  ==> Geometry <==

    Molecular point group: c1
    Full point group: C1

    Geometry (in Angstrom), charge = 0, multiplicity = 1:

       Center              X                  Y                   Z               Mass       
    ------------   -----------------  -----------------  -----------------  -----------------
           H         -0.288135042583     1.988683823129     0.815798775749     1.007825032070
           O         -0.311636556527     1.861927692985    -0.117534253245    15.994914619560
           C         -0.327669431644     0.523167253103    -0.449897865479    12.000000000000
           C         -1.111576285394    -0.281126275565     0.586987240246    12.000000000000
           C          1.102636236437     0.031035658056    -0.674630641392    12.000000000000
           H         -0.863750711013     0.407096996705    -1.381421749947     1.007825032070
           F         -2.366575676420     0.101233681741     0.573807707675    18.998403224000
           F         -1.078383557032    -1.565866905803     0.349288001354    18.998403224000
           F         -0.650506912513    -0.075535511694     1.803090694446    18.998403224000
           F          1.686937821611     0.790382010274    -1.567813723173    18.998403224000
           F          1.130319489012    -1.202144177880    -1.117788767512    18.998403224000
           F          1.814296687445     0.084783355876     0.427902540108    18.998403224000

  Running in c1 symmetry.

  Rotational constants: A =      0.07241  B =      0.03566  C =      0.03157 [cm^-1]
  Rotational constants: A =   2170.83643  B =   1068.99320  C =    946.36141 [MHz]
  Nuclear repulsion =  671.033696302845783

  Charge       = 0
  Multiplicity = 1
  Electrons    = 82
  Nalpha       = 41
  Nbeta        = 41

  ==> Algorithm <==

  SCF Algorithm Type is DF.
  DIIS enabled.
  MOM disabled.
  Fractional occupation disabled.
  Guess Type is READ.
  Energy threshold   = 1.00e-08
  Density threshold  = 1.00e-08
  Integral threshold = 0.00e+00

  ==> Primary Basis <==

  Basis Set: CC-PVTZ
    Number of shells: 112
    Number of basis function: 328
    Number of Cartesian functions: 380
    Spherical Harmonics?: true
    Max angular momentum: 3

  ==> Pre-Iterations <==

   -------------------------------------------------------
    Irrep   Nso     Nmo     Nalpha   Nbeta   Ndocc  Nsocc
   -------------------------------------------------------
     A        328     328       0       0       0       0
   -------------------------------------------------------
    Total     328     328      41      41      41       0
   -------------------------------------------------------

 OEINTS: Overlap, kinetic, potential, dipole, and quadrupole integrals
         stored in file 35.

  ==> Integral Setup <==

  ==> DFJK: Density-Fitted J/K Matrices <==

    J tasked:                  Yes
    K tasked:                  Yes
    wK tasked:                  No
    OpenMP threads:              4
    Integrals threads:           4
    Memory (MB):              1430
    Algorithm:                Core
    Integral Cache:           NONE
    Schwarz Cutoff:          1E-12
    Fitting Condition:       1E-12

   => Auxiliary Basis Set <=

  Basis Set: 
    Number of shells: 270
    Number of basis function: 850
    Number of Cartesian functions: 1030
    Spherical Harmonics?: true
    Max angular momentum: 4

  Minimum eigenvalue in the overlap matrix is 7.8450602487E-04.
  Using Symmetric Orthogonalization.
  SCF Guess: Reading in previously saved MOs, projecting if necessary.

  Using orbitals from previous SCF, no projection.
  Recomputing DOCC and SOCC from number of alpha and beta electrons from previous calculation.
              A 
    DOCC [    41 ]

  ==> Iterations <==

                           Total Energy        Delta E     RMS |[F,P]|

   @DF-RHF iter   0:  -786.58802300893058   -7.86588e+02   9.24530e-05 
   @DF-RHF iter   1:  -786.58790690700698    1.16102e-04   1.40135e-05 
   @DF-RHF iter   2:  -786.58792173198776   -1.48250e-05   4.97017e-06 DIIS
   @DF-RHF iter   3:  -786.58792366407670   -1.93209e-06   2.45909e-06 DIIS
   @DF-RHF iter   4:  -786.58792394438819   -2.80311e-07   4.76454e-07 DIIS
   @DF-RHF iter   5:  -786.58792396829176   -2.39036e-08   1.56465e-07 DIIS
   @DF-RHF iter   6:  -786.58792397116122   -2.86946e-09   3.87067e-08 DIIS
   @DF-RHF iter   7:  -786.58792397127354   -1.12323e-10   1.21123e-08 DIIS
   @DF-RHF iter   8:  -786.58792397128263   -9.09495e-12   3.38674e-09 DIIS

  ==> Post-Iterations <==

    Orbital Energies (a.u.)
    -----------------------

    Doubly Occupied:                                                      

       1A    -26.363979     2A    -26.361848     3A    -26.359164  
       4A    -26.353180     5A    -26.352898     6A    -26.349430  
       7A    -20.608742     8A    -11.525154     9A    -11.515385  
      10A    -11.351681    11A     -1.775242    12A     -1.764042  
      13A     -1.671244    14A     -1.667368    15A     -1.660059  
      16A     -1.657699    17A     -1.438599    18A     -1.104010  
      19A     -1.002571    20A     -0.945175    21A     -0.873561  
      22A     -0.869474    23A     -0.861497    24A     -0.850750  
      25A     -0.839500    26A     -0.818358    27A     -0.750677  
      28A     -0.737808    29A     -0.728696    30A     -0.725406  
      31A     -0.698549    32A     -0.695780    33A     -0.691256  
      34A     -0.679773    35A     -0.675266    36A     -0.672351  
      37A     -0.661138    38A     -0.658104    39A     -0.624031  
      40A     -0.552733    41A     -0.509300  

    Virtual:                                                              

      42A      0.153347    43A      0.158272    44A      0.264578  
      45A      0.285594    46A      0.304685    47A      0.326456  
      48A      0.339705    49A      0.383935    50A      0.397873  
      51A      0.439425    52A      0.452205    53A      0.461058  
      54A      0.486348    55A      0.495079    56A      0.501204  
      57A      0.512339    58A      0.522720    59A      0.536725  
      60A      0.554194    61A      0.587056    62A      0.597447  
      63A      0.610428    64A      0.640094    65A      0.680804  
      66A      0.719951    67A      0.728213    68A      0.755264  
      69A      0.764576    70A      0.799363    71A      0.836151  
      72A      0.864015    73A      0.893742    74A      0.901332  
      75A      0.947679    76A      0.953090    77A      0.980901  
      78A      0.991578    79A      1.005645    80A      1.014564  
      81A      1.043634    82A      1.047340    83A      1.066586  
      84A      1.077346    85A      1.102144    86A      1.110906  
      87A      1.117370    88A      1.137614    89A      1.138207  
      90A      1.174770    91A      1.180228    92A      1.197210  
      93A      1.229794    94A      1.282556    95A      1.301914  
      96A      1.341875    97A      1.359689    98A      1.382685  
      99A      1.397485   100A      1.416129   101A      1.466110  
     102A      1.483706   103A      1.525892   104A      1.557529  
     105A      1.559898   106A      1.626124   107A      1.653789  
     108A      1.708784   109A      1.763080   110A      1.855790  
     111A      1.968753   112A      1.993491   113A      2.029315  
     114A      2.087103   115A      2.103019   116A      2.133381  
     117A      2.160362   118A      2.170625   119A      2.178665  
     120A      2.211153   121A      2.215148   122A      2.234258  
     123A      2.240938   124A      2.252442   125A      2.274018  
     126A      2.307462   127A      2.317337   128A      2.335484  
     129A      2.351260   130A      2.385990   131A      2.426146  
     132A      2.447422   133A      2.448948   134A      2.457909  
     135A      2.481285   136A      2.543956   137A      2.563927  
     138A      2.619587   139A      2.649079   140A      2.678818  
     141A      2.697419   142A      2.727039   143A      2.749401  
     144A      2.775277   145A      2.792961   146A      2.814727  
     147A      2.833488   148A      2.864177   149A      2.905497  
     150A      2.915888   151A      2.946005   152A      3.033366  
     153A      3.077225   154A      3.091172   155A      3.132707  
     156A      3.201473   157A      3.214455   158A      3.226484  
     159A      3.263139   160A      3.274699   161A      3.286868  
     162A      3.300092   163A      3.317789   164A      3.331972  
     165A      3.357238   166A      3.387173   167A      3.414219  
     168A      3.451356   169A      3.480114   170A      3.499190  
     171A      3.541189   172A      3.562218   173A      3.582273  
     174A      3.588296   175A      3.623386   176A      3.669104  
     177A      3.700530   178A      3.709358   179A      3.745422  
     180A      3.782882   181A      3.814263   182A      3.831669  
     183A      3.856672   184A      3.878142   185A      3.906599  
     186A      3.919297   187A      3.925969   188A      3.975881  
     189A      3.984066   190A      4.003749   191A      4.018900  
     192A      4.078985   193A      4.112002   194A      4.153925  
     195A      4.204344   196A      4.223059   197A      4.256193  
     198A      4.333305   199A      4.353148   200A      4.389138  
     201A      4.446764   202A      4.469205   203A      4.525622  
     204A      4.532648   205A      4.576992   206A      4.607506  
     207A      4.660106   208A      4.740086   209A      4.835598  
     210A      5.109949   211A      5.171340   212A      5.179641  
     213A      5.229749   214A      5.259834   215A      5.322045  
     216A      5.333510   217A      5.348773   218A      5.372412  
     219A      5.392101   220A      5.442316   221A      5.469453  
     222A      5.477494   223A      5.488847   224A      5.516993  
     225A      5.543108   226A      5.602980   227A      5.629491  
     228A      5.754183   229A      6.011083   230A      6.046889  
     231A      6.099464   232A      6.131865   233A      6.367255  
     234A      6.554884   235A      6.564950   236A      6.599285  
     237A      6.603653   238A      6.714002   239A      7.027044  
     240A      7.105984   241A      7.184904   242A      7.229450  
     243A      7.290667   244A      7.299941   245A      7.315762  
     246A      7.329431   247A      7.334288   248A      7.338527  
     249A      7.339620   250A      7.341240   251A      7.343365  
     252A      7.343756   253A      7.345247   254A      7.349539  
     255A      7.351304   256A      7.352108   257A      7.355017  
     258A      7.358874   259A      7.363321   260A      7.368454  
     261A      7.379696   262A      7.452370   263A      7.489262  
     264A      7.493207   265A      7.501422   266A      7.510902  
     267A      7.521139   268A      7.542863   269A      7.589120  
     270A      7.597795   271A      7.613082   272A      7.614059  
     273A      7.621783   274A      7.631110   275A      7.715678  
     276A      7.843763   277A      7.872797   278A      7.924296  
     279A      7.927532   280A      7.945407   281A      7.953822  
     282A      7.989985   283A      8.088341   284A      8.101997  
     285A      8.152225   286A      8.161418   287A      8.172826  
     288A      8.191940   289A      8.870866   290A      8.887963  
     291A      8.896065   292A      8.911056   293A      8.918965  
     294A      8.924075   295A      8.998680   296A      9.010068  
     297A      9.023719   298A      9.036314   299A      9.060140  
     300A      9.122129   301A      9.167943   302A      9.215062  
     303A      9.305536   304A      9.325272   305A      9.369772  
     306A      9.387426   307A      9.404650   308A      9.417218  
     309A      9.501610   310A      9.525691   311A      9.653048  
     312A      9.665653   313A      9.679235   314A      9.688662  
     315A      9.717112   316A      9.727103   317A      9.745504  
     318A      9.756611   319A     10.827301   320A     11.359916  
     321A     12.141897   322A     12.405294   323A     12.510616  
     324A     12.571870   325A     12.723799   326A     13.426409  
     327A     13.527539   328A     13.804681  

    Final Occupation by Irrep:
              A 
    DOCC [    41 ]

  Energy converged.

  @DF-RHF Final Energy:  -786.58792397128263

   => Energetics <=

    Nuclear Repulsion Energy =            671.0336963028457831
    One-Electron Energy =               -2429.2402802369988422
    Two-Electron Energy =                 971.6186599628704244
    DFT Exchange-Correlation Energy =       0.0000000000000000
    Empirical Dispersion Energy =           0.0000000000000000
    PCM Polarization Energy =               0.0000000000000000
    EFP Energy =                            0.0000000000000000
    Total Energy =                       -786.5879239712826347

    Alert: EFP and PCM quantities not currently incorporated into SCF psivars.

Properties will be evaluated at   0.000000,   0.000000,   0.000000 Bohr
  ==> Properties <==


Properties computed using the SCF density matrix

  Nuclear Dipole Moment: (a.u.)
     X:    -1.5871      Y:     4.0163      Z:    -0.9728

  Electronic Dipole Moment: (a.u.)
     X:     1.2542      Y:    -3.8029      Z:     1.0516

  Dipole Moment: (a.u.)
     X:    -0.3329      Y:     0.2134      Z:     0.0788     Total:     0.4032

  Dipole Moment: (Debye)
     X:    -0.8460      Y:     0.5424      Z:     0.2004     Total:     1.0248


  Saving occupied orbitals to File 180.

*** tstop() called on cx1-27-4-4 at Fri Sep  9 22:48:52 2016
Module time:
	user time   =      36.10 seconds =       0.60 minutes
	system time =       0.52 seconds =       0.01 minutes
	total time  =         12 seconds =       0.20 minutes
Total time:
	user time   =     315.12 seconds =       5.25 minutes
	system time =       3.32 seconds =       0.06 minutes
	total time  =         89 seconds =       1.48 minutes

*** tstart() called on cx1-27-4-4
*** at Fri Sep  9 22:48:52 2016


         ------------------------------------------------------------
                                   SCF GRAD                          
                          Rob Parrish, Justin Turney,                
[...]
	system time =       5.43 seconds =       0.09 minutes
	total time  =        159 seconds =       2.65 minutes

*** tstart() called on cx1-27-4-4
*** at Fri Sep  9 22:50:02 2016


         ------------------------------------------------------------
                                   SCF GRAD                          
                          Rob Parrish, Justin Turney,                
                       Andy Simmonett, and Alex Sokolov              
         ------------------------------------------------------------

  ==> Geometry <==

    Molecular point group: c1
    Full point group: C1

    Geometry (in Angstrom), charge = 0, multiplicity = 1:

       Center              X                  Y                   Z               Mass       
    ------------   -----------------  -----------------  -----------------  -----------------
           H         -0.290942491613     1.987520661365     0.818240831159     1.007825032070
           O         -0.313004352332     1.861829486439    -0.115364458670    15.994914619560
           C         -0.326443921865     0.523418322027    -0.449779977722    12.000000000000
           C         -1.111203597272    -0.282371438488     0.586263961915    12.000000000000
           C          1.103863361245     0.031643447765    -0.674444409309    12.000000000000
           H         -0.860972457496     0.407366147318    -1.382089053501     1.007825032070
           F         -2.365611277362     0.102934095362     0.573312040174    18.998403224000
           F         -1.080606579947    -1.567121020287     0.350824518784    18.998403224000
           F         -0.650480873891    -0.074872763491     1.802552329193    18.998403224000
           F          1.686426893734     0.788771829774    -1.569982713418    18.998403224000
           F          1.129098283214    -1.202838489076    -1.116805888044    18.998403224000
           F          1.816629949528     0.086352908707     0.426930005107    18.998403224000

  Nuclear repulsion =  670.948964383556927

  ==> Basis Set <==

  Basis Set: CC-PVTZ
    Number of shells: 112
    Number of basis function: 328
    Number of Cartesian functions: 380
    Spherical Harmonics?: true
    Max angular momentum: 3

  ==> DFJKGrad: Density-Fitted SCF Gradients <==

    Gradient:                    1
    J tasked:                  Yes
    K tasked:                  Yes
    wK tasked:                  No
    OpenMP threads:              4
    Integrals threads:           4
    Memory (MB):              1430
    Schwarz Cutoff:          0E+00
    Fitting Condition:       1E-12

   => Auxiliary Basis Set <=

  Basis Set: 
    Number of shells: 270
    Number of basis function: 850
    Number of Cartesian functions: 1030
    Spherical Harmonics?: true
    Max angular momentum: 4


  -Total Gradient:
     Atom            X                  Y                   Z
    ------   -----------------  -----------------  -----------------
       1       -0.003208246645     0.000018401681     0.000092338969
       2        0.003412939095    -0.000069706573     0.000246497857
       3        0.002146439834     0.000440729758    -0.001725378967
       4        0.000056837546     0.000000663095     0.000108195862
       5        0.000065967521    -0.000079294028    -0.000027050554
       6       -0.002328681863    -0.000322858980     0.001390858332
       7       -0.000020274937    -0.000003375213    -0.000043970138
       8       -0.000025164941    -0.000050157842    -0.000045938876
       9        0.000035564544     0.000025603203    -0.000012357670
      10       -0.000017643792     0.000037552955     0.000002607124
      11       -0.000035575260    -0.000028581794     0.000006557383
      12       -0.000082161099     0.000031023747     0.000007640681


*** tstop() called on cx1-27-4-4 at Fri Sep  9 22:50:27 2016
Module time:
	user time   =      93.74 seconds =       1.56 minutes
	system time =       0.59 seconds =       0.01 minutes
	total time  =         25 seconds =       0.42 minutes
Total time:
	user time   =     666.81 seconds =      11.11 minutes
	system time =       6.02 seconds =       0.10 minutes
	total time  =        184 seconds =       3.07 minutes
CURRENT ENERGY: -786.5879294901

			-----------------------------------------
			 OPTKING 2.0: for geometry optimizations 
			  - R.A. King,  Bethel University        
			-----------------------------------------

	Previous internal coordinate definitions found.
	---Fragment 1 Geometry and Gradient---
	 H          -0.5498016296        3.7558697334        1.5462510816
	 O          -0.5914925043        3.5183478355       -0.2180072324
	 C          -0.6168896101        0.9891172816       -0.8499609779
	 C          -2.0998704767       -0.5336046865        1.1078783296
	 C           2.0859994409        0.0597974502       -1.2745152255
	 H          -1.6270021526        0.7698104542       -2.6117698024
	 F          -4.4703574511        0.1945172500        1.0834027446
	 F          -2.0420504935       -2.9614295454        0.6629622612
	 F          -1.2292307063       -0.1414890178        3.4063302424
	 F           3.1868849723        1.4905627396       -2.9668373617
	 F           2.1336865324       -2.2730353264       -2.1104572720
	 F           3.4329330894        0.1631833482        0.8067807876
	            -0.0032082466        0.0000184017        0.0000923390
	             0.0034129391       -0.0000697066        0.0002464979
	             0.0021464398        0.0004407298       -0.0017253790
	             0.0000568375        0.0000006631        0.0001081959
	             0.0000659675       -0.0000792940       -0.0000270506
	            -0.0023286819       -0.0003228590        0.0013908583
	            -0.0000202749       -0.0000033752       -0.0000439701
	            -0.0000251649       -0.0000501578       -0.0000459389
	             0.0000355645        0.0000256032       -0.0000123577
	            -0.0000176438        0.0000375530        0.0000026071
	            -0.0000355753       -0.0000285818        0.0000065574
	            -0.0000821611        0.0000310237        0.0000076407

	---Fragment 1 Intrafragment Coordinates---
	 - Coordinate -           - BOHR/RAD -       - ANG/DEG -
	 R(1,2)           =         1.780663	       0.942287
	 R(2,3)           =         2.607109	       1.379623
	 R(3,4)           =         2.889818	       1.529226
	 R(3,5)           =         2.889549	       1.529083
	 R(3,6)           =         2.042644	       1.080921
	 R(4,7)           =         2.479913	       1.312314
	 R(4,8)           =         2.468932	       1.306503
	 R(4,9)           =         2.488905	       1.317072
	 R(5,10)          =         2.474468	       1.309432
	 R(5,11)          =         2.478544	       1.311589
	 R(5,12)          =         2.481272	       1.313033
	 B(1,2,3)         =         1.949586	     111.703052
	 B(2,3,4)         =         1.930464	     110.607429
	 B(2,3,5)         =         1.916129	     109.786095
	 B(2,3,6)         =         1.894463	     108.544713
	 B(3,4,7)         =         1.906183	     109.216239
	 B(3,4,8)         =         1.964971	     112.584562
	 B(3,4,9)         =         1.942417	     111.292268
	 B(3,5,10)        =         1.907824	     109.310239
	 B(3,5,11)        =         1.950083	     111.731549
	 B(3,5,12)        =         1.951022	     111.785314
	 B(4,3,5)         =         1.993360	     114.211119
	 B(4,3,6)         =         1.848352	     105.902749
	 B(5,3,6)         =         1.876863	     107.536353
	 B(7,4,8)         =         1.885281	     108.018641
	 B(7,4,9)         =         1.872587	     107.291352
	 B(8,4,9)         =         1.889301	     108.248955
	 B(10,5,11)       =         1.880729	     107.757829
	 B(10,5,12)       =         1.883958	     107.942815
	 B(11,5,12)       =         1.887753	     108.160300
	 D(1,2,3,4)       =         0.597258	      34.220385
	 D(1,2,3,5)       =        -1.618161	     -92.713799
	*D(1,2,3,6)       =         2.617994	     150.000017
	 D(2,3,4,7)       =         1.115101	      63.890554
	 D(2,3,4,8)       =        -3.073962	    -176.125038
	 D(2,3,4,9)       =        -0.949150	     -54.382262
	 D(2,3,5,10)      =        -0.957064	     -54.835730
	 D(2,3,5,11)      =        -3.037158	    -174.016349
	 D(2,3,5,12)      =         1.127639	      64.608932
	 D(4,3,5,10)      =        -3.136657	    -179.717196
	 D(4,3,5,11)      =         1.066434	      61.102185
	 D(4,3,5,12)      =        -1.051954	     -60.272534
	 D(5,3,4,7)       =        -2.996118	    -171.664933
	 D(5,3,4,8)       =        -0.901995	     -51.680525
	 D(5,3,4,9)       =         1.222817	      70.062251
	 D(6,3,4,7)       =        -0.934187	     -53.524982
	 D(6,3,4,8)       =         1.159936	      66.459426
	 D(6,3,4,9)       =        -2.998437	    -171.797797
	 D(6,3,5,10)      =         1.100931	      63.078674
	 D(6,3,5,11)      =        -0.979164	     -56.101945
	 D(6,3,5,12)      =        -3.097552	    -177.476664
	 R(8,11)          =         5.059893	       2.677581
	 R(9,12)          =         5.346611	       2.829305

	Current energy   :      -786.5879294901

	Energy change for the previous step:
		Projected    :         0.0000016315
		Actual       :        -0.0000006801

	Performing BFGS update.
	Previous computed or guess Hessian on step 1.
	Steps to be used in Hessian update: 4 3
	Taking RFO optimization step.
	Going to follow RFO solution 1.
	Rejecting RFO root 1 because normalization gives large value.
	Using RFO vector 2.
	Norm of target step-size    0.00170
	Projected energy change by RFO approximation:        -0.0000002787

	Back-transformation to cartesian coordinates...
	Successfully converged to displaced geometry.

	Back-transformation to cartesian coordinates to adjust frozen coordinates...
	Successfully converged to displaced geometry.

	--- Internal Coordinate Step in ANG or DEG, aJ/ANG or AJ/DEG ---
	 ---------------------------------------------------------------------------
	   Coordinate                Previous        Force       Change         New 
	   ----------                --------       ------       ------       ------
	    1 R(1,2)          =      0.942287    -0.000155    -0.000007     0.942280
	    2 R(2,3)          =      1.379623    -0.000283    -0.000037     1.379586
	    3 R(3,4)          =      1.529226    -0.000305    -0.000006     1.529220
	    4 R(3,5)          =      1.529083     0.000050     0.000011     1.529095
	    5 R(3,6)          =      1.080921     0.000110     0.000014     1.080935
	    6 R(4,7)          =      1.312314    -0.000155     0.000002     1.312316
	    7 R(4,8)          =      1.306503    -0.000471    -0.000082     1.306421
	    8 R(4,9)          =      1.317072    -0.000089     0.000026     1.317098
	    9 R(5,10)         =      1.309432    -0.000100    -0.000029     1.309403
	   10 R(5,11)         =      1.311589    -0.000204     0.000027     1.311617
	   11 R(5,12)         =      1.313033     0.000280     0.000002     1.313035
	   12 B(1,2,3)        =    111.703052    -0.000000     0.000852   111.703905
	   13 B(2,3,4)        =    110.607429     0.000001    -0.002042   110.605387
	   14 B(2,3,5)        =    109.786095    -0.000002    -0.008301   109.777793
	   15 B(2,3,6)        =    108.544713     0.000000    -0.000838   108.543875
	   16 B(3,4,7)        =    109.216239     0.000004     0.010050   109.226289
	   17 B(3,4,8)        =    112.584562     0.000000     0.004826   112.589387
	   18 B(3,4,9)        =    111.292268    -0.000000    -0.002930   111.289338
	   19 B(3,5,10)       =    109.310239     0.000003     0.008191   109.318430
	   20 B(3,5,11)       =    111.731549     0.000002    -0.005548   111.726001
	   21 B(3,5,12)       =    111.785314     0.000005     0.025995   111.811308
	   22 B(4,3,5)        =    114.211119    -0.000000     0.009114   114.220233
	   23 B(4,3,6)        =    105.902749    -0.000000    -0.001443   105.901306
	   24 B(5,3,6)        =    107.536353     0.000001     0.003617   107.539970
	   25 B(7,4,8)        =    108.018641     0.000001     0.008609   108.027251
	   26 B(7,4,9)        =    107.291352    -0.000002    -0.004897   107.286454
	   27 B(8,4,9)        =    108.248955    -0.000002    -0.015893   108.233062
	   28 B(10,5,11)      =    107.757829    -0.000004    -0.012444   107.745384
	   29 B(10,5,12)      =    107.942815    -0.000003    -0.005197   107.937619
	   30 B(11,5,12)      =    108.160300    -0.000004    -0.012523   108.147777
	   31 D(1,2,3,4)      =     34.220385    -0.000000     0.003354    34.223739
	   32 D(1,2,3,5)      =    -92.713799     0.000000    -0.000807   -92.714606
	   33 *D(1,2,3,6)     =    150.000017    -0.000000    -0.000000   150.000017
	   34 D(2,3,4,7)      =     63.890554    -0.000000     0.002844    63.893398
	   35 D(2,3,4,8)      =   -176.125038     0.000001     0.023638  -176.101400
	   36 D(2,3,4,9)      =    -54.382262    -0.000000     0.004321   -54.377940
	   37 D(2,3,5,10)     =    -54.835730    -0.000000    -0.002867   -54.838598
	   38 D(2,3,5,11)     =   -174.016349     0.000000     0.010736  -174.005613
	   39 D(2,3,5,12)     =     64.608932     0.000000     0.012369    64.621301
	   40 D(4,3,5,10)     =   -179.717196    -0.000000    -0.000373  -179.717570
	   41 D(4,3,5,11)     =     61.102185     0.000000     0.013230    61.115415
	   42 D(4,3,5,12)     =    -60.272534     0.000000     0.014863   -60.257671
	   43 D(5,3,4,7)      =   -171.664933    -0.000001    -0.002925  -171.667858
	   44 D(5,3,4,8)      =    -51.680525     0.000000     0.017869   -51.662656
	   45 D(5,3,4,9)      =     70.062251    -0.000001    -0.001448    70.060804
	   46 D(6,3,4,7)      =    -53.524982    -0.000000     0.005716   -53.519266
	   47 D(6,3,4,8)      =     66.459426     0.000001     0.026510    66.485937
	   48 D(6,3,4,9)      =   -171.797797    -0.000000     0.007194  -171.790604
	   49 D(6,3,5,10)     =     63.078674    -0.000000    -0.006342    63.072332
	   50 D(6,3,5,11)     =    -56.101945     0.000000     0.007261   -56.094684
	   51 D(6,3,5,12)     =   -177.476664     0.000000     0.008894  -177.467770
	   52 R(8,11)         =      2.677581     0.000081     0.000278     2.677859
	   53 R(9,12)         =      2.829305     0.000349     0.000589     2.829894
	 ---------------------------------------------------------------------------

  ==> Convergence Check <==

  Measures of convergence in internal coordinates in au.
  Criteria marked as inactive (o), active & met (*), and active & unmet ( ).
  ---------------------------------------------------------------------------------------------
   Step     Total Energy     Delta E     MAX Force     RMS Force      MAX Disp      RMS Disp   
  ---------------------------------------------------------------------------------------------
    Convergence Criteria    1.00e-06 *    3.00e-04 *             o    1.20e-03 *             o
  ---------------------------------------------------------------------------------------------
      5    -786.58792949   -6.80e-07 *    5.94e-05 *    2.52e-05 o    1.11e-03 *    2.33e-04 o  ~
  ---------------------------------------------------------------------------------------------


  **** Optimization is complete! (in 5 steps) ****

  ==> Optimization Summary <==

  Measures of convergence in internal coordinates in au.
  --------------------------------------------------------------------------------------------------------------- ~
   Step         Total Energy             Delta E       MAX Force       RMS Force        MAX Disp        RMS Disp  ~
  --------------------------------------------------------------------------------------------------------------- ~
      1    -786.587657318170   -786.587657318170      0.00309868      0.00116779      0.10935676      0.04753152  ~
      2    -786.587880716744     -0.000223398573      0.00196512      0.00074341      0.01524816      0.00558955  ~
      3    -786.587923971283     -0.000043254539      0.00061234      0.00018602      0.00639461      0.00255473  ~
      4    -786.587928809992     -0.000004838710      0.00024921      0.00008137      0.00280343      0.00119757  ~
      5    -786.587929490126     -0.000000680134      0.00005937      0.00002525      0.00111350      0.00023285  ~
  --------------------------------------------------------------------------------------------------------------- ~

	Writing optimization data to binary file.
	Final energy is   -786.5879294901259
	Final (previous) structure:
	Cartesian Geometry (in Angstrom)
	    H    -0.2909425138   1.9875208131   0.8182408936
	    O    -0.3130043762   1.8618296286  -0.1153644675
	    C    -0.3264439468   0.5234183620  -0.4497800121
	    C    -1.1112036821  -0.2823714601   0.5862640067
	    C     1.1038634455   0.0316434502  -0.6744444608
	    H    -0.8609725232   0.4073661784  -1.3820891590
	    F    -2.3656114580   0.1029341032   0.5733120840
	    F    -1.0806066625  -1.5671211400   0.3508245456
	    F    -0.6504809236  -0.0748727692   1.8025524668
	    F     1.6864270225   0.7887718900  -1.5699828333
	    F     1.1290983694  -1.2028385809  -1.1168059733
	    F     1.8166300883   0.0863529153   0.4269300377
	Saving final (previous) structure.
			--------------------------
			 OPTKING Finished Execution 
			--------------------------

    Final optimized geometry and variables:
    Molecular point group: c1
    Full point group: C1

    Geometry (in Angstrom), charge = 0, multiplicity = 1:

    H           -0.290942491613     1.987520661365     0.818240831159
    O           -0.313004352332     1.861829486439    -0.115364458670
    C           -0.326443921865     0.523418322027    -0.449779977722
    C           -1.111203597272    -0.282371438488     0.586263961915
    C            1.103863361245     0.031643447765    -0.674444409309
    H           -0.860972457496     0.407366147318    -1.382089053501
    F           -2.365611277362     0.102934095362     0.573312040174
    F           -1.080606579947    -1.567121020287     0.350824518784
    F           -0.650480873891    -0.074872763491     1.802552329193
    F            1.686426893734     0.788771829774    -1.569982713418
    F            1.129098283214    -1.202838489076    -1.116805888044
    F            1.816629949528     0.086352908707     0.426930005107

	Cleaning optimization helper files.


Properties will be evaluated at   0.000000,   0.000000,   0.000000 Bohr

Properties computed using the  density matrix

  Nuclear Dipole Moment: (a.u.)
     X:    -1.5865      Y:     4.0151      Z:    -0.9695

  Electronic Dipole Moment: (a.u.)
     X:     1.2576      Y:    -3.8030      Z:     1.0476

  Dipole Moment: (a.u.)
     X:    -0.3289      Y:     0.2121      Z:     0.0780     Total:     0.3990

  Dipole Moment: (Debye)
     X:    -0.8359      Y:     0.5391      Z:     0.1983     Total:     1.0143

  Quadrupole Moment: (Debye Ang)
    XX:   -55.9567     YY:   -54.8795     ZZ:   -51.6657
    XY:    -0.2917     XZ:     1.9179     YZ:     2.9797

  Traceless Quadrupole Moment: (Debye Ang)
    XX:    -1.7894     YY:    -0.7122     ZZ:     2.5016
    XY:    -0.2917     XZ:     1.9179     YZ:     2.9797

  Mulliken Charges: (a.u.)
   Center  Symbol    Alpha    Beta     Spin     Total
       1     H     0.38155  0.38155  0.00000  0.23691
       2     O     4.19017  4.19017  0.00000 -0.38033
       3     C     3.00240  3.00240  0.00000 -0.00481
       4     C     2.68655  2.68655  0.00000  0.62691
       5     C     2.68231  2.68231  0.00000  0.63539
       6     H     0.42879  0.42879  0.00000  0.14241
       7     F     4.60356  4.60356  0.00000 -0.20711
       8     F     4.59912  4.59912  0.00000 -0.19824
       9     F     4.61092  4.61092  0.00000 -0.22183
      10     F     4.60158  4.60158  0.00000 -0.20316
      11     F     4.60509  4.60509  0.00000 -0.21019
      12     F     4.60797  4.60797  0.00000 -0.21595

   Total alpha = 41.00000, Total beta = 41.00000, Total charge = -0.00000


*** PSI4 exiting successfully. Buy a developer a beer!
