    -----------------------------------------------------------------------
          Psi4: An Open-Source Ab Initio Electronic Structure Package
                              Psi4 (no tag) Driver

                          Git: Rev {detached?}  

    J. M. Turney, A. C. Simmonett, R. M. Parrish, E. G. Hohenstein,
    F. A. Evangelista, J. T. Fermann, B. J. Mintz, L. A. Burns, J. J. Wilke,
    M. L. Abrams, N. J. Russ, M. L. Leininger, C. L. Janssen, E. T. Seidl,
    W. D. Allen, H. F. Schaefer, R. A. King, E. F. Valeev, C. D. Sherrill,
    and T. D. Crawford, WIREs Comput. Mol. Sci. 2, 556-565 (2012)
    (doi: 10.1002/wcms.93)

                         Additional Contributions by
    A. E. DePrince, M. Saitow, U. Bozkaya, A. Yu. Sokolov
    -----------------------------------------------------------------------


    Psi4 started on: Fri Sep  2 12:04:47 2016

    Process ID:   4154
    PSI4DATADIR: /export131/home/mjharvey/miniconda3/share
    Memory level set to 256.000 MB

  ==> Input File <==

--------------------------------------------------------------------------
set {
	reference rhf
	basis 6-31G*
}


set_num_threads( 4 )
memory 2 gb

molecule MOL {
0 1

H	 1.782991	 -0.877345	 0.783646
C	 0.923515	 -0.965493	 0.133388
O	 0.000000	 0.000000	 0.521119
H	 1.244725	 -0.819172	 -0.896711
H	 0.513190	 -1.969840	 0.226176
C	 -1.165642	 0.000000	 -0.238270
H	 -1.228672	 0.883184	 -0.872070
H	 -2.003012	 0.000000	 0.445920
H	 -1.228672	 -0.883184	 -0.872070

	symmetry c1
}
set optking {
	frozen_dihedral = ("
		2 3 6 7
	")
}

ee = optimize('scf')
oeprop('DIPOLE', 'QUADRUPOLE', 'MULLIKEN_CHARGES')
f=open( 'psi4out.xyz', 'w' )
f.write( "9  " )
f.write( str(ee) + "\n" )
f.write( MOL.save_string_xyz() )
f.close()
--------------------------------------------------------------------------

  Memory set to   2.000 GiB by Python script.
gradient() will perform analytic gradient computation.

*** tstart() called on cx1-1-1-3.cx1.hpc.ic.ac.uk
*** at Fri Sep  2 12:04:48 2016


         ---------------------------------------------------------
                                   SCF
            by Justin Turney, Rob Parrish, and Andy Simmonett
                              RHF Reference
                        4 Threads,   2000 MiB Core
         ---------------------------------------------------------

  ==> Geometry <==

    Molecular point group: c1
    Full point group: C1

    Geometry (in Angstrom), charge = 0, multiplicity = 1:

       Center              X                  Y                   Z               Mass       
    ------------   -----------------  -----------------  -----------------  -----------------
           H          1.866223265708    -0.545452223209     0.655886461595     1.007825032070
           C          1.006747265708    -0.633600223209     0.005628461595    12.000000000000
           O          0.083232265708     0.331892776791     0.393359461595    15.994914619560
           H          1.327957265708    -0.487279223209    -1.024470538405     1.007825032070
           H          0.596422265708    -1.637947223209     0.098416461595     1.007825032070
           C         -1.082409734292     0.331892776791    -0.366029538405    12.000000000000
           H         -1.145439734292     1.215076776791    -0.999829538405     1.007825032070
           H         -1.919779734292     0.331892776791     0.318160461595     1.007825032070
           H         -1.145439734292    -0.551291223209    -0.999829538405     1.007825032070

  Running in c1 symmetry.

  Rotational constants: A =      1.37021  B =      0.33765  C =      0.30132 [cm^-1]
  Rotational constants: A =  41077.82752  B =  10122.48118  C =   9033.26380 [MHz]
  Nuclear repulsion =   84.795291473589671

  Charge       = 0
  Multiplicity = 1
  Electrons    = 26
  Nalpha       = 13
  Nbeta        = 13

  ==> Algorithm <==

  SCF Algorithm Type is DF.
  DIIS enabled.
  MOM disabled.
  Fractional occupation disabled.
  Guess Type is CORE.
  Energy threshold   = 1.00e-08
  Density threshold  = 1.00e-08
  Integral threshold = 0.00e+00

  ==> Primary Basis <==

  Basis Set: 6-31G*
    Number of shells: 30
    Number of basis function: 57
    Number of Cartesian functions: 57
    Spherical Harmonics?: false
    Max angular momentum: 2

  ==> Pre-Iterations <==

   -------------------------------------------------------
    Irrep   Nso     Nmo     Nalpha   Nbeta   Ndocc  Nsocc
   -------------------------------------------------------
     A         57      57       0       0       0       0
   -------------------------------------------------------
    Total      57      57      13      13      13       0
   -------------------------------------------------------

 OEINTS: Overlap, kinetic, potential, dipole, and quadrupole integrals
         stored in file 35.

  ==> Integral Setup <==

  ==> DFJK: Density-Fitted J/K Matrices <==

    J tasked:                  Yes
    K tasked:                  Yes
    wK tasked:                  No
    OpenMP threads:              4
    Integrals threads:           4
    Memory (MB):              1430
    Algorithm:                Core
    Integral Cache:           NONE
    Schwarz Cutoff:          1E-12
    Fitting Condition:       1E-12

   => Auxiliary Basis Set <=

  Basis Set: 
    Number of shells: 126
    Number of basis function: 393
    Number of Cartesian functions: 393
    Spherical Harmonics?: false
    Max angular momentum: 3

  Minimum eigenvalue in the overlap matrix is 7.5104496229E-03.
  Using Symmetric Orthogonalization.
  SCF Guess: Core (One-Electron) Hamiltonian.

  ==> Iterations <==

                           Total Energy        Delta E     RMS |[F,P]|

   @DF-RHF iter   1:  -129.87174705709111   -1.29872e+02   9.38980e-02 
   @DF-RHF iter   2:  -130.07615063204224   -2.04404e-01   6.12573e-02 DIIS
   @DF-RHF iter   3:  -149.61125077150319   -1.95351e+01   5.54309e-02 DIIS
   @DF-RHF iter   4:  -152.21214480603692   -2.60089e+00   3.56618e-02 DIIS
   @DF-RHF iter   5:  -153.73640414752691   -1.52426e+00   1.50621e-02 DIIS
   @DF-RHF iter   6:  -154.03928152484423   -3.02877e-01   4.32376e-03 DIIS
   @DF-RHF iter   7:  -154.05995242571549   -2.06709e-02   4.01065e-04 DIIS
   @DF-RHF iter   8:  -154.06043934617844   -4.86920e-04   9.82827e-05 DIIS
   @DF-RHF iter   9:  -154.06046437189696   -2.50257e-05   2.30669e-05 DIIS
   @DF-RHF iter  10:  -154.06046596751395   -1.59562e-06   7.40627e-06 DIIS
   @DF-RHF iter  11:  -154.06046612753374   -1.60020e-07   1.55412e-06 DIIS
   @DF-RHF iter  12:  -154.06046613628240   -8.74866e-09   3.49018e-07 DIIS
   @DF-RHF iter  13:  -154.06046613655394   -2.71541e-10   5.12515e-08 DIIS
   @DF-RHF iter  14:  -154.06046613656417   -1.02318e-11   1.05578e-08 DIIS
   @DF-RHF iter  15:  -154.06046613656463   -4.54747e-13   2.01763e-09 DIIS

  ==> Post-Iterations <==

    Orbital Energies (a.u.)
    -----------------------

    Doubly Occupied:                                                      

       1A    -20.553278     2A    -11.265736     3A    -11.264174  
       4A     -1.378299     5A     -0.973963     6A     -0.873845  
       7A     -0.658692     8A     -0.655775     9A     -0.642767  
      10A     -0.557961    11A     -0.525479    12A     -0.476676  
      13A     -0.412182  

    Virtual:                                                              

      14A      0.239939    15A      0.295766    16A      0.308379  
      17A      0.310843    18A      0.321240    19A      0.334319  
      20A      0.354614    21A      0.433408    22A      0.731633  
      23A      0.765919    24A      0.782714    25A      0.821944  
      26A      0.830401    27A      0.885213    28A      1.099821  
      29A      1.120778    30A      1.136961    31A      1.150893  
      32A      1.158311    33A      1.203300    34A      1.237323  
      35A      1.324656    36A      1.335769    37A      1.343344  
      38A      1.632094    39A      1.727228    40A      1.754924  
      41A      1.834398    42A      1.870148    43A      2.215373  
      44A      2.426335    45A      2.430024    46A      2.462196  
      47A      2.480575    48A      2.500770    49A      2.600638  
      50A      2.737146    51A      2.831074    52A      2.870809  
      53A      3.114850    54A      3.291544    55A      4.340318  
      56A      4.620841    57A      4.706101  

    Final Occupation by Irrep:
              A 
    DOCC [    13 ]

  Energy converged.

  @DF-RHF Final Energy:  -154.06046613656463

   => Energetics <=

    Nuclear Repulsion Energy =             84.7952914735896712
    One-Electron Energy =                -377.2338605377862564
    Two-Electron Energy =                 138.3781029276319146
    DFT Exchange-Correlation Energy =       0.0000000000000000
    Empirical Dispersion Energy =           0.0000000000000000
    PCM Polarization Energy =               0.0000000000000000
    EFP Energy =                            0.0000000000000000
    Total Energy =                       -154.0604661365646848

    Alert: EFP and PCM quantities not currently incorporated into SCF psivars.

Properties will be evaluated at   0.000000,   0.000000,   0.000000 Bohr
  ==> Properties <==


Properties computed using the SCF density matrix

  Nuclear Dipole Moment: (a.u.)
     X:    -0.3934      Y:    -1.5687      Z:    -1.8277

  Electronic Dipole Moment: (a.u.)
     X:     0.2997      Y:     1.1629      Z:     1.3688

  Dipole Moment: (a.u.)
     X:    -0.0937      Y:    -0.4058      Z:    -0.4589     Total:     0.6197

  Dipole Moment: (Debye)
     X:    -0.2381      Y:    -1.0314      Z:    -1.1665     Total:     1.5752


  Saving occupied orbitals to File 180.

*** tstop() called on cx1-1-1-3.cx1.hpc.ic.ac.uk at Fri Sep  2 12:04:49 2016
Module time:
	user time   =       3.32 seconds =       0.06 minutes
	system time =       0.06 seconds =       0.00 minutes
	total time  =          1 seconds =       0.02 minutes
Total time:
	user time   =       3.32 seconds =       0.06 minutes
	system time =       0.06 seconds =       0.00 minutes
	total time  =          1 seconds =       0.02 minutes

*** tstart() called on cx1-1-1-3.cx1.hpc.ic.ac.uk
*** at Fri Sep  2 12:04:49 2016


         ------------------------------------------------------------
                                   SCF GRAD                          
                          Rob Parrish, Justin Turney,                
                       Andy Simmonett, and Alex Sokolov              
         ------------------------------------------------------------

  ==> Geometry <==

    Molecular point group: c1
    Full point group: C1

    Geometry (in Angstrom), charge = 0, multiplicity = 1:

       Center              X                  Y                   Z               Mass       
    ------------   -----------------  -----------------  -----------------  -----------------
           H          1.866223265708    -0.545452223209     0.655886461595     1.007825032070
           C          1.006747265708    -0.633600223209     0.005628461595    12.000000000000
           O          0.083232265708     0.331892776791     0.393359461595    15.994914619560
           H          1.327957265708    -0.487279223209    -1.024470538405     1.007825032070
           H          0.596422265708    -1.637947223209     0.098416461595     1.007825032070
           C         -1.082409734292     0.331892776791    -0.366029538405    12.000000000000
           H         -1.145439734292     1.215076776791    -0.999829538405     1.007825032070
           H         -1.919779734292     0.331892776791     0.318160461595     1.007825032070
           H         -1.145439734292    -0.551291223209    -0.999829538405     1.007825032070

  Nuclear repulsion =   84.795291473589671

  ==> Basis Set <==

  Basis Set: 6-31G*
    Number of shells: 30
    Number of basis function: 57
    Number of Cartesian functions: 57
    Spherical Harmonics?: false
    Max angular momentum: 2

  ==> DFJKGrad: Density-Fitted SCF Gradients <==

    Gradient:                    1
    J tasked:                  Yes
    K tasked:                  Yes
    wK tasked:                  No
    OpenMP threads:              4
    Integrals threads:           4
    Memory (MB):              1430
    Schwarz Cutoff:          0E+00
    Fitting Condition:       1E-12

   => Auxiliary Basis Set <=

  Basis Set: 
    Number of shells: 126
    Number of basis function: 393
    Number of Cartesian functions: 393
    Spherical Harmonics?: false
    Max angular momentum: 3


  -Total Gradient:
     Atom            X                  Y                   Z
    ------   -----------------  -----------------  -----------------
       1       -0.000220118457     0.000076705978     0.000033334277
       2       -0.003415239059    -0.000781531036     0.000155637362
       3       -0.004270466872     0.002029299297     0.000628896035
       4       -0.000687813427     0.000321407539    -0.000485457912
       5       -0.000422174057    -0.000439734522    -0.000294575643
       6        0.005124006222    -0.000178029718     0.000833930377
       7       -0.001947889970     0.001462003018    -0.001253811840
       8        0.003979884506    -0.000597303337     0.001612133847
       9        0.001859811112    -0.001892817221    -0.001230086504


*** tstop() called on cx1-1-1-3.cx1.hpc.ic.ac.uk at Fri Sep  2 12:04:51 2016
Module time:
	user time   =       5.50 seconds =       0.09 minutes
	system time =       0.13 seconds =       0.00 minutes
	total time  =          2 seconds =       0.03 minutes
Total time:
	user time   =       8.84 seconds =       0.15 minutes
	system time =       0.19 seconds =       0.00 minutes
	total time  =          3 seconds =       0.05 minutes
CURRENT ENERGY: -154.0604661366

			-----------------------------------------
			 OPTKING 2.0: for geometry optimizations 
			  - R.A. King,  Bethel University        
			-----------------------------------------

	Internal coordinates to be generated automatically.
	Detected frag with atoms:  1 2 3 4 5 6 7 8 9
	---Fragment 1 Bond Connectivity---
	 1 : 2
	 2 : 1 3 4 5
	 3 : 2 6
	 4 : 2
	 5 : 2
	 6 : 3 7 8 9
	 7 : 6
	 8 : 6
	 9 : 6

	Assuming in current code that numbering for constraints corresponds to unified fragment.
	Frozen dihedral atom list: 
	     2     3     6     7
	---Fragment 1 Geometry and Gradient---
	 H           3.5266508750       -1.0307553204        1.2394457867
	 C           1.9024766172       -1.1973308996        0.0106362510
	 O           0.1572861876        0.6271864536        0.7433416542
	 H           2.5094755484       -0.9208242821       -1.9359687488
	 H           1.1270747417       -3.0952716720        0.1859801594
	 C          -2.0454579614        0.6271864536       -0.6916955841
	 H          -2.1645673995        2.2961623386       -1.8894040072
	 H          -3.6278579333        0.6271864536        0.6012361387
	 H          -2.1645673995       -1.0417894313       -1.8894040072
	            -0.0002201185        0.0000767060        0.0000333343
	            -0.0034152391       -0.0007815310        0.0001556374
	            -0.0042704669        0.0020292993        0.0006288960
	            -0.0006878134        0.0003214075       -0.0004854579
	            -0.0004221741       -0.0004397345       -0.0002945756
	             0.0051240062       -0.0001780297        0.0008339304
	            -0.0019478900        0.0014620030       -0.0012538118
	             0.0039798845       -0.0005973033        0.0016121338
	             0.0018598111       -0.0018928172       -0.0012300865

	Previous optimization step data not found.  Starting new optimization.

	---Fragment 1 Intrafragment Coordinates---
	 - Coordinate -           - BOHR/RAD -       - ANG/DEG -
	 R(1,2)           =         2.043444	       1.081344
	 R(2,3)           =         2.628956	       1.391184
	 R(2,4)           =         2.057711	       1.088894
	 R(2,5)           =         2.057711	       1.088894
	 R(3,6)           =         2.628957	       1.391184
	 R(6,7)           =         2.057711	       1.088894
	 R(6,8)           =         2.043444	       1.081344
	 R(6,9)           =         2.057711	       1.088894
	 B(1,2,3)         =         1.879117	     107.665462
	 B(1,2,4)         =         1.900176	     108.872092
	 B(1,2,5)         =         1.900176	     108.872076
	 B(2,3,6)         =         1.986767	     113.833353
	 B(3,2,4)         =         1.945742	     111.482799
	 B(3,2,5)         =         1.945742	     111.482814
	 B(3,6,7)         =         1.945742	     111.482777
	 B(3,6,8)         =         1.879117	     107.665449
	 B(3,6,9)         =         1.945742	     111.482777
	 B(4,2,5)         =         1.892005	     108.403904
	 B(7,6,8)         =         1.900177	     108.872109
	 B(7,6,9)         =         1.892005	     108.403927
	 B(8,6,9)         =         1.900177	     108.872109
	 D(1,2,3,6)       =         3.141593	     180.000000
	*D(2,3,6,7)       =        -1.919862	    -109.999992
	 D(2,3,6,8)       =         2.280266	     130.649626
	 D(2,3,6,9)       =         0.197209	      11.299244
	 D(4,2,3,6)       =         1.058536	      60.649629
	 D(5,2,3,6)       =        -1.058536	     -60.649619

	Current energy   :      -154.0604661366

	Generating empirical Hessian (Schlegel '84) for each fragment.
	Taking RFO optimization step.
	Going to follow RFO solution 1.
	Using RFO vector 1.
	Norm of target step-size    0.07338
	Projected energy change by RFO approximation:        -0.0000997862

	Back-transformation to cartesian coordinates...
	Successfully converged to displaced geometry.

	Back-transformation to cartesian coordinates to adjust frozen coordinates...
	Successfully converged to displaced geometry.

	--- Internal Coordinate Step in ANG or DEG, aJ/ANG or AJ/DEG ---
	 ---------------------------------------------------------------------------
	   Coordinate                Previous        Force       Change         New 
	   ----------                --------       ------       ------       ------
	    1 R(1,2)          =      1.081344     0.001225     0.000219     1.081563
	    2 R(2,3)          =      1.391184     0.019889     0.002705     1.393889
	    3 R(2,4)          =      1.088894    -0.002468    -0.000452     1.088442
	    4 R(2,5)          =      1.088894    -0.004445    -0.000815     1.088079
	    5 R(3,6)          =      1.391184     0.062066     0.008442     1.399626
	    6 R(6,7)          =      1.088894    -0.016711    -0.003062     1.085831
	    7 R(6,8)          =      1.081344     0.016987     0.003036     1.084380
	    8 R(6,9)          =      1.088894    -0.017660    -0.003236     1.085657
	    9 B(1,2,3)        =    107.665462    -0.000014    -0.126549   107.538913
	   10 B(1,2,4)        =    108.872092    -0.000050    -0.274169   108.597922
	   11 B(1,2,5)        =    108.872076    -0.000029    -0.213745   108.658330
	   12 B(2,3,6)        =    113.833353     0.000805     2.414794   116.248147
	   13 B(3,2,4)        =    111.482799     0.000086     0.444183   111.926982
	   14 B(3,2,5)        =    111.482814     0.000002     0.029924   111.512738
	   15 B(3,6,7)        =    111.482777    -0.000323    -1.636991   109.845786
	   16 B(3,6,8)        =    107.665449     0.000414     1.907524   109.572972
	   17 B(3,6,9)        =    111.482777     0.000208     1.115613   112.598391
	   18 B(4,2,5)        =    108.403904     0.000001     0.111973   108.515878
	   19 B(7,6,8)        =    108.872109    -0.000151    -1.014632   107.857477
	   20 B(7,6,9)        =    108.403927     0.000027     0.159204   108.563131
	   21 B(8,6,9)        =    108.872109    -0.000183    -0.595451   108.276659
	   22 D(1,2,3,6)      =    180.000000     0.000002     0.143302   180.143302
	   23 *D(2,3,6,7)     =   -109.999992     0.000000    -0.000000  -109.999992
	   24 D(2,3,6,8)      =    130.649626     0.000026     1.034398   131.684024
	   25 D(2,3,6,9)      =     11.299244    -0.000010    -0.179808    11.119436
	   26 D(4,2,3,6)      =     60.649629     0.000006     0.298987    60.948617
	   27 D(5,2,3,6)      =    -60.649619    -0.000008    -0.180164   -60.829783
	 ---------------------------------------------------------------------------

  ==> Convergence Check <==

  Measures of convergence in internal coordinates in au.
  Criteria marked as inactive (o), active & met (*), and active & unmet ( ).
  --------------------------------------------------------------------------------------------- ~
   Step     Total Energy     Delta E     MAX Force     RMS Force      MAX Disp      RMS Disp    ~
  --------------------------------------------------------------------------------------------- ~
    Convergence Criteria    1.00e-06 *    3.00e-04 *             o    1.20e-03 *             o  ~
  --------------------------------------------------------------------------------------------- ~
      1    -154.06046614   -1.54e+02      1.06e-02      3.09e-03 o    4.21e-02      1.41e-02 o  ~
  ---------------------------------------------------------------------------------------------

	Writing optimization data to binary file.
	Structure for next step:
	Cartesian Geometry (in Angstrom)
	    H     1.8788478832  -0.5321208162   0.6634825522
	    C     1.0282136576  -0.6419574084   0.0045929856
	    O     0.0836714144   0.3137820247   0.3751721965
	    H     1.3640514603  -0.5049287286  -1.0216337115
	    H     0.6359586335  -1.6516008484   0.1078978880
	    C    -1.1036410129   0.3304378963  -0.3657500828
	    H    -1.1423561586   1.2250260169  -0.9799508519
	    H    -1.9524436179   0.3531594354   0.3087107683
	    H    -1.2047888998  -0.5366127062  -1.0112297366
			--------------------------
			 OPTKING Finished Execution 
			--------------------------

    Structure for next step:
    Molecular point group: c1
    Full point group: C1

    Geometry (in Angstrom), charge = 0, multiplicity = 1:

    H            1.878648661486    -0.523882979283     0.669583136415
    C            1.028014500819    -0.633719563068     0.010693620172
    O            0.083472329776     0.322019797082     0.381272802707
    H            1.363852277896    -0.496690893683    -1.015532998586
    H            0.635759506667    -1.643362925935     0.113998514681
    C           -1.103840006933     0.338675667355    -0.359649420041
    H           -1.142555149636     1.233263719693    -0.973850142156
    H           -1.952642547116     0.361397204784     0.314811379579
    H           -1.204987886069    -0.528374868856    -1.005129024537

gradient() will perform analytic gradient computation.

*** tstart() called on cx1-1-1-3.cx1.hpc.ic.ac.uk
*** at Fri Sep  2 12:04:52 2016


         ---------------------------------------------------------
                                   SCF
            by Justin Turney, Rob Parrish, and Andy Simmonett
                              RHF Reference
                        4 Threads,   2000 MiB Core
         ---------------------------------------------------------

  ==> Geometry <==

    Molecular point group: c1
    Full point group: C1

    Geometry (in Angstrom), charge = 0, multiplicity = 1:

       Center              X                  Y                   Z               Mass       
    ------------   -----------------  -----------------  -----------------  -----------------
           H          1.878648661486    -0.523882979283     0.669583136415     1.007825032070
           C          1.028014500819    -0.633719563068     0.010693620172    12.000000000000
           O          0.083472329776     0.322019797082     0.381272802707    15.994914619560
           H          1.363852277896    -0.496690893683    -1.015532998586     1.007825032070
           H          0.635759506667    -1.643362925935     0.113998514681     1.007825032070
           C         -1.103840006933     0.338675667355    -0.359649420041    12.000000000000
           H         -1.142555149636     1.233263719693    -0.973850142156     1.007825032070
           H         -1.952642547116     0.361397204784     0.314811379579     1.007825032070
           H         -1.204987886069    -0.528374868856    -1.005129024537     1.007825032070

  Running in c1 symmetry.

  Rotational constants: A =      1.41183  B =      0.32692  C =      0.29444 [cm^-1]
  Rotational constants: A =  42325.66532  B =   9800.91640  C =   8826.96572 [MHz]
  Nuclear repulsion =   84.319788070145691

  Charge       = 0
  Multiplicity = 1
  Electrons    = 26
  Nalpha       = 13
  Nbeta        = 13

  ==> Algorithm <==

  SCF Algorithm Type is DF.
  DIIS enabled.
  MOM disabled.
  Fractional occupation disabled.
  Guess Type is READ.
  Energy threshold   = 1.00e-08
  Density threshold  = 1.00e-08
  Integral threshold = 0.00e+00

  ==> Primary Basis <==

  Basis Set: 6-31G*
    Number of shells: 30
    Number of basis function: 57
    Number of Cartesian functions: 57
    Spherical Harmonics?: false
    Max angular momentum: 2

  ==> Pre-Iterations <==

   -------------------------------------------------------
    Irrep   Nso     Nmo     Nalpha   Nbeta   Ndocc  Nsocc
   -------------------------------------------------------
     A         57      57       0       0       0       0
   -------------------------------------------------------
    Total      57      57      13      13      13       0
   -------------------------------------------------------

 OEINTS: Overlap, kinetic, potential, dipole, and quadrupole integrals
         stored in file 35.

  ==> Integral Setup <==

  ==> DFJK: Density-Fitted J/K Matrices <==

    J tasked:                  Yes
    K tasked:                  Yes
    wK tasked:                  No
    OpenMP threads:              4
    Integrals threads:           4
    Memory (MB):              1430
    Algorithm:                Core
    Integral Cache:           NONE
    Schwarz Cutoff:          1E-12
    Fitting Condition:       1E-12

   => Auxiliary Basis Set <=

  Basis Set: 
    Number of shells: 126
    Number of basis function: 393
    Number of Cartesian functions: 393
    Spherical Harmonics?: false
    Max angular momentum: 3

  Minimum eigenvalue in the overlap matrix is 7.6546563766E-03.
  Using Symmetric Orthogonalization.
  SCF Guess: Reading in previously saved MOs, projecting if necessary.

  Using orbitals from previous SCF, no projection.
  Recomputing DOCC and SOCC from number of alpha and beta electrons from previous calculation.
              A 
    DOCC [    13 ]

  ==> Iterations <==

                           Total Energy        Delta E     RMS |[F,P]|

   @DF-RHF iter   0:  -154.05798379053545   -1.54058e+02   9.87450e-04 
   @DF-RHF iter   1:  -154.06067478873308   -2.69100e-03   1.61299e-04 
   @DF-RHF iter   2:  -154.06074852773810   -7.37390e-05   6.28335e-05 DIIS
   @DF-RHF iter   3:  -154.06075933178357   -1.08040e-05   3.08782e-05 DIIS
   @DF-RHF iter   4:  -154.06076147606819   -2.14428e-06   5.28551e-06 DIIS
   @DF-RHF iter   5:  -154.06076156261707   -8.65489e-08   1.87790e-06 DIIS
   @DF-RHF iter   6:  -154.06076157839658   -1.57795e-08   5.24068e-07 DIIS
   @DF-RHF iter   7:  -154.06076157960825   -1.21167e-09   1.21822e-07 DIIS
   @DF-RHF iter   8:  -154.06076157967158   -6.33236e-11   2.77308e-08 DIIS
   @DF-RHF iter   9:  -154.06076157967357   -1.98952e-12   7.91150e-09 DIIS

  ==> Post-Iterations <==

    Orbital Energies (a.u.)
    -----------------------

    Doubly Occupied:                                                      

       1A    -20.552294     2A    -11.265864     3A    -11.264952  
       4A     -1.372131     5A     -0.975066     6A     -0.872657  
       7A     -0.655333     8A     -0.651987     9A     -0.642741  
      10A     -0.558307    11A     -0.529448    12A     -0.471868  
      13A     -0.411463  

    Virtual:                                                              

      14A      0.240444    15A      0.293816    16A      0.306802  
      17A      0.312104    18A      0.319941    19A      0.334931  
      20A      0.354791    21A      0.432822    22A      0.728867  
      23A      0.756913    24A      0.779329    25A      0.816937  
      26A      0.825197    27A      0.893439    28A      1.102754  
      29A      1.118678    30A      1.141115    31A      1.150447  
      32A      1.153970    33A      1.205561    34A      1.237650  
      35A      1.329501    36A      1.342276    37A      1.343653  
      38A      1.637922    39A      1.724726    40A      1.750265  
      41A      1.836538    42A      1.878654    43A      2.205513  
      44A      2.417434    45A      2.426663    46A      2.459436  
      47A      2.463085    48A      2.488380    49A      2.608409  
      50A      2.722629    51A      2.834860    52A      2.851691  
      53A      3.136331    54A      3.277688    55A      4.332063  
      56A      4.624664    57A      4.706160  

    Final Occupation by Irrep:
              A 
    DOCC [    13 ]

  Energy converged.

  @DF-RHF Final Energy:  -154.06076157967357

   => Energetics <=

    Nuclear Repulsion Energy =             84.3197880701456910
    One-Electron Energy =                -376.3128777514888270
    Two-Electron Energy =                 137.9323281016693841
    DFT Exchange-Correlation Energy =       0.0000000000000000
    Empirical Dispersion Energy =           0.0000000000000000
    PCM Polarization Energy =               0.0000000000000000
    EFP Energy =                            0.0000000000000000
    Total Energy =                       -154.0607615796737377

    Alert: EFP and PCM quantities not currently incorporated into SCF psivars.

Properties will be evaluated at   0.000000,   0.000000,   0.000000 Bohr
  ==> Properties <==


Properties computed using the SCF density matrix

  Nuclear Dipole Moment: (a.u.)
     X:    -0.3951      Y:    -1.4962      Z:    -1.7757

  Electronic Dipole Moment: (a.u.)
     X:     0.2943      Y:     1.0963      Z:     1.3216

  Dipole Moment: (a.u.)
     X:    -0.1009      Y:    -0.3999      Z:    -0.4541     Total:     0.6135

  Dipole Moment: (Debye)
     X:    -0.2564      Y:    -1.0166      Z:    -1.1543     Total:     1.5594


  Saving occupied orbitals to File 180.

*** tstop() called on cx1-1-1-3.cx1.hpc.ic.ac.uk at Fri Sep  2 12:04:54 2016
Module time:
	user time   =       3.86 seconds =       0.06 minutes
	system time =       0.06 seconds =       0.00 minutes
	total time  =          2 seconds =       0.03 minutes
Total time:
	user time   =      13.80 seconds =       0.23 minutes
	system time =       0.29 seconds =       0.00 minutes
	total time  =          6 seconds =       0.10 minutes

*** tstart() called on cx1-1-1-3.cx1.hpc.ic.ac.uk
*** at Fri Sep  2 12:04:54 2016


         ------------------------------------------------------------
                                   SCF GRAD                          
                          Rob Parrish, Justin Turney,                
                       Andy Simmonett, and Alex Sokolov              
         ------------------------------------------------------------

  ==> Geometry <==

    Molecular point group: c1
    Full point group: C1

    Geometry (in Angstrom), charge = 0, multiplicity = 1:

       Center              X                  Y                   Z               Mass       
    ------------   -----------------  -----------------  -----------------  -----------------
           H          1.878648661486    -0.523882979283     0.669583136415     1.007825032070
           C          1.028014500819    -0.633719563068     0.010693620172    12.000000000000
           O          0.083472329776     0.322019797082     0.381272802707    15.994914619560
           H          1.363852277896    -0.496690893683    -1.015532998586     1.007825032070
           H          0.635759506667    -1.643362925935     0.113998514681     1.007825032070
           C         -1.103840006933     0.338675667355    -0.359649420041    12.000000000000
           H         -1.142555149636     1.233263719693    -0.973850142156     1.007825032070
           H         -1.952642547116     0.361397204784     0.314811379579     1.007825032070
           H         -1.204987886069    -0.528374868856    -1.005129024537     1.007825032070

  Nuclear repulsion =   84.319788070145691

  ==> Basis Set <==

  Basis Set: 6-31G*
    Number of shells: 30
    Number of basis function: 57
    Number of Cartesian functions: 57
    Spherical Harmonics?: false
    Max angular momentum: 2

  ==> DFJKGrad: Density-Fitted SCF Gradients <==

    Gradient:                    1
    J tasked:                  Yes
    K tasked:                  Yes
    wK tasked:                  No
    OpenMP threads:              4
    Integrals threads:           4
    Memory (MB):              1430
    Schwarz Cutoff:          0E+00
    Fitting Condition:       1E-12

   => Auxiliary Basis Set <=

  Basis Set: 
    Number of shells: 126
    Number of basis function: 393
    Number of Cartesian functions: 393
    Spherical Harmonics?: false
    Max angular momentum: 3


  -Total Gradient:
     Atom            X                  Y                   Z
    ------   -----------------  -----------------  -----------------
       1        0.000417723409    -0.000511665595    -0.000207560008
       2        0.001532555850    -0.000814551781     0.001405159790
       3        0.001772911600     0.002045371656    -0.001367931333
       4        0.000228028573    -0.000200850554     0.000049153198
       5        0.000024141918     0.000085363136     0.000156097135
       6       -0.000967762504    -0.002796362430     0.000253054559
       7       -0.000578070538     0.000777299535     0.001499877860
       8       -0.001399732538     0.000561802487    -0.001311650484
       9       -0.001029795770     0.000853593546    -0.000476200718


*** tstop() called on cx1-1-1-3.cx1.hpc.ic.ac.uk at Fri Sep  2 12:04:55 2016
Module time:
	user time   =       5.53 seconds =       0.09 minutes
	system time =       0.13 seconds =       0.00 minutes
	total time  =          1 seconds =       0.02 minutes
Total time:
	user time   =      19.36 seconds =       0.32 minutes
	system time =       0.42 seconds =       0.01 minutes
	total time  =          7 seconds =       0.12 minutes
CURRENT ENERGY: -154.0607615797

			-----------------------------------------
			 OPTKING 2.0: for geometry optimizations 
			  - R.A. King,  Bethel University        
			-----------------------------------------

	Previous internal coordinate definitions found.
	---Fragment 1 Geometry and Gradient---
	 H           3.5501314701       -0.9899953565        1.2653287510
	 C           1.9426658672       -1.1975564193        0.0202080135
	 O           0.1577398430        0.6085292259        0.7205011790
	 H           2.5773072909       -0.9386097618       -1.9190792462
	 H           1.2014113540       -3.1055058670        0.2154259723
	 C          -2.0859553076        0.6400042592       -0.6796389077
	 H          -2.1591163245        2.3305306798       -1.8403100631
	 H          -3.6899596495        0.6829417422        0.5949072909
	 H          -2.2770970981       -0.9984837976       -1.8994185846
	             0.0004177234       -0.0005116656       -0.0002075600
	             0.0015325559       -0.0008145518        0.0014051598
	             0.0017729116        0.0020453717       -0.0013679313
	             0.0002280286       -0.0002008506        0.0000491532
	             0.0000241419        0.0000853631        0.0001560971
	            -0.0009677625       -0.0027963624        0.0002530546
	            -0.0005780705        0.0007772995        0.0014998779
	            -0.0013997325        0.0005618025       -0.0013116505
	            -0.0010297958        0.0008535935       -0.0004762007

	---Fragment 1 Intrafragment Coordinates---
	 - Coordinate -           - BOHR/RAD -       - ANG/DEG -
	 R(1,2)           =         2.043857	       1.081563
	 R(2,3)           =         2.634068	       1.393889
	 R(2,4)           =         2.056856	       1.088442
	 R(2,5)           =         2.056171	       1.088079
	 R(3,6)           =         2.644910	       1.399626
	 R(6,7)           =         2.051923	       1.085831
	 R(6,8)           =         2.049181	       1.084380
	 R(6,9)           =         2.051595	       1.085657
	 B(1,2,3)         =         1.876908	     107.538913
	 B(1,2,4)         =         1.895391	     108.597922
	 B(1,2,5)         =         1.896446	     108.658330
	 B(2,3,6)         =         2.028913	     116.248147
	 B(3,2,4)         =         1.953494	     111.926982
	 B(3,2,5)         =         1.946264	     111.512738
	 B(3,6,7)         =         1.917171	     109.845786
	 B(3,6,8)         =         1.912409	     109.572972
	 B(3,6,9)         =         1.965213	     112.598391
	 B(4,2,5)         =         1.893959	     108.515878
	 B(7,6,8)         =         1.882468	     107.857477
	 B(7,6,9)         =         1.894784	     108.563131
	 B(8,6,9)         =         1.889784	     108.276659
	 D(1,2,3,6)       =        -3.139092	    -179.856698
	*D(2,3,6,7)       =        -1.919862	    -109.999992
	 D(2,3,6,8)       =         2.298320	     131.684024
	 D(2,3,6,9)       =         0.194071	      11.119436
	 D(4,2,3,6)       =         1.063754	      60.948617
	 D(5,2,3,6)       =        -1.061680	     -60.829783

	Current energy   :      -154.0607615797

	Energy change for the previous step:
		Projected    :        -0.0000997862
		Actual       :        -0.0002954431
	Energy ratio indicates good step: Trust radius increased to 1.000e+00.


	Performing BFGS update.
	Previous computed or guess Hessian on step 1.
	Steps to be used in Hessian update: 1
	Taking RFO optimization step.
	Going to follow RFO solution 1.
	Using RFO vector 1.
	Norm of target step-size    0.02499
	Projected energy change by RFO approximation:        -0.0001366032

	Back-transformation to cartesian coordinates...
	Successfully converged to displaced geometry.

	Back-transformation to cartesian coordinates to adjust frozen coordinates...
	Successfully converged to displaced geometry.

	--- Internal Coordinate Step in ANG or DEG, aJ/ANG or AJ/DEG ---
	 ---------------------------------------------------------------------------
	   Coordinate                Previous        Force       Change         New 
	   ----------                --------       ------       ------       ------
	    1 R(1,2)          =      1.081563    -0.001237    -0.000152     1.081411
	    2 R(2,3)          =      1.393889    -0.017367    -0.001617     1.392272
	    3 R(2,4)          =      1.088442     0.000010    -0.000006     1.088436
	    4 R(2,5)          =      1.088079     0.000602     0.000064     1.088143
	    5 R(3,6)          =      1.399626    -0.027877    -0.002530     1.397096
	    6 R(6,7)          =      1.085831     0.001544     0.000149     1.085980
	    7 R(6,8)          =      1.084380    -0.002402    -0.000253     1.084127
	    8 R(6,9)          =      1.085657     0.002493     0.000269     1.085926
	    9 B(1,2,3)        =    107.538913    -0.000072    -0.245763   107.293150
	   10 B(1,2,4)        =    108.597922     0.000034     0.081543   108.679465
	   11 B(1,2,5)        =    108.658330     0.000031     0.109145   108.767475
	   12 B(2,3,6)        =    116.248147    -0.000303    -0.599703   115.648444
	   13 B(3,2,4)        =    111.926982    -0.000027    -0.086158   111.840823
	   14 B(3,2,5)        =    111.512738     0.000028     0.106310   111.619048
	   15 B(3,6,7)        =    109.845786     0.000117     0.433822   110.279608
	   16 B(3,6,8)        =    109.572972    -0.000204    -0.677892   108.895080
	   17 B(3,6,9)        =    112.598391    -0.000139    -0.473248   112.125143
	   18 B(4,2,5)        =    108.515878     0.000007     0.039247   108.555124
	   19 B(7,6,8)        =    107.857477     0.000097     0.378057   108.235534
	   20 B(7,6,9)        =    108.563131     0.000057     0.261996   108.825127
	   21 B(8,6,9)        =    108.276659     0.000082     0.109122   108.385781
	   22 D(1,2,3,6)      =   -179.856698    -0.000002     0.199249  -179.657449
	   23 *D(2,3,6,7)     =   -109.999992     0.000000    -0.000000  -109.999992
	   24 D(2,3,6,8)      =    131.684024    -0.000015    -0.309281   131.374742
	   25 D(2,3,6,9)      =     11.119436     0.000014     0.318853    11.438290
	   26 D(4,2,3,6)      =     60.948617     0.000003     0.305578    61.254195
	   27 D(5,2,3,6)      =    -60.829783     0.000001     0.240063   -60.589720
	 ---------------------------------------------------------------------------

  ==> Convergence Check <==

  Measures of convergence in internal coordinates in au.
  Criteria marked as inactive (o), active & met (*), and active & unmet ( ).
  ---------------------------------------------------------------------------------------------
   Step     Total Energy     Delta E     MAX Force     RMS Force      MAX Disp      RMS Disp   
  ---------------------------------------------------------------------------------------------
    Convergence Criteria    1.00e-06 *    3.00e-04 *             o    1.20e-03 *             o
  ---------------------------------------------------------------------------------------------
      2    -154.06076158   -2.95e-04      3.98e-03      1.38e-03 o    1.18e-02      4.81e-03 o  ~
  ---------------------------------------------------------------------------------------------

	Writing optimization data to binary file.
	Structure for next step:
	Cartesian Geometry (in Angstrom)
	    H     1.8706254251  -0.5265502928   0.6706473859
	    C     1.0214600681  -0.6319900209   0.0093984323
	    O     0.0838378026   0.3267259759   0.3837634728
	    H     1.3582956973  -0.4902673555  -1.0158568817
	    H     0.6246616358  -1.6404714920   0.1072347894
	    C    -1.0982325984   0.3396225240  -0.3608315089
	    H    -1.1431070083   1.2303841424  -0.9804146157
	    H    -1.9417979229   0.3570357502   0.3199226003
	    H    -1.1900214440  -0.5351641931  -0.9976659486
			--------------------------
			 OPTKING Finished Execution 
			--------------------------

    Structure for next step:
    Molecular point group: c1
    Full point group: C1

    Geometry (in Angstrom), charge = 0, multiplicity = 1:

    H            1.870732413315    -0.528721129944     0.670428032291
    C            1.021567121141    -0.634160849950     0.009179129142
    O            0.083944927239     0.324555073648     0.383544141108
    H            1.358402724610    -0.492438195381    -1.016076106523
    H            0.624768719195    -1.642642244077     0.107015478793
    C           -1.098125383497     0.337451620792    -0.361050783787
    H           -1.142999789981     1.228213171143    -0.980633843236
    H           -1.941690643518     0.354864845601     0.319703273456
    H           -1.189914222028    -0.537335029498    -0.997885174786

gradient() will perform analytic gradient computation.

*** tstart() called on cx1-1-1-3.cx1.hpc.ic.ac.uk
*** at Fri Sep  2 12:04:55 2016


         ---------------------------------------------------------
                                   SCF
            by Justin Turney, Rob Parrish, and Andy Simmonett
                              RHF Reference
                        4 Threads,   2000 MiB Core
         ---------------------------------------------------------

  ==> Geometry <==

    Molecular point group: c1
    Full point group: C1

    Geometry (in Angstrom), charge = 0, multiplicity = 1:

       Center              X                  Y                   Z               Mass       
    ------------   -----------------  -----------------  -----------------  -----------------
           H          1.870732413315    -0.528721129944     0.670428032291     1.007825032070
           C          1.021567121141    -0.634160849950     0.009179129142    12.000000000000
           O          0.083944927239     0.324555073648     0.383544141108    15.994914619560
           H          1.358402724610    -0.492438195381    -1.016076106523     1.007825032070
           H          0.624768719195    -1.642642244077     0.107015478793     1.007825032070
           C         -1.098125383497     0.337451620792    -0.361050783787    12.000000000000
           H         -1.142999789981     1.228213171143    -0.980633843236     1.007825032070
           H         -1.941690643518     0.354864845601     0.319703273456     1.007825032070
           H         -1.189914222028    -0.537335029498    -0.997885174786     1.007825032070

  Running in c1 symmetry.

  Rotational constants: A =      1.40181  B =      0.32991  C =      0.29650 [cm^-1]
  Rotational constants: A =  42025.13071  B =   9890.32595  C =   8888.78731 [MHz]
  Nuclear repulsion =   84.475994292449769

  Charge       = 0
  Multiplicity = 1
  Electrons    = 26
  Nalpha       = 13
  Nbeta        = 13

  ==> Algorithm <==

  SCF Algorithm Type is DF.
  DIIS enabled.
  MOM disabled.
  Fractional occupation disabled.
  Guess Type is READ.
  Energy threshold   = 1.00e-08
  Density threshold  = 1.00e-08
  Integral threshold = 0.00e+00

  ==> Primary Basis <==

  Basis Set: 6-31G*
    Number of shells: 30
    Number of basis function: 57
    Number of Cartesian functions: 57
    Spherical Harmonics?: false
    Max angular momentum: 2

  ==> Pre-Iterations <==

   -------------------------------------------------------
    Irrep   Nso     Nmo     Nalpha   Nbeta   Ndocc  Nsocc
   -------------------------------------------------------
     A         57      57       0       0       0       0
   -------------------------------------------------------
    Total      57      57      13      13      13       0
   -------------------------------------------------------

 OEINTS: Overlap, kinetic, potential, dipole, and quadrupole integrals
         stored in file 35.

  ==> Integral Setup <==

  ==> DFJK: Density-Fitted J/K Matrices <==

    J tasked:                  Yes
    K tasked:                  Yes
    wK tasked:                  No
    OpenMP threads:              4
    Integrals threads:           4
    Memory (MB):              1430
    Algorithm:                Core
    Integral Cache:           NONE
    Schwarz Cutoff:          1E-12
    Fitting Condition:       1E-12

   => Auxiliary Basis Set <=

  Basis Set: 
    Number of shells: 126
    Number of basis function: 393
    Number of Cartesian functions: 393
    Spherical Harmonics?: false
    Max angular momentum: 3

  Minimum eigenvalue in the overlap matrix is 7.5924629915E-03.
  Using Symmetric Orthogonalization.
  SCF Guess: Reading in previously saved MOs, projecting if necessary.

  Using orbitals from previous SCF, no projection.
  Recomputing DOCC and SOCC from number of alpha and beta electrons from previous calculation.
              A 
    DOCC [    13 ]

  ==> Iterations <==

                           Total Energy        Delta E     RMS |[F,P]|

   @DF-RHF iter   0:  -154.06254514605442   -1.54063e+02   2.70889e-04 
   @DF-RHF iter   1:  -154.06083413365823    1.71101e-03   4.20379e-05 
   @DF-RHF iter   2:  -154.06083942906756   -5.29541e-06   1.51137e-05 DIIS
   @DF-RHF iter   3:  -154.06084024345333   -8.14386e-07   6.14903e-06 DIIS
   @DF-RHF iter   4:  -154.06084032889402   -8.54407e-08   1.43957e-06 DIIS
   @DF-RHF iter   5:  -154.06084033547975   -6.58574e-09   5.18660e-07 DIIS
   @DF-RHF iter   6:  -154.06084033656006   -1.08031e-09   1.54952e-07 DIIS
   @DF-RHF iter   7:  -154.06084033665462   -9.45590e-11   3.52328e-08 DIIS
   @DF-RHF iter   8:  -154.06084033665951   -4.88853e-12   7.46341e-09 DIIS

  ==> Post-Iterations <==

    Orbital Energies (a.u.)
    -----------------------

    Doubly Occupied:                                                      

       1A    -20.552337     2A    -11.265612     3A    -11.264607  
       4A     -1.374065     5A     -0.975005     6A     -0.872678  
       7A     -0.656575     8A     -0.653042     9A     -0.642867  
      10A     -0.558513    11A     -0.528268    12A     -0.472998  
      13A     -0.411626  

    Virtual:                                                              

      14A      0.240284    15A      0.294466    16A      0.307479  
      17A      0.311749    18A      0.320463    19A      0.334971  
      20A      0.354719    21A      0.433018    22A      0.729220  
      23A      0.760085    24A      0.780198    25A      0.818423  
      26A      0.826868    27A      0.890552    28A      1.101656  
      29A      1.119152    30A      1.140537    31A      1.150934  
      32A      1.155763    33A      1.204917    34A      1.237671  
      35A      1.327617    36A      1.341051    37A      1.343163  
      38A      1.636108    39A      1.725746    40A      1.751842  
      41A      1.835155    42A      1.877362    43A      2.208910  
      44A      2.421919    45A      2.428409    46A      2.461860  
      47A      2.467537    48A      2.492607    49A      2.606474  
      50A      2.726576    51A      2.835232    52A      2.855881  
      53A      3.131438    54A      3.281905    55A      4.335403  
      56A      4.623768    57A      4.706243  

    Final Occupation by Irrep:
              A 
    DOCC [    13 ]

  Energy converged.

  @DF-RHF Final Energy:  -154.06084033665951

   => Energetics <=

    Nuclear Repulsion Energy =             84.4759942924497693
    One-Electron Energy =                -376.6172842003840060
    Two-Electron Energy =                 138.0804495712747837
    DFT Exchange-Correlation Energy =       0.0000000000000000
    Empirical Dispersion Energy =           0.0000000000000000
    PCM Polarization Energy =               0.0000000000000000
    EFP Energy =                            0.0000000000000000
    Total Energy =                       -154.0608403366594814

    Alert: EFP and PCM quantities not currently incorporated into SCF psivars.

Properties will be evaluated at   0.000000,   0.000000,   0.000000 Bohr
  ==> Properties <==


Properties computed using the SCF density matrix

  Nuclear Dipole Moment: (a.u.)
     X:    -0.3940      Y:    -1.5153      Z:    -1.7770

  Electronic Dipole Moment: (a.u.)
     X:     0.2933      Y:     1.1148      Z:     1.3228

  Dipole Moment: (a.u.)
     X:    -0.1007      Y:    -0.4005      Z:    -0.4541     Total:     0.6138

  Dipole Moment: (Debye)
     X:    -0.2560      Y:    -1.0179      Z:    -1.1543     Total:     1.5601


  Saving occupied orbitals to File 180.

*** tstop() called on cx1-1-1-3.cx1.hpc.ic.ac.uk at Fri Sep  2 12:04:57 2016
Module time:
	user time   =       3.87 seconds =       0.06 minutes
	system time =       0.08 seconds =       0.00 minutes
	total time  =          2 seconds =       0.03 minutes
Total time:
	user time   =      23.72 seconds =       0.40 minutes
	system time =       0.50 seconds =       0.01 minutes
	total time  =          9 seconds =       0.15 minutes

*** tstart() called on cx1-1-1-3.cx1.hpc.ic.ac.uk
*** at Fri Sep  2 12:04:57 2016


         ------------------------------------------------------------
                                   SCF GRAD                          
                          Rob Parrish, Justin Turney,                
                       Andy Simmonett, and Alex Sokolov              
         ------------------------------------------------------------

  ==> Geometry <==

    Molecular point group: c1
    Full point group: C1

    Geometry (in Angstrom), charge = 0, multiplicity = 1:

       Center              X                  Y                   Z               Mass       
    ------------   -----------------  -----------------  -----------------  -----------------
           H          1.870732413315    -0.528721129944     0.670428032291     1.007825032070
           C          1.021567121141    -0.634160849950     0.009179129142    12.000000000000
           O          0.083944927239     0.324555073648     0.383544141108    15.994914619560
           H          1.358402724610    -0.492438195381    -1.016076106523     1.007825032070
           H          0.624768719195    -1.642642244077     0.107015478793     1.007825032070
           C         -1.098125383497     0.337451620792    -0.361050783787    12.000000000000
           H         -1.142999789981     1.228213171143    -0.980633843236     1.007825032070
           H         -1.941690643518     0.354864845601     0.319703273456     1.007825032070
           H         -1.189914222028    -0.537335029498    -0.997885174786     1.007825032070

  Nuclear repulsion =   84.475994292449769

  ==> Basis Set <==

  Basis Set: 6-31G*
    Number of shells: 30
    Number of basis function: 57
    Number of Cartesian functions: 57
    Spherical Harmonics?: false
    Max angular momentum: 2

  ==> DFJKGrad: Density-Fitted SCF Gradients <==

    Gradient:                    1
    J tasked:                  Yes
    K tasked:                  Yes
    wK tasked:                  No
    OpenMP threads:              4
    Integrals threads:           4
    Memory (MB):              1430
    Schwarz Cutoff:          0E+00
    Fitting Condition:       1E-12

   => Auxiliary Basis Set <=

  Basis Set: 
    Number of shells: 126
    Number of basis function: 393
    Number of Cartesian functions: 393
    Spherical Harmonics?: false
    Max angular momentum: 3


  -Total Gradient:
     Atom            X                  Y                   Z
    ------   -----------------  -----------------  -----------------
       1       -0.000118367436     0.000139002331     0.000042610006
       2       -0.000512735694    -0.001212582742     0.000665226367
       3        0.000579932695     0.001620248440    -0.000935653640
       4        0.000035171743     0.000035127980     0.000054000148
       5        0.000059277857    -0.000010508141     0.000045879980
       6        0.000788433689    -0.001511940576    -0.001089189396
       7       -0.000768050117     0.000881070177     0.001222381042
       8       -0.000038047382    -0.000004591893    -0.000003976619
       9       -0.000025615355     0.000064174423    -0.000001277888


*** tstop() called on cx1-1-1-3.cx1.hpc.ic.ac.uk at Fri Sep  2 12:04:59 2016
Module time:
	user time   =       5.66 seconds =       0.09 minutes
	system time =       0.11 seconds =       0.00 minutes
	total time  =          2 seconds =       0.03 minutes
Total time:
	user time   =      29.40 seconds =       0.49 minutes
	system time =       0.61 seconds =       0.01 minutes
	total time  =         11 seconds =       0.18 minutes
CURRENT ENERGY: -154.0608403367

			-----------------------------------------
			 OPTKING 2.0: for geometry optimizations 
			  - R.A. King,  Bethel University        
			-----------------------------------------

	Previous internal coordinate definitions found.
	---Fragment 1 Geometry and Gradient---
	 H           3.5351719291       -0.9991381363        1.2669253728
	 C           1.9304820853       -1.1983903306        0.0173460402
	 O           0.1586329227        0.6133202042        0.7247933866
	 H           2.5670091277       -0.9305733266       -1.9201055715
	 H           1.1806417757       -3.1041439756        0.2022299469
	 C          -2.0751562344        0.6376911464       -0.6822871014
	 H          -2.1599565730        2.3209865263       -1.8531294004
	 H          -3.6692635510        0.6705973724        0.6041516306
	 H          -2.2486120013       -1.0154160474       -1.8857296924
	            -0.0001183674        0.0001390023        0.0000426100
	            -0.0005127357       -0.0012125827        0.0006652264
	             0.0005799327        0.0016202484       -0.0009356536
	             0.0000351717        0.0000351280        0.0000540001
	             0.0000592779       -0.0000105081        0.0000458800
	             0.0007884337       -0.0015119406       -0.0010891894
	            -0.0007680501        0.0008810702        0.0012223810
	            -0.0000380474       -0.0000045919       -0.0000039766
	            -0.0000256154        0.0000641744       -0.0000012779

	---Fragment 1 Intrafragment Coordinates---
	 - Coordinate -           - BOHR/RAD -       - ANG/DEG -
	 R(1,2)           =         2.043570	       1.081411
	 R(2,3)           =         2.631012	       1.392272
	 R(2,4)           =         2.056845	       1.088436
	 R(2,5)           =         2.056293	       1.088143
	 R(3,6)           =         2.640129	       1.397096
	 R(6,7)           =         2.052205	       1.085980
	 R(6,8)           =         2.048703	       1.084127
	 R(6,9)           =         2.052102	       1.085926
	 B(1,2,3)         =         1.872619	     107.293150
	 B(1,2,4)         =         1.896814	     108.679465
	 B(1,2,5)         =         1.898351	     108.767475
	 B(2,3,6)         =         2.018446	     115.648444
	 B(3,2,4)         =         1.951991	     111.840823
	 B(3,2,5)         =         1.948120	     111.619048
	 B(3,6,7)         =         1.924742	     110.279608
	 B(3,6,8)         =         1.900578	     108.895080
	 B(3,6,9)         =         1.956953	     112.125143
	 B(4,2,5)         =         1.894644	     108.555124
	 B(7,6,8)         =         1.889066	     108.235534
	 B(7,6,9)         =         1.899357	     108.825127
	 B(8,6,9)         =         1.891689	     108.385781
	 D(1,2,3,6)       =        -3.135614	    -179.657449
	*D(2,3,6,7)       =        -1.919862	    -109.999992
	 D(2,3,6,8)       =         2.292922	     131.374742
	 D(2,3,6,9)       =         0.199636	      11.438290
	 D(4,2,3,6)       =         1.069087	      61.254195
	 D(5,2,3,6)       =        -1.057490	     -60.589720

	Current energy   :      -154.0608403367

	Energy change for the previous step:
		Projected    :        -0.0001366032
		Actual       :        -0.0000787570

	Performing BFGS update.
	Previous computed or guess Hessian on step 1.
	Steps to be used in Hessian update: 2 1
	Taking RFO optimization step.
	Going to follow RFO solution 1.
	Using RFO vector 1.
	Norm of target step-size    0.00407
	Projected energy change by RFO approximation:        -0.0000023589

	Back-transformation to cartesian coordinates...
	Successfully converged to displaced geometry.

	Back-transformation to cartesian coordinates to adjust frozen coordinates...
	Successfully converged to displaced geometry.

	--- Internal Coordinate Step in ANG or DEG, aJ/ANG or AJ/DEG ---
	 ---------------------------------------------------------------------------
	   Coordinate                Previous        Force       Change         New 
	   ----------                --------       ------       ------       ------
	    1 R(1,2)          =      1.081411     0.000439     0.000077     1.081488
	    2 R(2,3)          =      1.392272    -0.001184    -0.000144     1.392128
	    3 R(2,4)          =      1.088436     0.000292     0.000050     1.088486
	    4 R(2,5)          =      1.088143     0.000064     0.000009     1.088152
	    5 R(3,6)          =      1.397096     0.000304     0.000072     1.397168
	    6 R(6,7)          =      1.085980    -0.000470    -0.000094     1.085887
	    7 R(6,8)          =      1.084127    -0.000223    -0.000028     1.084099
	    8 R(6,9)          =      1.085926     0.000402     0.000060     1.085986
	    9 B(1,2,3)        =    107.293150     0.000025     0.128171   107.421321
	   10 B(1,2,4)        =    108.679465    -0.000003     0.004567   108.684032
	   11 B(1,2,5)        =    108.767475    -0.000003    -0.002964   108.764512
	   12 B(2,3,6)        =    115.648444    -0.000020    -0.050209   115.598235
	   13 B(3,2,4)        =    111.840823    -0.000004    -0.021053   111.819770
	   14 B(3,2,5)        =    111.619048    -0.000010    -0.056643   111.562405
	   15 B(3,6,7)        =    110.279608     0.000004     0.012988   110.292596
	   16 B(3,6,8)        =    108.895080    -0.000003    -0.010835   108.884245
	   17 B(3,6,9)        =    112.125143    -0.000005    -0.015550   112.109593
	   18 B(4,2,5)        =    108.555124    -0.000005    -0.048617   108.506508
	   19 B(7,6,8)        =    108.235534     0.000000    -0.005896   108.229639
	   20 B(7,6,9)        =    108.825127     0.000002     0.018425   108.843552
	   21 B(8,6,9)        =    108.385781     0.000002     0.000832   108.386612
	   22 D(1,2,3,6)      =   -179.657449     0.000000     0.092480  -179.564969
	   23 *D(2,3,6,7)     =   -109.999992    -0.000000    -0.000000  -109.999992
	   24 D(2,3,6,8)      =    131.374742    -0.000000     0.006091   131.380833
	   25 D(2,3,6,9)      =     11.438290     0.000001     0.022045    11.460335
	   26 D(4,2,3,6)      =     61.254195    -0.000002     0.018026    61.272221
	   27 D(5,2,3,6)      =    -60.589720     0.000002     0.136463   -60.453256
	 ---------------------------------------------------------------------------

  ==> Convergence Check <==

  Measures of convergence in internal coordinates in au.
  Criteria marked as inactive (o), active & met (*), and active & unmet ( ).
  ---------------------------------------------------------------------------------------------
   Step     Total Energy     Delta E     MAX Force     RMS Force      MAX Disp      RMS Disp   
  ---------------------------------------------------------------------------------------------
    Convergence Criteria    1.00e-06 *    3.00e-04 *             o    1.20e-03 *             o
  ---------------------------------------------------------------------------------------------
      3    -154.06084034   -7.88e-05      3.27e-04      1.00e-04 o    2.38e-03      7.84e-04 o  ~
  ---------------------------------------------------------------------------------------------

	Writing optimization data to binary file.
	Structure for next step:
	Cartesian Geometry (in Angstrom)
	    H     1.8713841353  -0.5305930175   0.6704407167
	    C     1.0215126324  -0.6333240935   0.0095469337
	    O     0.0841470542   0.3254530977   0.3838625336
	    H     1.3580234989  -0.4914442839  -1.0158465892
	    H     0.6229658704  -1.6412648902   0.1059327977
	    C    -1.0978123767   0.3372153851  -0.3610619331
	    H    -1.1432186381   1.2273743598  -0.9813081419
	    H    -1.9413974083   0.3547674187   0.3196194259
	    H    -1.1889189331  -0.5383968352  -0.9969617395
			--------------------------
			 OPTKING Finished Execution 
			--------------------------

    Structure for next step:
    Molecular point group: c1
    Full point group: C1

    Geometry (in Angstrom), charge = 0, multiplicity = 1:

    H            1.871256479329    -0.531028660322     0.670251879747
    C            1.021385041335    -0.633759728480     0.009358147206
    O            0.084019534747     0.325017389537     0.383673718518
    H            1.357895882204    -0.491879929724    -1.016035297409
    H            0.622838309794    -1.641700448200     0.105744003811
    C           -1.097939805931     0.336779676064    -0.361250691335
    H           -1.143346063816     1.226938582706    -0.981496852721
    H           -1.941524773078     0.354331708330     0.319430615664
    H           -1.189046355376    -0.538832477448    -0.997150449114

gradient() will perform analytic gradient computation.

*** tstart() called on cx1-1-1-3.cx1.hpc.ic.ac.uk
*** at Fri Sep  2 12:04:59 2016


         ---------------------------------------------------------
                                   SCF
            by Justin Turney, Rob Parrish, and Andy Simmonett
                              RHF Reference
                        4 Threads,   2000 MiB Core
         ---------------------------------------------------------

  ==> Geometry <==

    Molecular point group: c1
    Full point group: C1

    Geometry (in Angstrom), charge = 0, multiplicity = 1:

       Center              X                  Y                   Z               Mass       
    ------------   -----------------  -----------------  -----------------  -----------------
           H          1.871256479329    -0.531028660322     0.670251879747     1.007825032070
           C          1.021385041335    -0.633759728480     0.009358147206    12.000000000000
           O          0.084019534747     0.325017389537     0.383673718518    15.994914619560
           H          1.357895882204    -0.491879929724    -1.016035297409     1.007825032070
           H          0.622838309794    -1.641700448200     0.105744003811     1.007825032070
           C         -1.097939805931     0.336779676064    -0.361250691335    12.000000000000
           H         -1.143346063816     1.226938582706    -0.981496852721     1.007825032070
           H         -1.941524773078     0.354331708330     0.319430615664     1.007825032070
           H         -1.189046355376    -0.538832477448    -0.997150449114     1.007825032070

  Running in c1 symmetry.

  Rotational constants: A =      1.40103  B =      0.33008  C =      0.29660 [cm^-1]
  Rotational constants: A =  42001.74955  B =   9895.69866  C =   8891.73727 [MHz]
  Nuclear repulsion =   84.482118271407174

  Charge       = 0
  Multiplicity = 1
  Electrons    = 26
  Nalpha       = 13
  Nbeta        = 13

  ==> Algorithm <==

  SCF Algorithm Type is DF.
  DIIS enabled.
  MOM disabled.
  Fractional occupation disabled.
  Guess Type is READ.
  Energy threshold   = 1.00e-08
  Density threshold  = 1.00e-08
  Integral threshold = 0.00e+00

  ==> Primary Basis <==

  Basis Set: 6-31G*
    Number of shells: 30
    Number of basis function: 57
    Number of Cartesian functions: 57
    Spherical Harmonics?: false
    Max angular momentum: 2

  ==> Pre-Iterations <==

   -------------------------------------------------------
    Irrep   Nso     Nmo     Nalpha   Nbeta   Ndocc  Nsocc
   -------------------------------------------------------
     A         57      57       0       0       0       0
   -------------------------------------------------------
    Total      57      57      13      13      13       0
   -------------------------------------------------------

 OEINTS: Overlap, kinetic, potential, dipole, and quadrupole integrals
         stored in file 35.

  ==> Integral Setup <==

  ==> DFJK: Density-Fitted J/K Matrices <==

    J tasked:                  Yes
    K tasked:                  Yes
    wK tasked:                  No
    OpenMP threads:              4
    Integrals threads:           4
    Memory (MB):              1430
    Algorithm:                Core
    Integral Cache:           NONE
    Schwarz Cutoff:          1E-12
    Fitting Condition:       1E-12

   => Auxiliary Basis Set <=

  Basis Set: 
    Number of shells: 126
    Number of basis function: 393
    Number of Cartesian functions: 393
    Spherical Harmonics?: false
    Max angular momentum: 3

  Minimum eigenvalue in the overlap matrix is 7.5933562516E-03.
  Using Symmetric Orthogonalization.
  SCF Guess: Reading in previously saved MOs, projecting if necessary.

  Using orbitals from previous SCF, no projection.
  Recomputing DOCC and SOCC from number of alpha and beta electrons from previous calculation.
              A 
    DOCC [    13 ]

  ==> Iterations <==

                           Total Energy        Delta E     RMS |[F,P]|

   @DF-RHF iter   0:  -154.06084525919516   -1.54061e+02   3.19021e-05 
   @DF-RHF iter   1:  -154.06084077305252    4.48614e-06   6.95727e-06 
   @DF-RHF iter   2:  -154.06084091163382   -1.38581e-07   2.52788e-06 DIIS
   @DF-RHF iter   3:  -154.06084093103448   -1.94007e-08   1.18589e-06 DIIS
   @DF-RHF iter   4:  -154.06084093372505   -2.69057e-09   1.85829e-07 DIIS
   @DF-RHF iter   5:  -154.06084093382481   -9.97602e-11   5.04737e-08 DIIS
   @DF-RHF iter   6:  -154.06084093383595   -1.11413e-11   1.46801e-08 DIIS
   @DF-RHF iter   7:  -154.06084093383669   -7.38964e-13   4.15059e-09 DIIS

  ==> Post-Iterations <==

    Orbital Energies (a.u.)
    -----------------------

    Doubly Occupied:                                                      

       1A    -20.552361     2A    -11.265620     3A    -11.264630  
       4A     -1.374134     5A     -0.974951     6A     -0.872759  
       7A     -0.656631     8A     -0.653105     9A     -0.642826  
      10A     -0.558448    11A     -0.528325    12A     -0.473079  
      13A     -0.411616  

    Virtual:                                                              

      14A      0.240265    15A      0.294536    16A      0.307389  
      17A      0.311854    18A      0.320383    19A      0.335005  
      20A      0.354728    21A      0.433024    22A      0.729190  
      23A      0.760285    24A      0.780185    25A      0.818413  
      26A      0.826883    27A      0.890863    28A      1.101692  
      29A      1.119176    30A      1.140491    31A      1.150812  
      32A      1.155711    33A      1.204908    34A      1.237702  
      35A      1.327787    36A      1.340968    37A      1.343052  
      38A      1.636252    39A      1.725545    40A      1.751971  
      41A      1.834940    42A      1.877367    43A      2.208866  
      44A      2.421805    45A      2.428518    46A      2.462342  
      47A      2.467773    48A      2.492245    49A      2.606214  
      50A      2.726761    51A      2.834922    52A      2.856684  
      53A      3.130886    54A      3.282074    55A      4.335466  
      56A      4.623674    57A      4.706275  

    Final Occupation by Irrep:
              A 
    DOCC [    13 ]

  Energy converged.

  @DF-RHF Final Energy:  -154.06084093383669

   => Energetics <=

    Nuclear Repulsion Energy =             84.4821182714071739
    One-Electron Energy =                -376.6289484660549078
    Two-Electron Energy =                 138.0859892608110897
    DFT Exchange-Correlation Energy =       0.0000000000000000
    Empirical Dispersion Energy =           0.0000000000000000
    PCM Polarization Energy =               0.0000000000000000
    EFP Energy =                            0.0000000000000000
    Total Energy =                       -154.0608409338366585

    Alert: EFP and PCM quantities not currently incorporated into SCF psivars.

Properties will be evaluated at   0.000000,   0.000000,   0.000000 Bohr
  ==> Properties <==


Properties computed using the SCF density matrix

  Nuclear Dipole Moment: (a.u.)
     X:    -0.3951      Y:    -1.5192      Z:    -1.7787

  Electronic Dipole Moment: (a.u.)
     X:     0.2941      Y:     1.1184      Z:     1.3245

  Dipole Moment: (a.u.)
     X:    -0.1010      Y:    -0.4008      Z:    -0.4541     Total:     0.6141

  Dipole Moment: (Debye)
     X:    -0.2568      Y:    -1.0187      Z:    -1.1543     Total:     1.5608


  Saving occupied orbitals to File 180.

*** tstop() called on cx1-1-1-3.cx1.hpc.ic.ac.uk at Fri Sep  2 12:05:01 2016
Module time:
	user time   =       4.25 seconds =       0.07 minutes
	system time =       0.09 seconds =       0.00 minutes
	total time  =          2 seconds =       0.03 minutes
Total time:
	user time   =      34.06 seconds =       0.57 minutes
	system time =       0.71 seconds =       0.01 minutes
	total time  =         13 seconds =       0.22 minutes

*** tstart() called on cx1-1-1-3.cx1.hpc.ic.ac.uk
*** at Fri Sep  2 12:05:01 2016


         ------------------------------------------------------------
                                   SCF GRAD                          
                          Rob Parrish, Justin Turney,                
                       Andy Simmonett, and Alex Sokolov              
         ------------------------------------------------------------

  ==> Geometry <==

    Molecular point group: c1
    Full point group: C1

    Geometry (in Angstrom), charge = 0, multiplicity = 1:

       Center              X                  Y                   Z               Mass       
    ------------   -----------------  -----------------  -----------------  -----------------
           H          1.871256479329    -0.531028660322     0.670251879747     1.007825032070
           C          1.021385041335    -0.633759728480     0.009358147206    12.000000000000
           O          0.084019534747     0.325017389537     0.383673718518    15.994914619560
           H          1.357895882204    -0.491879929724    -1.016035297409     1.007825032070
           H          0.622838309794    -1.641700448200     0.105744003811     1.007825032070
           C         -1.097939805931     0.336779676064    -0.361250691335    12.000000000000
           H         -1.143346063816     1.226938582706    -0.981496852721     1.007825032070
           H         -1.941524773078     0.354331708330     0.319430615664     1.007825032070
           H         -1.189046355376    -0.538832477448    -0.997150449114     1.007825032070

  Nuclear repulsion =   84.482118271407174

  ==> Basis Set <==

  Basis Set: 6-31G*
    Number of shells: 30
    Number of basis function: 57
    Number of Cartesian functions: 57
    Spherical Harmonics?: false
    Max angular momentum: 2

  ==> DFJKGrad: Density-Fitted SCF Gradients <==

    Gradient:                    1
    J tasked:                  Yes
    K tasked:                  Yes
    wK tasked:                  No
    OpenMP threads:              4
    Integrals threads:           4
    Memory (MB):              1430
    Schwarz Cutoff:          0E+00
    Fitting Condition:       1E-12

   => Auxiliary Basis Set <=

  Basis Set: 
    Number of shells: 126
    Number of basis function: 393
    Number of Cartesian functions: 393
    Spherical Harmonics?: false
    Max angular momentum: 3


  -Total Gradient:
     Atom            X                  Y                   Z
    ------   -----------------  -----------------  -----------------
       1        0.000040086433    -0.000036238072    -0.000008176315
       2       -0.000436102951    -0.000912453231     0.000945749623
       3        0.000508901573     0.001502376081    -0.001012773279
       4       -0.000039175820     0.000003761361     0.000013984741
       5       -0.000039776685     0.000046648181    -0.000006694524
       6        0.000785745931    -0.001444661968    -0.001188153120
       7       -0.000799690412     0.000845694265     0.001271467310
       8       -0.000014074185    -0.000001046745    -0.000008726246
       9       -0.000005913884    -0.000004079872    -0.000006678190


*** tstop() called on cx1-1-1-3.cx1.hpc.ic.ac.uk at Fri Sep  2 12:05:03 2016
Module time:
	user time   =       5.99 seconds =       0.10 minutes
	system time =       0.12 seconds =       0.00 minutes
	total time  =          2 seconds =       0.03 minutes
Total time:
	user time   =      40.06 seconds =       0.67 minutes
	system time =       0.83 seconds =       0.01 minutes
	total time  =         15 seconds =       0.25 minutes
CURRENT ENERGY: -154.0608409338

			-----------------------------------------
			 OPTKING 2.0: for geometry optimizations 
			  - R.A. King,  Bethel University        
			-----------------------------------------

	Previous internal coordinate definitions found.
	---Fragment 1 Geometry and Gradient---
	 H           3.5361622703       -1.0034987367        1.2665924928
	 C           1.9301380043       -1.1976323209        0.0176843353
	 O           0.1587739105        0.6141938546        0.7250382524
	 H           2.5660513343       -0.9295183574       -1.9200284534
	 H           1.1769938306       -3.1023642393        0.1998272074
	 C          -2.0748055436        0.6364213549       -0.6826648719
	 H          -2.1606109357        2.3185779032       -1.8547602519
	 H          -3.6689501013        0.6695898889        0.6036363821
	 H          -2.2469719710       -1.0182458139       -1.8843412621
	             0.0000400864       -0.0000362381       -0.0000081763
	            -0.0004361030       -0.0009124532        0.0009457496
	             0.0005089016        0.0015023761       -0.0010127733
	            -0.0000391758        0.0000037614        0.0000139847
	            -0.0000397767        0.0000466482       -0.0000066945
	             0.0007857459       -0.0014446620       -0.0011881531
	            -0.0007996904        0.0008456943        0.0012714673
	            -0.0000140742       -0.0000010467       -0.0000087262
	            -0.0000059139       -0.0000040799       -0.0000066782

	---Fragment 1 Intrafragment Coordinates---
	 - Coordinate -           - BOHR/RAD -       - ANG/DEG -
	 R(1,2)           =         2.043716	       1.081488
	 R(2,3)           =         2.630740	       1.392128
	 R(2,4)           =         2.056940	       1.088486
	 R(2,5)           =         2.056309	       1.088152
	 R(3,6)           =         2.640265	       1.397168
	 R(6,7)           =         2.052028	       1.085887
	 R(6,8)           =         2.048650	       1.084099
	 R(6,9)           =         2.052216	       1.085986
	 B(1,2,3)         =         1.874856	     107.421321
	 B(1,2,4)         =         1.896894	     108.684032
	 B(1,2,5)         =         1.898299	     108.764512
	 B(2,3,6)         =         2.017570	     115.598235
	 B(3,2,4)         =         1.951623	     111.819770
	 B(3,2,5)         =         1.947131	     111.562405
	 B(3,6,7)         =         1.924969	     110.292596
	 B(3,6,8)         =         1.900389	     108.884245
	 B(3,6,9)         =         1.956682	     112.109593
	 B(4,2,5)         =         1.893796	     108.506508
	 B(7,6,8)         =         1.888964	     108.229639
	 B(7,6,9)         =         1.899678	     108.843552
	 B(8,6,9)         =         1.891703	     108.386612
	 D(1,2,3,6)       =        -3.134000	    -179.564969
	*D(2,3,6,7)       =        -1.919862	    -109.999992
	 D(2,3,6,8)       =         2.293028	     131.380833
	 D(2,3,6,9)       =         0.200021	      11.460335
	 D(4,2,3,6)       =         1.069402	      61.272221
	 D(5,2,3,6)       =        -1.055108	     -60.453256

	Current energy   :      -154.0608409338

	Energy change for the previous step:
		Projected    :        -0.0000023589
		Actual       :        -0.0000005972

	Performing BFGS update.
	Previous computed or guess Hessian on step 1.
	Steps to be used in Hessian update: 3 2
	Taking RFO optimization step.
	Going to follow RFO solution 1.
	Using RFO vector 1.
	Norm of target step-size    0.00088
	Projected energy change by RFO approximation:        -0.0000002254

	Back-transformation to cartesian coordinates...
	Successfully converged to displaced geometry.

	Back-transformation to cartesian coordinates to adjust frozen coordinates...
	Successfully converged to displaced geometry.

	--- Internal Coordinate Step in ANG or DEG, aJ/ANG or AJ/DEG ---
	 ---------------------------------------------------------------------------
	   Coordinate                Previous        Force       Change         New 
	   ----------                --------       ------       ------       ------
	    1 R(1,2)          =      1.081488    -0.000190    -0.000022     1.081466
	    2 R(2,3)          =      1.392128    -0.000369    -0.000041     1.392087
	    3 R(2,4)          =      1.088486     0.000204     0.000033     1.088519
	    4 R(2,5)          =      1.088152     0.000241     0.000036     1.088188
	    5 R(3,6)          =      1.397168     0.000104     0.000026     1.397195
	    6 R(6,7)          =      1.085887    -0.000004    -0.000006     1.085881
	    7 R(6,8)          =      1.084099    -0.000045    -0.000008     1.084091
	    8 R(6,9)          =      1.085986    -0.000063    -0.000006     1.085980
	    9 B(1,2,3)        =    107.421321    -0.000008    -0.027867   107.393454
	   10 B(1,2,4)        =    108.684032    -0.000000    -0.008062   108.675970
	   11 B(1,2,5)        =    108.764512    -0.000001    -0.007882   108.756630
	   12 B(2,3,6)        =    115.598235    -0.000004    -0.011165   115.587070
	   13 B(3,2,4)        =    111.819770     0.000003     0.013623   111.833393
	   14 B(3,2,5)        =    111.562405     0.000007     0.025492   111.587896
	   15 B(3,6,7)        =    110.292596    -0.000000    -0.001853   110.290743
	   16 B(3,6,8)        =    108.884245    -0.000002    -0.004196   108.880049
	   17 B(3,6,9)        =    112.109593    -0.000000     0.000811   112.110403
	   18 B(4,2,5)        =    108.506508    -0.000001     0.003085   108.509593
	   19 B(7,6,8)        =    108.229639     0.000001     0.000023   108.229662
	   20 B(7,6,9)        =    108.843552     0.000001     0.002578   108.846130
	   21 B(8,6,9)        =    108.386612     0.000001     0.002689   108.389302
	   22 D(1,2,3,6)      =   -179.564969    -0.000000    -0.005457  -179.570426
	   23 *D(2,3,6,7)     =   -109.999992     0.000000     0.000000  -109.999992
	   24 D(2,3,6,8)      =    131.380833     0.000000     0.003618   131.384452
	   25 D(2,3,6,9)      =     11.460335     0.000000     0.002543    11.462878
	   26 D(4,2,3,6)      =     61.272221     0.000001     0.014135    61.286356
	   27 D(5,2,3,6)      =    -60.453256    -0.000001    -0.017801   -60.471057
	 ---------------------------------------------------------------------------

  ==> Convergence Check <==

  Measures of convergence in internal coordinates in au.
  Criteria marked as inactive (o), active & met (*), and active & unmet ( ).
  ---------------------------------------------------------------------------------------------
   Step     Total Energy     Delta E     MAX Force     RMS Force      MAX Disp      RMS Disp   
  ---------------------------------------------------------------------------------------------
    Convergence Criteria    1.00e-06 *    3.00e-04 *             o    1.20e-03 *             o
  ---------------------------------------------------------------------------------------------
      4    -154.06084093   -5.97e-07 *    1.11e-04 *    3.58e-05 o    4.86e-04 *    1.69e-04 o  ~
  ---------------------------------------------------------------------------------------------


  **** Optimization is complete! (in 4 steps) ****

  ==> Optimization Summary <==

  Measures of convergence in internal coordinates in au.
  --------------------------------------------------------------------------------------------------------------- ~
   Step         Total Energy             Delta E       MAX Force       RMS Force        MAX Disp        RMS Disp  ~
  --------------------------------------------------------------------------------------------------------------- ~
      1    -154.060466136565   -154.060466136565      0.01058202      0.00308913      0.04214610      0.01411882  ~
      2    -154.060761579674     -0.000295443109      0.00398229      0.00137679      0.01183145      0.00480914  ~
      3    -154.060840336660     -0.000078756986      0.00032664      0.00010041      0.00238174      0.00078397  ~
      4    -154.060840933837     -0.000000597177      0.00011065      0.00003582      0.00048637      0.00016923  ~
  --------------------------------------------------------------------------------------------------------------- ~

	Writing optimization data to binary file.
	Final energy is   -154.0608409338367
	Final (previous) structure:
	Cartesian Geometry (in Angstrom)
	    H     1.8712566222  -0.5310287009   0.6702519309
	    C     1.0213851193  -0.6337597769   0.0093581479
	    O     0.0840195412   0.3250174144   0.3836737478
	    H     1.3578959859  -0.4918799673  -1.0160353750
	    H     0.6228383574  -1.6417005736   0.1057440119
	    C    -1.0979398898   0.3367797018  -0.3612507189
	    H    -1.1433461511   1.2269386764  -0.9814969277
	    H    -1.9415249213   0.3543317354   0.3194306401
	    H    -1.1890464462  -0.5388325186  -0.9971505253
	Saving final (previous) structure.
			--------------------------
			 OPTKING Finished Execution 
			--------------------------

    Final optimized geometry and variables:
    Molecular point group: c1
    Full point group: C1

    Geometry (in Angstrom), charge = 0, multiplicity = 1:

    H            1.871256479329    -0.531028660322     0.670251879747
    C            1.021385041335    -0.633759728480     0.009358147206
    O            0.084019534747     0.325017389537     0.383673718518
    H            1.357895882204    -0.491879929724    -1.016035297409
    H            0.622838309794    -1.641700448200     0.105744003811
    C           -1.097939805931     0.336779676064    -0.361250691335
    H           -1.143346063816     1.226938582706    -0.981496852721
    H           -1.941524773078     0.354331708330     0.319430615664
    H           -1.189046355376    -0.538832477448    -0.997150449114

	Cleaning optimization helper files.


Properties will be evaluated at   0.000000,   0.000000,   0.000000 Bohr

Properties computed using the  density matrix

  Nuclear Dipole Moment: (a.u.)
     X:    -0.3951      Y:    -1.5192      Z:    -1.7787

  Electronic Dipole Moment: (a.u.)
     X:     0.2941      Y:     1.1184      Z:     1.3245

  Dipole Moment: (a.u.)
     X:    -0.1010      Y:    -0.4008      Z:    -0.4541     Total:     0.6141

  Dipole Moment: (Debye)
     X:    -0.2568      Y:    -1.0187      Z:    -1.1543     Total:     1.5608

  Quadrupole Moment: (Debye Ang)
    XX:   -17.4979     YY:   -19.9763     ZZ:   -20.4224
    XY:    -1.1199     XZ:     0.4115     YZ:    -0.6394

  Traceless Quadrupole Moment: (Debye Ang)
    XX:     1.8010     YY:    -0.6775     ZZ:    -1.1235
    XY:    -1.1199     XZ:     0.4115     YZ:    -0.6394

  Mulliken Charges: (a.u.)
   Center  Symbol    Alpha    Beta     Spin     Total
       1     H     0.41271  0.41271  0.00000  0.17458
       2     C     3.07890  3.07890  0.00000 -0.15779
       3     O     4.30014  4.30014  0.00000 -0.60027
       4     H     0.43026  0.43026  0.00000  0.13948
       5     H     0.42991  0.42991  0.00000  0.14019
       6     C     3.07766  3.07766  0.00000 -0.15531
       7     H     0.42239  0.42239  0.00000  0.15522
       8     H     0.41796  0.41796  0.00000  0.16407
       9     H     0.43008  0.43008  0.00000  0.13984

   Total alpha = 13.00000, Total beta = 13.00000, Total charge = -0.00000


*** PSI4 exiting successfully. Buy a developer a beer!
