    -----------------------------------------------------------------------
          Psi4: An Open-Source Ab Initio Electronic Structure Package
                              Psi4 (no tag) Driver

                          Git: Rev {detached?}  

    J. M. Turney, A. C. Simmonett, R. M. Parrish, E. G. Hohenstein,
    F. A. Evangelista, J. T. Fermann, B. J. Mintz, L. A. Burns, J. J. Wilke,
    M. L. Abrams, N. J. Russ, M. L. Leininger, C. L. Janssen, E. T. Seidl,
    W. D. Allen, H. F. Schaefer, R. A. King, E. F. Valeev, C. D. Sherrill,
    and T. D. Crawford, WIREs Comput. Mol. Sci. 2, 556-565 (2012)
    (doi: 10.1002/wcms.93)

                         Additional Contributions by
    A. E. DePrince, M. Saitow, U. Bozkaya, A. Yu. Sokolov
    -----------------------------------------------------------------------


    Psi4 started on: Thu Sep  1 22:30:15 2016

    Process ID:  12132
    PSI4DATADIR: /export131/home/mjharvey/miniconda3/share
    Memory level set to 256.000 MB

  ==> Input File <==

--------------------------------------------------------------------------
set {
	reference rhf
	basis 6-31G*
}


set_num_threads( 1 )
memory 2 gb

molecule MOL {
0 1

O	 1.214711	 1.306902	 -0.000018
C	 1.122059	 0.121804	 -0.000188
C	 -0.170150	 -0.657997	 -0.000612
O	 2.172624	 -0.688929	 0.000216
C	 -1.412532	 0.227344	 -0.000452
H	 -0.153702	 -1.313099	 -0.867402
H	 -0.153924	 -1.313811	 0.865644
C	 -2.121835	 0.233558	 1.354619
H	 -2.095804	 -0.113799	 -0.771986
H	 -1.131150	 1.239737	 -0.273195
C	 -3.367063	 1.119177	 1.364025
H	 -2.400868	 -0.783270	 1.623463
H	 -1.432008	 0.573664	 2.124384
H	 -4.091700	 0.783551	 0.627878
H	 -3.851002	 1.105679	 2.335568
H	 -3.115834	 2.150268	 1.132994
C	 3.452279	 -0.082609	 0.000533
H	 3.583069	 0.529321	 -0.880332
H	 4.163299	 -0.894027	 0.001117
H	 3.582335	 0.529955	 0.881077

	symmetry c1
}
set optking {
	frozen_dihedral = ("
		9 5 8 12,
		1 2 3 6,
		1 2 4 17
	")
}

ee = energy('scf')
oeprop('DIPOLE', 'QUADRUPOLE', 'MULLIKEN_CHARGES')
f=open( 'psi4out.xyz', 'w' )
f.write( "20  " )
f.write( str(ee) + "\n" )
f.write( MOL.save_string_xyz() )
f.close()
--------------------------------------------------------------------------

  Memory set to   2.000 GiB by Python script.

*** tstart() called on cx1-3-2-2.cx1.hpc.ic.ac.uk
*** at Thu Sep  1 22:30:16 2016


         ---------------------------------------------------------
                                   SCF
            by Justin Turney, Rob Parrish, and Andy Simmonett
                              RHF Reference
                        1 Threads,   2000 MiB Core
         ---------------------------------------------------------

  ==> Geometry <==

    Molecular point group: c1
    Full point group: C1

    Geometry (in Angstrom), charge = 0, multiplicity = 1:

       Center              X                  Y                   Z               Mass       
    ------------   -----------------  -----------------  -----------------  -----------------
           O          1.067744627933     1.100728099470    -0.340037063458    15.994914619560
           C          0.975092627933    -0.084369900530    -0.340207063458    12.000000000000
           C         -0.317116372067    -0.864170900530    -0.340631063458    12.000000000000
           O          2.025657627933    -0.895102900530    -0.339803063458    15.994914619560
           C         -1.559498372067     0.021170099470    -0.340471063458    12.000000000000
           H         -0.300668372067    -1.519272900530    -1.207421063458     1.007825032070
           H         -0.300890372067    -1.519984900530     0.525624936542     1.007825032070
           C         -2.268801372067     0.027384099470     1.014599936542    12.000000000000
           H         -2.242770372067    -0.319972900530    -1.112005063458     1.007825032070
           H         -1.278116372067     1.033563099470    -0.613214063458     1.007825032070
           C         -3.514029372067     0.913003099470     1.024005936542    12.000000000000
           H         -2.547834372067    -0.989443900530     1.283443936542     1.007825032070
           H         -1.578974372067     0.367490099470     1.784364936542     1.007825032070
           H         -4.238666372067     0.577377099470     0.287858936542     1.007825032070
           H         -3.997968372067     0.899505099470     1.995548936542     1.007825032070
           H         -3.262800372067     1.944094099470     0.792974936542     1.007825032070
           C          3.305312627933    -0.288782900530    -0.339486063458    12.000000000000
           H          3.436102627933     0.323147099470    -1.220351063458     1.007825032070
           H          4.016332627933    -1.100200900530    -0.338902063458     1.007825032070
           H          3.435368627933     0.323781099470     0.541057936542     1.007825032070

  Running in c1 symmetry.

  Rotational constants: A =      0.21097  B =      0.02691  C =      0.02561 [cm^-1]
  Rotational constants: A =   6324.77979  B =    806.77412  C =    767.61952 [MHz]
  Nuclear repulsion =  385.164709431872325

  Charge       = 0
  Multiplicity = 1
  Electrons    = 64
  Nalpha       = 32
  Nbeta        = 32

  ==> Algorithm <==

  SCF Algorithm Type is DF.
  DIIS enabled.
  MOM disabled.
  Fractional occupation disabled.
  Guess Type is CORE.
  Energy threshold   = 1.00e-06
  Density threshold  = 1.00e-06
  Integral threshold = 0.00e+00

  ==> Primary Basis <==

  Basis Set: 6-31G*
    Number of shells: 72
    Number of basis function: 144
    Number of Cartesian functions: 144
    Spherical Harmonics?: false
    Max angular momentum: 2

  ==> Pre-Iterations <==

   -------------------------------------------------------
    Irrep   Nso     Nmo     Nalpha   Nbeta   Ndocc  Nsocc
   -------------------------------------------------------
     A        144     144       0       0       0       0
   -------------------------------------------------------
    Total     144     144      32      32      32       0
   -------------------------------------------------------

 OEINTS: Overlap, kinetic, potential, dipole, and quadrupole integrals
         stored in file 35.

  ==> Integral Setup <==

  ==> DFJK: Density-Fitted J/K Matrices <==

    J tasked:                  Yes
    K tasked:                  Yes
    wK tasked:                  No
    OpenMP threads:              1
    Integrals threads:           1
    Memory (MB):              1430
    Algorithm:                Core
    Integral Cache:           NONE
    Schwarz Cutoff:          1E-12
    Fitting Condition:       1E-12

   => Auxiliary Basis Set <=

  Basis Set: 
    Number of shells: 300
    Number of basis function: 948
    Number of Cartesian functions: 948
    Spherical Harmonics?: false
    Max angular momentum: 3

  Minimum eigenvalue in the overlap matrix is 3.0173407724E-03.
  Using Symmetric Orthogonalization.
  SCF Guess: Core (One-Electron) Hamiltonian.

  ==> Iterations <==

                           Total Energy        Delta E     RMS |[F,P]|

   @DF-RHF iter   1:  -254.16356478319346   -2.54164e+02   7.34129e-02 
   @DF-RHF iter   2:   -97.95257667677174    1.56211e+02   8.32669e-02 DIIS
   @DF-RHF iter   3:  -263.68156652725884   -1.65729e+02   5.54185e-02 DIIS
   @DF-RHF iter   4:  -261.55274461735723    2.12882e+00   6.51525e-02 DIIS
   @DF-RHF iter   5:  -369.51823691372510   -1.07965e+02   2.17167e-02 DIIS
   @DF-RHF iter   6:  -363.55784874637084    5.96039e+00   3.20009e-02 DIIS
   @DF-RHF iter   7:  -383.38202411241218   -1.98242e+01   7.01013e-03 DIIS
   @DF-RHF iter   8:  -383.85221883014890   -4.70195e-01   2.46010e-03 DIIS
   @DF-RHF iter   9:  -383.91685004519877   -6.46312e-02   1.23473e-03 DIIS
   @DF-RHF iter  10:  -383.93483376980862   -1.79837e-02   4.38202e-04 DIIS
   @DF-RHF iter  11:  -383.93703545612743   -2.20169e-03   1.72155e-04 DIIS
   @DF-RHF iter  12:  -383.93744146887411   -4.06013e-04   4.62338e-05 DIIS
   @DF-RHF iter  13:  -383.93747994840533   -3.84795e-05   1.19450e-05 DIIS
   @DF-RHF iter  14:  -383.93748275371388   -2.80531e-06   3.88510e-06 DIIS
   @DF-RHF iter  15:  -383.93748301333130   -2.59617e-07   1.47691e-06 DIIS
   @DF-RHF iter  16:  -383.93748305048996   -3.71587e-08   4.17247e-07 DIIS

  ==> Post-Iterations <==

    Orbital Energies (a.u.)
    -----------------------

    Doubly Occupied:                                                      

       1A    -20.604515     2A    -20.546606     3A    -11.373124  
       4A    -11.281360     5A    -11.234309     6A    -11.217532  
       7A    -11.215656     8A    -11.207881     9A     -1.470261  
      10A     -1.364072    11A     -1.087384    12A     -1.022660  
      13A     -0.968818    14A     -0.884067    15A     -0.805065  
      16A     -0.766692    17A     -0.703867    18A     -0.680947  
      19A     -0.673154    20A     -0.631305    21A     -0.606531  
      22A     -0.589791    23A     -0.578668    24A     -0.545714  
      25A     -0.529065    26A     -0.516008    27A     -0.510046  
      28A     -0.478093    29A     -0.467479    30A     -0.460931  
      31A     -0.457284    32A     -0.440395  

    Virtual:                                                              

      33A      0.197461    34A      0.236033    35A      0.252969  
      36A      0.264830    37A      0.283817    38A      0.298523  
      39A      0.309113    40A      0.315983    41A      0.323240  
      42A      0.323449    43A      0.335137    44A      0.344863  
      45A      0.349444    46A      0.372386    47A      0.411161  
      48A      0.434214    49A      0.452727    50A      0.482230  
      51A      0.520109    52A      0.565369    53A      0.703370  
      54A      0.717293    55A      0.733867    56A      0.750164  
      57A      0.754164    58A      0.783677    59A      0.790879  
      60A      0.809863    61A      0.825264    62A      0.889555  
      63A      0.904229    64A      0.938632    65A      0.956586  
      66A      0.965976    67A      0.985230    68A      1.015389  
      69A      1.072612    70A      1.090383    71A      1.113657  
      72A      1.120969    73A      1.129120    74A      1.139424  
      75A      1.153976    76A      1.168458    77A      1.183630  
      78A      1.192431    79A      1.196981    80A      1.204705  
      81A      1.222348    82A      1.226422    83A      1.252893  
      84A      1.265343    85A      1.279481    86A      1.301977  
      87A      1.316125    88A      1.391507    89A      1.407749  
      90A      1.500260    91A      1.572886    92A      1.649502  
      93A      1.663338    94A      1.687632    95A      1.720871  
      96A      1.796217    97A      1.833579    98A      1.862013  
      99A      1.887319   100A      1.947716   101A      2.005701  
     102A      2.056038   103A      2.093399   104A      2.118909  
     105A      2.132318   106A      2.166814   107A      2.211062  
     108A      2.227172   109A      2.265317   110A      2.291195  
     111A      2.300883   112A      2.362685   113A      2.381241  
     114A      2.400592   115A      2.432991   116A      2.439496  
     117A      2.476816   118A      2.505643   119A      2.596903  
     120A      2.628990   121A      2.660264   122A      2.676630  
     123A      2.682486   124A      2.726126   125A      2.749847  
     126A      2.800505   127A      2.858327   128A      2.903949  
     129A      2.962686   130A      3.023395   131A      3.072859  
     132A      3.098725   133A      3.174823   134A      3.350296  
     135A      3.444259   136A      3.578547   137A      4.418152  
     138A      4.540303   139A      4.623148   140A      4.654523  
     141A      4.744999   142A      4.778126   143A      4.960703  
     144A      4.987347  

    Final Occupation by Irrep:
              A 
    DOCC [    32 ]

  Energy converged.

  @DF-RHF Final Energy:  -383.93748305048996

   => Energetics <=

    Nuclear Repulsion Energy =            385.1647094318723248
    One-Electron Energy =               -1286.3659539446623512
    Two-Electron Energy =                 517.2637614623008631
    DFT Exchange-Correlation Energy =       0.0000000000000000
    Empirical Dispersion Energy =           0.0000000000000000
    PCM Polarization Energy =               0.0000000000000000
    EFP Energy =                            0.0000000000000000
    Total Energy =                       -383.9374830504891634

    Alert: EFP and PCM quantities not currently incorporated into SCF psivars.

Properties will be evaluated at   0.000000,   0.000000,   0.000000 Bohr
  ==> Properties <==


Properties computed using the SCF density matrix

  Nuclear Dipole Moment: (a.u.)
     X:    -8.2919      Y:     0.0198      Z:     2.5457

  Electronic Dipole Moment: (a.u.)
     X:     8.4753      Y:    -0.6929      Z:    -2.5447

  Dipole Moment: (a.u.)
     X:     0.1833      Y:    -0.6731      Z:     0.0010     Total:     0.6976

  Dipole Moment: (Debye)
     X:     0.4659      Y:    -1.7108      Z:     0.0026     Total:     1.7732


  Saving occupied orbitals to File 180.

*** tstop() called on cx1-3-2-2.cx1.hpc.ic.ac.uk at Thu Sep  1 22:30:31 2016
Module time:
	user time   =      15.10 seconds =       0.25 minutes
	system time =       0.17 seconds =       0.00 minutes
	total time  =         15 seconds =       0.25 minutes
Total time:
	user time   =      15.10 seconds =       0.25 minutes
	system time =       0.17 seconds =       0.00 minutes
	total time  =         15 seconds =       0.25 minutes


Properties will be evaluated at   0.000000,   0.000000,   0.000000 Bohr

Properties computed using the  density matrix

  Nuclear Dipole Moment: (a.u.)
     X:    -8.2919      Y:     0.0198      Z:     2.5457

  Electronic Dipole Moment: (a.u.)
     X:     8.4753      Y:    -0.6929      Z:    -2.5447

  Dipole Moment: (a.u.)
     X:     0.1833      Y:    -0.6731      Z:     0.0010     Total:     0.6976

  Dipole Moment: (Debye)
     X:     0.4659      Y:    -1.7108      Z:     0.0026     Total:     1.7732

  Quadrupole Moment: (Debye Ang)
    XX:   -43.2057     YY:   -54.1578     ZZ:   -48.9570
    XY:    -0.5285     XZ:    -0.0369     YZ:     0.7082

  Traceless Quadrupole Moment: (Debye Ang)
    XX:     5.5678     YY:    -5.3843     ZZ:    -0.1835
    XY:    -0.5285     XZ:    -0.0369     YZ:     0.7082

  Mulliken Charges: (a.u.)
   Center  Symbol    Alpha    Beta     Spin     Total
       1     O     4.28503  4.28503  0.00000 -0.57006
       2     C     2.61010  2.61010  0.00000  0.77980
       3     C     3.21078  3.21078  0.00000 -0.42157
       4     O     4.30597  4.30597  0.00000 -0.61193
       5     C     3.16088  3.16088  0.00000 -0.32176
       6     H     0.39730  0.39730  0.00000  0.20539
       7     H     0.39809  0.39809  0.00000  0.20382
       8     C     3.15534  3.15534  0.00000 -0.31068
       9     H     0.41977  0.41977  0.00000  0.16045
      10     H     0.39505  0.39505  0.00000  0.20989
      11     C     3.24053  3.24053  0.00000 -0.48107
      12     H     0.42396  0.42396  0.00000  0.15208
      13     H     0.41907  0.41907  0.00000  0.16187
      14     H     0.42211  0.42211  0.00000  0.15578
      15     H     0.41920  0.41920  0.00000  0.16160
      16     H     0.41812  0.41812  0.00000  0.16377
      17     C     3.09231  3.09231  0.00000 -0.18462
      18     H     0.40899  0.40899  0.00000  0.18203
      19     H     0.40836  0.40836  0.00000  0.18328
      20     H     0.40903  0.40903  0.00000  0.18193

   Total alpha = 32.00000, Total beta = 32.00000, Total charge =  0.00000


*** PSI4 exiting successfully. Buy a developer a beer!
