    -----------------------------------------------------------------------
          Psi4: An Open-Source Ab Initio Electronic Structure Package
                              Psi4 (no tag) Driver

                          Git: Rev {detached?}  

    J. M. Turney, A. C. Simmonett, R. M. Parrish, E. G. Hohenstein,
    F. A. Evangelista, J. T. Fermann, B. J. Mintz, L. A. Burns, J. J. Wilke,
    M. L. Abrams, N. J. Russ, M. L. Leininger, C. L. Janssen, E. T. Seidl,
    W. D. Allen, H. F. Schaefer, R. A. King, E. F. Valeev, C. D. Sherrill,
    and T. D. Crawford, WIREs Comput. Mol. Sci. 2, 556-565 (2012)
    (doi: 10.1002/wcms.93)

                         Additional Contributions by
    A. E. DePrince, M. Saitow, U. Bozkaya, A. Yu. Sokolov
    -----------------------------------------------------------------------


    Psi4 started on: Fri Sep  9 21:05:29 2016

    Process ID:  22028
    PSI4DATADIR: /export131/home/mjharvey/miniconda3/share
    Memory level set to 256.000 MB

  ==> Input File <==

--------------------------------------------------------------------------
set {
	reference rhf
	basis cc-pvtz
}


set_num_threads( 4 )
memory 2 gb

molecule MOL {
0 1

O	 1.233127	 -2.494476	 1.121202
C	 0.364889	 -1.885004	 0.597193
C	 -1.069986	 -2.322101	 0.521446
O	 0.550743	 -0.719877	 0.000412
H	 -1.701309	 -1.577808	 0.989276
H	 -1.184914	 -3.272093	 1.017267
H	 -1.370283	 -2.403215	 -0.515221
C	 1.863204	 -0.194033	 0.000410
H	 2.031502	 0.409177	 -0.879273
H	 2.524488	 -1.045142	 0.000793
H	 2.031291	 0.409823	 0.879686

	symmetry c1
}
set optking {
	frozen_dihedral = ("
		2 4 8 9
	")
}

ee = optimize('scf')
oeprop('DIPOLE', 'QUADRUPOLE', 'MULLIKEN_CHARGES')
f=open( 'psi4out.xyz', 'w' )
f.write( "11  " )
f.write( str(ee) + "\n" )
f.write( MOL.save_string_xyz() )
f.close()
--------------------------------------------------------------------------

  Memory set to   2.000 GiB by Python script.
gradient() will perform analytic gradient computation.

*** tstart() called on cx1-27-3-2
*** at Fri Sep  9 21:05:30 2016


         ---------------------------------------------------------
                                   SCF
            by Justin Turney, Rob Parrish, and Andy Simmonett
                              RHF Reference
                        4 Threads,   2000 MiB Core
         ---------------------------------------------------------

  ==> Geometry <==

    Molecular point group: c1
    Full point group: C1

    Geometry (in Angstrom), charge = 0, multiplicity = 1:

       Center              X                  Y                   Z               Mass       
    ------------   -----------------  -----------------  -----------------  -----------------
           O          0.628304017756    -0.984891951585     0.677194096118    15.994914619560
           C         -0.239933982244    -0.375419951585     0.153185096118    12.000000000000
           C         -1.674808982244    -0.812516951585     0.077438096118    12.000000000000
           O         -0.054079982244     0.789707048415    -0.443595903882    15.994914619560
           H         -2.306131982244    -0.068223951585     0.545268096118     1.007825032070
           H         -1.789736982244    -1.762508951585     0.573259096118     1.007825032070
           H         -1.975105982244    -0.893630951585    -0.959228903882     1.007825032070
           C          1.258381017756     1.315551048415    -0.443597903882    12.000000000000
           H          1.426679017756     1.918761048415    -1.323280903882     1.007825032070
           H          1.919665017756     0.464442048415    -0.443214903882     1.007825032070
           H          1.426468017756     1.919407048415     0.435678096118     1.007825032070

  Running in c1 symmetry.

  Rotational constants: A =      0.35439  B =      0.14054  C =      0.10451 [cm^-1]
  Rotational constants: A =  10624.47855  B =   4213.29436  C =   3132.99894 [MHz]
  Nuclear repulsion =  183.881827197904954

  Charge       = 0
  Multiplicity = 1
  Electrons    = 40
  Nalpha       = 20
  Nbeta        = 20

  ==> Algorithm <==

  SCF Algorithm Type is DF.
  DIIS enabled.
  MOM disabled.
  Fractional occupation disabled.
  Guess Type is CORE.
  Energy threshold   = 1.00e-08
  Density threshold  = 1.00e-08
  Integral threshold = 0.00e+00

  ==> Primary Basis <==

  Basis Set: CC-PVTZ
    Number of shells: 86
    Number of basis function: 234
    Number of Cartesian functions: 265
    Spherical Harmonics?: true
    Max angular momentum: 3

  ==> Pre-Iterations <==

   -------------------------------------------------------
    Irrep   Nso     Nmo     Nalpha   Nbeta   Ndocc  Nsocc
   -------------------------------------------------------
     A        234     234       0       0       0       0
   -------------------------------------------------------
    Total     234     234      20      20      20       0
   -------------------------------------------------------

 OEINTS: Overlap, kinetic, potential, dipole, and quadrupole integrals
         stored in file 35.

  ==> Integral Setup <==

  ==> DFJK: Density-Fitted J/K Matrices <==

    J tasked:                  Yes
    K tasked:                  Yes
    wK tasked:                  No
    OpenMP threads:              4
    Integrals threads:           4
    Memory (MB):              1430
    Algorithm:                Core
    Integral Cache:           NONE
    Schwarz Cutoff:          1E-12
    Fitting Condition:       1E-12

   => Auxiliary Basis Set <=

  Basis Set: 
    Number of shells: 185
    Number of basis function: 575
    Number of Cartesian functions: 690
    Spherical Harmonics?: true
    Max angular momentum: 4

  Minimum eigenvalue in the overlap matrix is 6.9049773583E-04.
  Using Symmetric Orthogonalization.
  SCF Guess: Core (One-Electron) Hamiltonian.

  ==> Iterations <==

                           Total Energy        Delta E     RMS |[F,P]|

   @DF-RHF iter   1:  -188.51649255698123   -1.88516e+02   6.12780e-02 
   @DF-RHF iter   2:  -203.53270624130533   -1.50162e+01   2.72452e-02 DIIS
   @DF-RHF iter   3:  -219.94335645747822   -1.64107e+01   3.75787e-02 DIIS
   @DF-RHF iter   4:  -241.76167941362934   -2.18183e+01   2.74039e-02 DIIS
   @DF-RHF iter   5:  -253.49606040286892   -1.17344e+01   1.90496e-02 DIIS
   @DF-RHF iter   6:  -258.05695114594596   -4.56089e+00   1.47495e-02 DIIS
   @DF-RHF iter   7:  -265.78375835598752   -7.72681e+00   5.45353e-03 DIIS
   @DF-RHF iter   8:  -266.86478198539180   -1.08102e+00   1.53926e-03 DIIS
   @DF-RHF iter   9:  -266.92075704252841   -5.59751e-02   7.26003e-04 DIIS
   @DF-RHF iter  10:  -266.93420762050891   -1.34506e-02   2.12095e-04 DIIS
   @DF-RHF iter  11:  -266.93615533803859   -1.94772e-03   7.11261e-05 DIIS
   @DF-RHF iter  12:  -266.93637747347032   -2.22135e-04   3.08077e-05 DIIS
   @DF-RHF iter  13:  -266.93643409429956   -5.66208e-05   9.76537e-06 DIIS
   @DF-RHF iter  14:  -266.93644202723692   -7.93294e-06   3.17698e-06 DIIS
   @DF-RHF iter  15:  -266.93644266530617   -6.38069e-07   1.15278e-06 DIIS
   @DF-RHF iter  16:  -266.93644274388487   -7.85787e-08   3.89151e-07 DIIS
   @DF-RHF iter  17:  -266.93644275522041   -1.13355e-08   1.03206e-07 DIIS
   @DF-RHF iter  18:  -266.93644275613650   -9.16089e-10   3.52498e-08 DIIS
   @DF-RHF iter  19:  -266.93644275626252   -1.26022e-10   1.30848e-08 DIIS
   @DF-RHF iter  20:  -266.93644275628554   -2.30216e-11   4.46635e-09 DIIS

  ==> Post-Iterations <==

    Orbital Energies (a.u.)
    -----------------------

    Doubly Occupied:                                                      

       1A    -20.598077     2A    -20.535255     3A    -11.370091  
       4A    -11.277207     5A    -11.233760     6A     -1.474752  
       7A     -1.367927     8A     -1.037170     9A     -0.952418  
      10A     -0.779422    11A     -0.701257    12A     -0.683929  
      13A     -0.682384    14A     -0.596927    15A     -0.593548  
      16A     -0.563849    17A     -0.529666    18A     -0.516525  
      19A     -0.461546    20A     -0.446622  

    Virtual:                                                              

      21A      0.142341    22A      0.160303    23A      0.182676  
      24A      0.208343    25A      0.217412    26A      0.229778  
      27A      0.245813    28A      0.257369    29A      0.292734  
      30A      0.355697    31A      0.368150    32A      0.392253  
      33A      0.397583    34A      0.430233    35A      0.439159  
      36A      0.511535    37A      0.531615    38A      0.580158  
      39A      0.597588    40A      0.614219    41A      0.620937  
      42A      0.623767    43A      0.629227    44A      0.640482  
      45A      0.654549    46A      0.693090    47A      0.712887  
      48A      0.719581    49A      0.744433    50A      0.784595  
      51A      0.796553    52A      0.828443    53A      0.883260  
      54A      0.910214    55A      0.932295    56A      0.950301  
      57A      0.964278    58A      0.982504    59A      1.021310  
      60A      1.067387    61A      1.098667    62A      1.104100  
      63A      1.146870    64A      1.164309    65A      1.178192  
      66A      1.191471    67A      1.222889    68A      1.231905  
      69A      1.270289    70A      1.275975    71A      1.305327  
      72A      1.340552    73A      1.344884    74A      1.423617  
      75A      1.440539    76A      1.458037    77A      1.471892  
      78A      1.504060    79A      1.521061    80A      1.528124  
      81A      1.533252    82A      1.570349    83A      1.574728  
      84A      1.620307    85A      1.678599    86A      1.714824  
      87A      1.758757    88A      1.806238    89A      1.839184  
      90A      1.882405    91A      1.955610    92A      2.033966  
      93A      2.148944    94A      2.205210    95A      2.250817  
      96A      2.306711    97A      2.337997    98A      2.366546  
      99A      2.464740   100A      2.485368   101A      2.517175  
     102A      2.545663   103A      2.597162   104A      2.627109  
     105A      2.660446   106A      2.694825   107A      2.750597  
     108A      2.828737   109A      2.852740   110A      2.914109  
     111A      2.921389   112A      2.963164   113A      3.045430  
     114A      3.055698   115A      3.087727   116A      3.092851  
     117A      3.116589   118A      3.132289   119A      3.146054  
     120A      3.163645   121A      3.236132   122A      3.245451  
     123A      3.277906   124A      3.282844   125A      3.290870  
     126A      3.318351   127A      3.348125   128A      3.350029  
     129A      3.369985   130A      3.400415   131A      3.434259  
     132A      3.448173   133A      3.516860   134A      3.557354  
     135A      3.583687   136A      3.604369   137A      3.617541  
     138A      3.643329   139A      3.663837   140A      3.675007  
     141A      3.691095   142A      3.733788   143A      3.743356  
     144A      3.751669   145A      3.763254   146A      3.791171  
     147A      3.838336   148A      3.860109   149A      3.886503  
     150A      3.913533   151A      3.926457   152A      3.933637  
     153A      4.047455   154A      4.081864   155A      4.109873  
     156A      4.126694   157A      4.172776   158A      4.188674  
     159A      4.193444   160A      4.217476   161A      4.274638  
     162A      4.292319   163A      4.317018   164A      4.363505  
     165A      4.365309   166A      4.385334   167A      4.404266  
     168A      4.420481   169A      4.433128   170A      4.543827  
     171A      4.563226   172A      4.586844   173A      4.604574  
     174A      4.629361   175A      4.662380   176A      4.716380  
     177A      4.761678   178A      4.824575   179A      4.933011  
     180A      4.960483   181A      5.065353   182A      5.100286  
     183A      5.148193   184A      5.208773   185A      5.259517  
     186A      5.298217   187A      5.308166   188A      5.358010  
     189A      5.372976   190A      5.433384   191A      5.496909  
     192A      5.517339   193A      5.525062   194A      5.548821  
     195A      5.601571   196A      5.609224   197A      5.627622  
     198A      5.641552   199A      5.677378   200A      5.685113  
     201A      5.724706   202A      5.781353   203A      5.857374  
     204A      5.910270   205A      5.977408   206A      6.027077  
     207A      6.155111   208A      6.209101   209A      6.218929  
     210A      6.222925   211A      6.243296   212A      6.360873  
     213A      6.593191   214A      6.608486   215A      6.665184  
     216A      6.812712   217A      6.854897   218A      6.878088  
     219A      6.921703   220A      7.023736   221A      7.209347  
     222A      7.248776   223A      7.369630   224A      7.474858  
     225A      7.493312   226A      7.552519   227A      7.675106  
     228A      7.858635   229A      7.980505   230A      9.810159  
     231A     12.061638   232A     14.165453   233A     14.319650  
     234A     14.371253  

    Final Occupation by Irrep:
              A 
    DOCC [    20 ]

  Energy converged.

  @DF-RHF Final Energy:  -266.93644275628554

   => Energetics <=

    Nuclear Repulsion Energy =            183.8818271979049541
    One-Electron Energy =                -728.8318739362525776
    Two-Electron Energy =                 278.0136039820622500
    DFT Exchange-Correlation Energy =       0.0000000000000000
    Empirical Dispersion Energy =           0.0000000000000000
    PCM Polarization Energy =               0.0000000000000000
    EFP Energy =                            0.0000000000000000
    Total Energy =                       -266.9364427562853734

    Alert: EFP and PCM quantities not currently incorporated into SCF psivars.

Properties will be evaluated at   0.000000,   0.000000,   0.000000 Bohr
  ==> Properties <==


Properties computed using the SCF density matrix

  Nuclear Dipole Moment: (a.u.)
     X:    -1.2142      Y:     1.4786      Z:    -1.0971

  Electronic Dipole Moment: (a.u.)
     X:     0.8038      Y:    -0.9348      Z:     0.6983

  Dipole Moment: (a.u.)
     X:    -0.4104      Y:     0.5438      Z:    -0.3988     Total:     0.7895

  Dipole Moment: (Debye)
     X:    -1.0431      Y:     1.3823      Z:    -1.0138     Total:     2.0066


  Saving occupied orbitals to File 180.

*** tstop() called on cx1-27-3-2 at Fri Sep  9 21:05:36 2016
Module time:
	user time   =      19.58 seconds =       0.33 minutes
	system time =       0.28 seconds =       0.00 minutes
	total time  =          6 seconds =       0.10 minutes
Total time:
	user time   =      19.58 seconds =       0.33 minutes
	system time =       0.28 seconds =       0.00 minutes
	total time  =          6 seconds =       0.10 minutes

*** tstart() called on cx1-27-3-2
*** at Fri Sep  9 21:05:36 2016


         ------------------------------------------------------------
                                   SCF GRAD                          
                          Rob Parrish, Justin Turney,                
                       Andy Simmonett, and Alex Sokolov              
         ------------------------------------------------------------

  ==> Geometry <==

    Molecular point group: c1
    Full point group: C1

    Geometry (in Angstrom), charge = 0, multiplicity = 1:

       Center              X                  Y                   Z               Mass       
    ------------   -----------------  -----------------  -----------------  -----------------
           O          0.628304017756    -0.984891951585     0.677194096118    15.994914619560
           C         -0.239933982244    -0.375419951585     0.153185096118    12.000000000000
           C         -1.674808982244    -0.812516951585     0.077438096118    12.000000000000
           O         -0.054079982244     0.789707048415    -0.443595903882    15.994914619560
           H         -2.306131982244    -0.068223951585     0.545268096118     1.007825032070
           H         -1.789736982244    -1.762508951585     0.573259096118     1.007825032070
           H         -1.975105982244    -0.893630951585    -0.959228903882     1.007825032070
           C          1.258381017756     1.315551048415    -0.443597903882    12.000000000000
           H          1.426679017756     1.918761048415    -1.323280903882     1.007825032070
           H          1.919665017756     0.464442048415    -0.443214903882     1.007825032070
           H          1.426468017756     1.919407048415     0.435678096118     1.007825032070

  Nuclear repulsion =  183.881827197904954

  ==> Basis Set <==

  Basis Set: CC-PVTZ
    Number of shells: 86
    Number of basis function: 234
    Number of Cartesian functions: 265
    Spherical Harmonics?: true
    Max angular momentum: 3

  ==> DFJKGrad: Density-Fitted SCF Gradients <==

    Gradient:                    1
    J tasked:                  Yes
    K tasked:                  Yes
    wK tasked:                  No
    OpenMP threads:              4
    Integrals threads:           4
    Memory (MB):              1430
    Schwarz Cutoff:          0E+00
    Fitting Condition:       1E-12

   => Auxiliary Basis Set <=

  Basis Set: 
    Number of shells: 185
    Number of basis function: 575
    Number of Cartesian functions: 690
    Spherical Harmonics?: true
    Max angular momentum: 4


  -Total Gradient:
     Atom            X                  Y                   Z
    ------   -----------------  -----------------  -----------------
       1        0.002138277637     0.002540369133    -0.001538065855
       2       -0.000557214387    -0.000443533990    -0.000896501574
       3       -0.000150054491    -0.000048787978     0.000280284793
       4        0.004553845214    -0.008878392021     0.004471316870
       5       -0.000126251331    -0.000026377951    -0.000005750834
       6       -0.000068030119    -0.000005038485    -0.000028143769
       7       -0.000025713176    -0.000054249905     0.000000506414
       8       -0.006456205226     0.011597834566    -0.001384346529
       9        0.008078536180     0.001565901263     0.001074534887
      10       -0.008278336526    -0.007120815840    -0.000195904329
      11        0.000891146226     0.000873091205    -0.001777930073


*** tstop() called on cx1-27-3-2 at Fri Sep  9 21:05:45 2016
Module time:
	user time   =      34.62 seconds =       0.58 minutes
	system time =       0.38 seconds =       0.01 minutes
	total time  =          9 seconds =       0.15 minutes
Total time:
	user time   =      54.23 seconds =       0.90 minutes
	system time =       0.66 seconds =       0.01 minutes
	total time  =         15 seconds =       0.25 minutes
CURRENT ENERGY: -266.9364427563

			-----------------------------------------
			 OPTKING 2.0: for geometry optimizations 
			  - R.A. King,  Bethel University        
			-----------------------------------------

	Internal coordinates to be generated automatically.
	Detected frag with atoms:  1 2 3 4 5 6 7 8 9 10 11
	---Fragment 1 Bond Connectivity---
	 1 : 2
	 2 : 1 3 4
	 3 : 2 5 6 7
	 4 : 2 8
	 5 : 3
	 6 : 3
	 7 : 3
	 8 : 4 9 10 11
	 9 : 8
	 10 : 8
	 11 : 8

	Assuming in current code that numbering for constraints corresponds to unified fragment.
	Frozen dihedral atom list: 
	     2     4     8     9
	---Fragment 1 Geometry and Gradient---
	 O           1.1873225218       -1.8611760590        1.2797113805
	 C          -0.4534095164       -0.7094408933        0.2894778793
	 C          -3.1649303013       -1.5354345168        0.1463367939
	 O          -0.1021963557        1.4923300467       -0.8382747720
	 H          -4.3579578727       -0.1289245842        1.0304073707
	 H          -3.3821127463       -3.3306592253        1.0833026948
	 H          -3.7324093899       -1.6887177624       -1.8126799271
	 C           2.3779954944        2.4860311953       -0.8382785515
	 H           2.6960326231        3.6259328960       -2.5006385052
	 H           3.6276411504        0.8776682761       -0.8375547864
	 H           2.6956338909        3.6271536590        0.8233122838
	             0.0021382776        0.0025403691       -0.0015380659
	            -0.0005572144       -0.0004435340       -0.0008965016
	            -0.0001500545       -0.0000487880        0.0002802848
	             0.0045538452       -0.0088783920        0.0044713169
	            -0.0001262513       -0.0000263780       -0.0000057508
	            -0.0000680301       -0.0000050385       -0.0000281438
	            -0.0000257132       -0.0000542499        0.0000005064
	            -0.0064562052        0.0115978346       -0.0013843465
	             0.0080785362        0.0015659013        0.0010745349
	            -0.0082783365       -0.0071208158       -0.0001959043
	             0.0008911462        0.0008730912       -0.0017779301

	Previous optimization step data not found.  Starting new optimization.

	---Fragment 1 Intrafragment Coordinates---
	 - Coordinate -           - BOHR/RAD -       - ANG/DEG -
	 R(1,2)           =         2.235857	       1.183165
	 R(2,3)           =         2.838151	       1.501885
	 R(2,4)           =         2.498594	       1.322199
	 R(3,5)           =         2.045279	       1.082315
	 R(3,6)           =         2.036641	       1.077744
	 R(3,7)           =         2.045306	       1.082329
	 R(4,8)           =         2.671852	       1.413883
	 R(8,9)           =         2.040579	       1.079828
	 R(8,10)          =         2.036773	       1.077814
	 R(8,11)          =         2.040573	       1.079825
	 B(1,2,3)         =         2.181575	     124.995064
	 B(1,2,4)         =         2.153970	     123.413371
	 B(2,3,5)         =         1.912766	     109.593414
	 B(2,3,6)         =         1.912626	     109.585398
	 B(2,3,7)         =         1.912607	     109.584286
	 B(2,4,8)         =         2.046782	     117.271957
	 B(3,2,4)         =         1.947640	     111.591565
	 B(4,8,9)         =         1.930968	     110.636333
	 B(4,8,10)        =         1.850264	     106.012291
	 B(4,8,11)        =         1.931011	     110.638775
	 B(5,3,6)         =         1.923152	     110.188477
	 B(5,3,7)         =         1.879380	     107.680563
	 B(6,3,7)         =         1.923033	     110.181677
	 B(9,8,10)        =         1.923870	     110.229637
	 B(9,8,11)        =         1.903609	     109.068759
	 B(10,8,11)       =         1.923886	     110.230523
	 D(1,2,3,5)       =         2.113421	     121.090093
	 D(1,2,3,6)       =         0.001075	       0.061607
	 D(1,2,3,7)       =        -2.111024	    -120.952745
	 D(1,2,4,8)       =         0.000160	       0.009139
	*D(2,4,8,9)       =         2.617994	     150.000015
	 D(2,4,8,10)      =         0.532260	      30.496231
	 D(2,4,8,11)      =        -1.553517	     -89.009941
	 D(3,2,4,8)       =        -3.141375	    -179.987529
	 D(4,2,3,5)       =        -1.028231	     -58.913301
	 D(4,2,3,6)       =        -3.140577	    -179.941787
	 D(4,2,3,7)       =         1.030510	      59.043861

	Current energy   :      -266.9364427563

	Generating empirical Hessian (Schlegel '84) for each fragment.
	Taking RFO optimization step.
	Going to follow RFO solution 1.
	Using RFO vector 1.
	Norm of target step-size    0.18717
	Projected energy change by RFO approximation:        -0.0092250793

	Back-transformation to cartesian coordinates...
	Successfully converged to displaced geometry.

	Back-transformation to cartesian coordinates to adjust frozen coordinates...
	Successfully converged to displaced geometry.

	--- Internal Coordinate Step in ANG or DEG, aJ/ANG or AJ/DEG ---
	 ---------------------------------------------------------------------------
	   Coordinate                Previous        Force       Change         New 
	   ----------                --------       ------       ------       ------
	    1 R(1,2)          =      1.183165     0.003466     0.000195     1.183360
	    2 R(2,3)          =      1.501885    -0.003133    -0.000616     1.501269
	    3 R(2,4)          =      1.322199     0.023784     0.002469     1.324668
	    4 R(3,5)          =      1.082315    -0.000437    -0.000077     1.082238
	    5 R(3,6)          =      1.077744     0.000010     0.000002     1.077746
	    6 R(3,7)          =      1.082329    -0.000088    -0.000016     1.082314
	    7 R(4,8)          =      1.413883     0.022897     0.003350     1.417234
	    8 R(8,9)          =      1.079828    -0.010368    -0.001822     1.078006
	    9 R(8,10)         =      1.077814    -0.004481    -0.000783     1.077031
	   10 R(8,11)         =      1.079825     0.006762     0.001190     1.081014
	   11 B(1,2,3)        =    124.995064    -0.000192    -0.567630   124.427434
	   12 B(1,2,4)        =    123.413371     0.000420     1.238947   124.652318
	   13 B(2,3,5)        =    109.593414    -0.000012    -0.063670   109.529744
	   14 B(2,3,6)        =    109.585398    -0.000005    -0.018587   109.566811
	   15 B(2,3,7)        =    109.584286    -0.000001     0.001375   109.585661
	   16 B(2,4,8)        =    117.271957     0.000762     2.248738   119.520696
	   17 B(3,2,4)        =    111.591565    -0.000228    -0.674244   110.917321
	   18 B(4,8,9)        =    110.636333    -0.001156    -5.650974   104.985359
	   19 B(4,8,10)       =    106.012291     0.001435     7.216535   113.228826
	   20 B(4,8,11)       =    110.638775    -0.000163    -1.140442   109.498333
	   21 B(5,3,6)        =    110.188477     0.000007     0.023030   110.211508
	   22 B(5,3,7)        =    107.680563     0.000005     0.016690   107.697253
	   23 B(6,3,7)        =    110.181677     0.000006     0.041079   110.222756
	   24 B(9,8,10)       =    110.229637    -0.000218    -0.303670   109.925967
	   25 B(9,8,11)       =    109.068759     0.000398     0.459001   109.527761
	   26 B(10,8,11)      =    110.230523    -0.000296    -0.676685   109.553838
	   27 D(1,2,3,5)      =    121.090093    -0.000001    -0.370701   120.719392
	   28 D(1,2,3,6)      =      0.061607    -0.000001    -0.347405    -0.285798
	   29 D(1,2,3,7)      =   -120.952745    -0.000002    -0.387259  -121.340004
	   30 D(1,2,4,8)      =      0.009139     0.000013     2.273998     2.283137
	   31 *D(2,4,8,9)     =    150.000015    -0.000000    -0.000000   150.000015
	   32 D(2,4,8,10)     =     30.496231     0.000008    -0.417600    30.078631
	   33 D(2,4,8,11)     =    -89.009941    -0.000086    -3.482640   -92.492581
	   34 D(3,2,4,8)      =   -179.987529     0.000011     1.670680  -178.316849
	   35 D(4,2,3,5)      =    -58.913301     0.000001     0.231061   -58.682240
	   36 D(4,2,3,6)      =   -179.941787     0.000001     0.254357  -179.687430
	   37 D(4,2,3,7)      =     59.043861     0.000000     0.214503    59.258363
	 ---------------------------------------------------------------------------

  ==> Convergence Check <==

  Measures of convergence in internal coordinates in au.
  Criteria marked as inactive (o), active & met (*), and active & unmet ( ).
  --------------------------------------------------------------------------------------------- ~
   Step     Total Energy     Delta E     MAX Force     RMS Force      MAX Disp      RMS Disp    ~
  --------------------------------------------------------------------------------------------- ~
    Convergence Criteria    1.00e-06 *    3.00e-04 *             o    1.20e-03 *             o  ~
  --------------------------------------------------------------------------------------------- ~
      1    -266.93644276   -2.67e+02      1.89e-02      4.74e-03 o    1.26e-01      3.07e-02 o  ~
  ---------------------------------------------------------------------------------------------

	Writing optimization data to binary file.
	Structure for next step:
	Cartesian Geometry (in Angstrom)
	    O     0.5946368697  -1.0486342694   0.7168584159
	    C    -0.2398396222  -0.4063911197   0.1769390215
	    C    -1.6827725847  -0.8068969038   0.0704092357
	    O    -0.0304743384   0.7662256983  -0.4026130423
	    H    -2.3030320986  -0.0523221106   0.5363849987
	    H    -1.8295299668  -1.7594358194   0.5527657556
	    H    -1.9663242475  -0.8679348461  -0.9723158039
	    C     1.2807971088   1.3026418825  -0.4397158706
	    H     1.3152351845   1.8925431166  -1.3413404466
	    H     2.0481542290   0.5473380780  -0.4657104143
	    H     1.4328485561   1.9435419414   0.4174421197
			--------------------------
			 OPTKING Finished Execution 
			--------------------------

    Structure for next step:
    Molecular point group: c1
    Full point group: C1

    Geometry (in Angstrom), charge = 0, multiplicity = 1:

    O            0.594513794403    -1.025297241804     0.697473628703
    C           -0.239962633710    -0.383054141086     0.157554275524
    C           -1.682895486086    -0.783559894655     0.051024497807
    O           -0.030597365870     0.789562587351    -0.421997744044
    H           -2.303154952542    -0.028985159011     0.517000225300
    H           -1.829652856950    -1.736098737474     0.533380980936
    H           -1.966447127173    -0.844597832218    -0.991700462168
    C            1.280673981164     1.325978730542    -0.459100569540
    H            1.315112054254     1.915879919673    -1.360725076692
    H            2.048031042721     0.570674983801    -0.485095111213
    H            1.432725416865     1.966878740577     0.398057355378

gradient() will perform analytic gradient computation.

*** tstart() called on cx1-27-3-2
*** at Fri Sep  9 21:05:46 2016


         ---------------------------------------------------------
                                   SCF
            by Justin Turney, Rob Parrish, and Andy Simmonett
                              RHF Reference
                        4 Threads,   2000 MiB Core
         ---------------------------------------------------------

  ==> Geometry <==

    Molecular point group: c1
    Full point group: C1

    Geometry (in Angstrom), charge = 0, multiplicity = 1:

       Center              X                  Y                   Z               Mass       
    ------------   -----------------  -----------------  -----------------  -----------------
           O          0.594513794403    -1.025297241804     0.697473628703    15.994914619560
           C         -0.239962633710    -0.383054141086     0.157554275524    12.000000000000
           C         -1.682895486086    -0.783559894655     0.051024497807    12.000000000000
           O         -0.030597365870     0.789562587351    -0.421997744044    15.994914619560
           H         -2.303154952542    -0.028985159011     0.517000225300     1.007825032070
           H         -1.829652856950    -1.736098737474     0.533380980936     1.007825032070
           H         -1.966447127173    -0.844597832218    -0.991700462168     1.007825032070
           C          1.280673981164     1.325978730542    -0.459100569540    12.000000000000
           H          1.315112054254     1.915879919673    -1.360725076692     1.007825032070
           H          2.048031042721     0.570674983801    -0.485095111213     1.007825032070
           H          1.432725416865     1.966878740577     0.398057355378     1.007825032070

  Running in c1 symmetry.

  Rotational constants: A =      0.34904  B =      0.13876  C =      0.10306 [cm^-1]
  Rotational constants: A =  10464.02929  B =   4159.77277  C =   3089.76337 [MHz]
  Nuclear repulsion =  183.049767115869827

  Charge       = 0
  Multiplicity = 1
  Electrons    = 40
  Nalpha       = 20
  Nbeta        = 20

  ==> Algorithm <==

  SCF Algorithm Type is DF.
  DIIS enabled.
  MOM disabled.
  Fractional occupation disabled.
  Guess Type is READ.
  Energy threshold   = 1.00e-08
  Density threshold  = 1.00e-08
  Integral threshold = 0.00e+00

  ==> Primary Basis <==

  Basis Set: CC-PVTZ
    Number of shells: 86
    Number of basis function: 234
    Number of Cartesian functions: 265
    Spherical Harmonics?: true
    Max angular momentum: 3

  ==> Pre-Iterations <==

   -------------------------------------------------------
    Irrep   Nso     Nmo     Nalpha   Nbeta   Ndocc  Nsocc
   -------------------------------------------------------
     A        234     234       0       0       0       0
   -------------------------------------------------------
    Total     234     234      20      20      20       0
   -------------------------------------------------------

 OEINTS: Overlap, kinetic, potential, dipole, and quadrupole integrals
         stored in file 35.

  ==> Integral Setup <==

  ==> DFJK: Density-Fitted J/K Matrices <==

    J tasked:                  Yes
    K tasked:                  Yes
    wK tasked:                  No
    OpenMP threads:              4
    Integrals threads:           4
    Memory (MB):              1430
    Algorithm:                Core
    Integral Cache:           NONE
    Schwarz Cutoff:          1E-12
    Fitting Condition:       1E-12

   => Auxiliary Basis Set <=

  Basis Set: 
    Number of shells: 185
    Number of basis function: 575
    Number of Cartesian functions: 690
    Spherical Harmonics?: true
    Max angular momentum: 4

  Minimum eigenvalue in the overlap matrix is 7.0013687581E-04.
  Using Symmetric Orthogonalization.
  SCF Guess: Reading in previously saved MOs, projecting if necessary.

  Using orbitals from previous SCF, no projection.
  Recomputing DOCC and SOCC from number of alpha and beta electrons from previous calculation.
              A 
    DOCC [    20 ]

  ==> Iterations <==

                           Total Energy        Delta E     RMS |[F,P]|

   @DF-RHF iter   0:  -266.92563983657726   -2.66926e+02   5.52583e-04 
   @DF-RHF iter   1:  -266.93729133779919   -1.16515e-02   8.84810e-05 
   @DF-RHF iter   2:  -266.93763096743317   -3.39630e-04   2.93860e-05 DIIS
   @DF-RHF iter   3:  -266.93767739365052   -4.64262e-05   1.19981e-05 DIIS
   @DF-RHF iter   4:  -266.93768165364611   -4.26000e-06   3.04785e-06 DIIS
   @DF-RHF iter   5:  -266.93768217073676   -5.17091e-07   1.22000e-06 DIIS
   @DF-RHF iter   6:  -266.93768224418039   -7.34436e-08   4.19714e-07 DIIS
   @DF-RHF iter   7:  -266.93768225403528   -9.85489e-09   1.74662e-07 DIIS
   @DF-RHF iter   8:  -266.93768225651274   -2.47746e-09   7.94841e-08 DIIS
   @DF-RHF iter   9:  -266.93768225722692   -7.14181e-10   3.07763e-08 DIIS
   @DF-RHF iter  10:  -266.93768225734198   -1.15051e-10   7.60729e-09 DIIS

  ==> Post-Iterations <==

    Orbital Energies (a.u.)
    -----------------------

    Doubly Occupied:                                                      

       1A    -20.598835     2A    -20.535118     3A    -11.369618  
       4A    -11.280780     5A    -11.231920     6A     -1.470723  
       7A     -1.368265     8A     -1.036869     9A     -0.954849  
      10A     -0.779905    11A     -0.697242    12A     -0.682752  
      13A     -0.680404    14A     -0.597693    15A     -0.592631  
      16A     -0.560478    17A     -0.529180    18A     -0.524485  
      19A     -0.460650    20A     -0.445103  

    Virtual:                                                              

      21A      0.141636    22A      0.159681    23A      0.183645  
      24A      0.207580    25A      0.218277    26A      0.222900  
      27A      0.244280    28A      0.259249    29A      0.294326  
      30A      0.357433    31A      0.370558    32A      0.388987  
      33A      0.398337    34A      0.425544    35A      0.436540  
      36A      0.504262    37A      0.530748    38A      0.568327  
      39A      0.599424    40A      0.613071    41A      0.619982  
      42A      0.626045    43A      0.629395    44A      0.640596  
      45A      0.659659    46A      0.696480    47A      0.707366  
      48A      0.712605    49A      0.745181    50A      0.783055  
      51A      0.795362    52A      0.833649    53A      0.882239  
      54A      0.916121    55A      0.929016    56A      0.948946  
      57A      0.962617    58A      0.985981    59A      1.026549  
      60A      1.068716    61A      1.087355    62A      1.104905  
      63A      1.144699    64A      1.174702    65A      1.181220  
      66A      1.186323    67A      1.222516    68A      1.233658  
      69A      1.257224    70A      1.273811    71A      1.326112  
      72A      1.338944    73A      1.343639    74A      1.389571  
      75A      1.441772    76A      1.460045    77A      1.467587  
      78A      1.492874    79A      1.523101    80A      1.528315  
      81A      1.534726    82A      1.547965    83A      1.584042  
      84A      1.612187    85A      1.674156    86A      1.721182  
      87A      1.753734    88A      1.800212    89A      1.833766  
      90A      1.878410    91A      1.956087    92A      2.013856  
      93A      2.133001    94A      2.204603    95A      2.245233  
      96A      2.292724    97A      2.341453    98A      2.367792  
      99A      2.436776   100A      2.468704   101A      2.521880  
     102A      2.546272   103A      2.597090   104A      2.617009  
     105A      2.656921   106A      2.704656   107A      2.749596  
     108A      2.830857   109A      2.849554   110A      2.921007  
     111A      2.923179   112A      2.957252   113A      3.033574  
     114A      3.049828   115A      3.082823   116A      3.096465  
     117A      3.115557   118A      3.127189   119A      3.145590  
     120A      3.155018   121A      3.239047   122A      3.252640  
     123A      3.271024   124A      3.282031   125A      3.288767  
     126A      3.313058   127A      3.349794   128A      3.355226  
     129A      3.376233   130A      3.399971   131A      3.431754  
     132A      3.450375   133A      3.498608   134A      3.530156  
     135A      3.571706   136A      3.606546   137A      3.607964  
     138A      3.629735   139A      3.661734   140A      3.676009  
     141A      3.698600   142A      3.734184   143A      3.740901  
     144A      3.753130   145A      3.759822   146A      3.806732  
     147A      3.828701   148A      3.842356   149A      3.890359  
     150A      3.901801   151A      3.931240   152A      3.942056  
     153A      4.049564   154A      4.078898   155A      4.114223  
     156A      4.126528   157A      4.143797   158A      4.191971  
     159A      4.197842   160A      4.221458   161A      4.268855  
     162A      4.294646   163A      4.301867   164A      4.355798  
     165A      4.374674   166A      4.382544   167A      4.398869  
     168A      4.403398   169A      4.435480   170A      4.531176  
     171A      4.563707   172A      4.593777   173A      4.603199  
     174A      4.632027   175A      4.653528   176A      4.719107  
     177A      4.759023   178A      4.817659   179A      4.919616  
     180A      4.959204   181A      5.039269   182A      5.102542  
     183A      5.150667   184A      5.217260   185A      5.256621  
     186A      5.290480   187A      5.306441   188A      5.341781  
     189A      5.404630   190A      5.434740   191A      5.479144  
     192A      5.520858   193A      5.525643   194A      5.569169  
     195A      5.588648   196A      5.607081   197A      5.624974  
     198A      5.636235   199A      5.651882   200A      5.674254  
     201A      5.718965   202A      5.746069   203A      5.868642  
     204A      5.877951   205A      5.968838   206A      6.017077  
     207A      6.150071   208A      6.178849   209A      6.210510  
     210A      6.220207   211A      6.233194   212A      6.353890  
     213A      6.564958   214A      6.624321   215A      6.663866  
     216A      6.840950   217A      6.863089   218A      6.885121  
     219A      6.912720   220A      6.986138   221A      7.188254  
     222A      7.230798   223A      7.368469   224A      7.468940  
     225A      7.498596   226A      7.548074   227A      7.678816  
     228A      7.877381   229A      7.980804   230A      9.760019  
     231A     12.028259   232A     14.098411   233A     14.309997  
     234A     14.388284  

    Final Occupation by Irrep:
              A 
    DOCC [    20 ]

  Energy converged.

  @DF-RHF Final Energy:  -266.93768225734198

   => Energetics <=

    Nuclear Repulsion Energy =            183.0497671158698267
    One-Electron Energy =                -727.1798938415997782
    Two-Electron Energy =                 277.1924444683879756
    DFT Exchange-Correlation Energy =       0.0000000000000000
    Empirical Dispersion Energy =           0.0000000000000000
    PCM Polarization Energy =               0.0000000000000000
    EFP Energy =                            0.0000000000000000
    Total Energy =                       -266.9376822573419759

    Alert: EFP and PCM quantities not currently incorporated into SCF psivars.

Properties will be evaluated at   0.000000,   0.000000,   0.000000 Bohr
  ==> Properties <==


Properties computed using the SCF density matrix

  Nuclear Dipole Moment: (a.u.)
     X:    -1.2192      Y:     1.7273      Z:    -1.3009

  Electronic Dipole Moment: (a.u.)
     X:     0.8540      Y:    -1.1260      Z:     0.8555

  Dipole Moment: (a.u.)
     X:    -0.3651      Y:     0.6013      Z:    -0.4454     Total:     0.8326

  Dipole Moment: (Debye)
     X:    -0.9281      Y:     1.5284      Z:    -1.1320     Total:     2.1163


  Saving occupied orbitals to File 180.

*** tstop() called on cx1-27-3-2 at Fri Sep  9 21:05:51 2016
Module time:
	user time   =      15.05 seconds =       0.25 minutes
	system time =       0.19 seconds =       0.00 minutes
	total time  =          5 seconds =       0.08 minutes
Total time:
	user time   =      70.46 seconds =       1.17 minutes
	system time =       0.89 seconds =       0.01 minutes
	total time  =         21 seconds =       0.35 minutes

*** tstart() called on cx1-27-3-2
*** at Fri Sep  9 21:05:51 2016


         ------------------------------------------------------------
                                   SCF GRAD                          
                          Rob Parrish, Justin Turney,                
                       Andy Simmonett, and Alex Sokolov              
         ------------------------------------------------------------

  ==> Geometry <==

    Molecular point group: c1
    Full point group: C1

    Geometry (in Angstrom), charge = 0, multiplicity = 1:

       Center              X                  Y                   Z               Mass       
    ------------   -----------------  -----------------  -----------------  -----------------
           O          0.594513794403    -1.025297241804     0.697473628703    15.994914619560
           C         -0.239962633710    -0.383054141086     0.157554275524    12.000000000000
           C         -1.682895486086    -0.783559894655     0.051024497807    12.000000000000
           O         -0.030597365870     0.789562587351    -0.421997744044    15.994914619560
           H         -2.303154952542    -0.028985159011     0.517000225300     1.007825032070
           H         -1.829652856950    -1.736098737474     0.533380980936     1.007825032070
           H         -1.966447127173    -0.844597832218    -0.991700462168     1.007825032070
           C          1.280673981164     1.325978730542    -0.459100569540    12.000000000000
           H          1.315112054254     1.915879919673    -1.360725076692     1.007825032070
           H          2.048031042721     0.570674983801    -0.485095111213     1.007825032070
           H          1.432725416865     1.966878740577     0.398057355378     1.007825032070

  Nuclear repulsion =  183.049767115869827

  ==> Basis Set <==

  Basis Set: CC-PVTZ
    Number of shells: 86
    Number of basis function: 234
    Number of Cartesian functions: 265
    Spherical Harmonics?: true
    Max angular momentum: 3

  ==> DFJKGrad: Density-Fitted SCF Gradients <==

    Gradient:                    1
    J tasked:                  Yes
    K tasked:                  Yes
    wK tasked:                  No
    OpenMP threads:              4
    Integrals threads:           4
    Memory (MB):              1430
    Schwarz Cutoff:          0E+00
    Fitting Condition:       1E-12

   => Auxiliary Basis Set <=

  Basis Set: 
    Number of shells: 185
    Number of basis function: 575
    Number of Cartesian functions: 690
    Spherical Harmonics?: true
    Max angular momentum: 4


  -Total Gradient:
     Atom            X                  Y                   Z
    ------   -----------------  -----------------  -----------------
       1       -0.001453012287    -0.003319233813     0.002345696640
       2        0.001124878523    -0.000830248188    -0.002722325106
       3        0.000682131915     0.000392321510     0.000515394475
       4       -0.004589864799     0.005739122714    -0.000137449768
       5        0.000091420121    -0.000000569231     0.000003172617
       6        0.000083182731    -0.000028697022     0.000013174187
       7        0.000200558345     0.000030043696    -0.000032355160
       8        0.003378835647    -0.004750159632     0.001516758271
       9       -0.002166288758    -0.001614854161    -0.000260337208
      10        0.003215712697     0.003537412486    -0.000648574253
      11       -0.000567554133     0.000844861641    -0.000593154691


*** tstop() called on cx1-27-3-2 at Fri Sep  9 21:06:00 2016
Module time:
	user time   =      34.33 seconds =       0.57 minutes
	system time =       0.35 seconds =       0.01 minutes
	total time  =          9 seconds =       0.15 minutes
Total time:
	user time   =     104.80 seconds =       1.75 minutes
	system time =       1.24 seconds =       0.02 minutes
	total time  =         30 seconds =       0.50 minutes
CURRENT ENERGY: -266.9376822573

			-----------------------------------------
			 OPTKING 2.0: for geometry optimizations 
			  - R.A. King,  Bethel University        
			-----------------------------------------

	Previous internal coordinate definitions found.
	---Fragment 1 Geometry and Gradient---
	 O           1.1234682536       -1.9375309918        1.3180341432
	 C          -0.4534636598       -0.7238674207        0.2977344318
	 C          -3.1802115790       -1.4807136096        0.0964223269
	 O          -0.0578206419        1.4920570549       -0.7974601649
	 H          -4.3523321019       -0.0547740124        0.9769888365
	 H          -3.4575428179       -3.2807511535        1.0079439785
	 H          -3.7160465252       -1.5960585953       -1.8740422794
	 C           2.4201230899        2.5057366588       -0.8675743439
	 H           2.4852016166        3.6204883517       -2.5713977371
	 H           3.8702177824        1.0784194303       -0.9166969086
	 H           2.7074586615        3.7168621563        0.7522193868
	            -0.0014530123       -0.0033192338        0.0023456966
	             0.0011248785       -0.0008302482       -0.0027223251
	             0.0006821319        0.0003923215        0.0005153945
	            -0.0045898648        0.0057391227       -0.0001374498
	             0.0000914201       -0.0000005692        0.0000031726
	             0.0000831827       -0.0000286970        0.0000131742
	             0.0002005583        0.0000300437       -0.0000323552
	             0.0033788356       -0.0047501596        0.0015167583
	            -0.0021662888       -0.0016148542       -0.0002603372
	             0.0032157127        0.0035374125       -0.0006485743
	            -0.0005675541        0.0008448616       -0.0005931547

	---Fragment 1 Intrafragment Coordinates---
	 - Coordinate -           - BOHR/RAD -       - ANG/DEG -
	 R(1,2)           =         2.236226	       1.183360
	 R(2,3)           =         2.836987	       1.501269
	 R(2,4)           =         2.503259	       1.324668
	 R(3,5)           =         2.045133	       1.082238
	 R(3,6)           =         2.036644	       1.077746
	 R(3,7)           =         2.045276	       1.082314
	 R(4,8)           =         2.678184	       1.417234
	 R(8,9)           =         2.037135	       1.078006
	 R(8,10)          =         2.035294	       1.077031
	 R(8,11)          =         2.042821	       1.081014
	 B(1,2,3)         =         2.171668	     124.427434
	 B(1,2,4)         =         2.175593	     124.652318
	 B(2,3,5)         =         1.911655	     109.529744
	 B(2,3,6)         =         1.912302	     109.566811
	 B(2,3,7)         =         1.912631	     109.585661
	 B(2,4,8)         =         2.086030	     119.520696
	 B(3,2,4)         =         1.935872	     110.917321
	 B(4,8,9)         =         1.832340	     104.985359
	 B(4,8,10)        =         1.976216	     113.228826
	 B(4,8,11)        =         1.911106	     109.498333
	 B(5,3,6)         =         1.923554	     110.211508
	 B(5,3,7)         =         1.879672	     107.697253
	 B(6,3,7)         =         1.923750	     110.222756
	 B(9,8,10)        =         1.918570	     109.925967
	 B(9,8,11)        =         1.911620	     109.527761
	 B(10,8,11)       =         1.912075	     109.553838
	 D(1,2,3,5)       =         2.106951	     120.719392
	 D(1,2,3,6)       =        -0.004988	      -0.285798
	 D(1,2,3,7)       =        -2.117783	    -121.340004
	 D(1,2,4,8)       =         0.039848	       2.283137
	*D(2,4,8,9)       =         2.617994	     150.000015
	 D(2,4,8,10)      =         0.524971	      30.078631
	 D(2,4,8,11)      =        -1.614300	     -92.492581
	 D(3,2,4,8)       =        -3.112216	    -178.316849
	 D(4,2,3,5)       =        -1.024198	     -58.682240
	 D(4,2,3,6)       =        -3.136137	    -179.687430
	 D(4,2,3,7)       =         1.034254	      59.258363

	Current energy   :      -266.9376822573

	Energy change for the previous step:
		Projected    :        -0.0092250793
		Actual       :        -0.0012395011
	Energy ratio indicates iffy step: Trust radius decreased to 1.250e-01.


	Performing BFGS update.
	Previous computed or guess Hessian on step 1.
	Steps to be used in Hessian update: 1
	Taking RFO optimization step.
	Going to follow RFO solution 1.
	Using RFO vector 1.
	Norm of target step-size    0.08782
	Projected energy change by RFO approximation:        -0.0018058622

	Back-transformation to cartesian coordinates...
	Successfully converged to displaced geometry.

	Back-transformation to cartesian coordinates to adjust frozen coordinates...
	Successfully converged to displaced geometry.

	--- Internal Coordinate Step in ANG or DEG, aJ/ANG or AJ/DEG ---
	 ---------------------------------------------------------------------------
	   Coordinate                Previous        Force       Change         New 
	   ----------                --------       ------       ------       ------
	    1 R(1,2)          =      1.183360    -0.015217    -0.000579     1.182780
	    2 R(2,3)          =      1.501269     0.009528     0.001273     1.502543
	    3 R(2,4)          =      1.324668    -0.026888    -0.001853     1.322815
	    4 R(3,5)          =      1.082238     0.000424     0.000050     1.082287
	    5 R(3,6)          =      1.077746    -0.000164    -0.000020     1.077726
	    6 R(3,7)          =      1.082314     0.000190     0.000023     1.082336
	    7 R(4,8)          =      1.417234    -0.023243    -0.002253     1.414981
	    8 R(8,9)          =      1.078006     0.006057     0.000687     1.078693
	    9 R(8,10)         =      1.077031     0.001433     0.000153     1.077184
	   10 R(8,11)         =      1.081014     0.000406     0.000078     1.081093
	   11 B(1,2,3)        =    124.427434     0.000224     0.431444   124.858878
	   12 B(1,2,4)        =    124.652318    -0.000427    -0.848294   123.804024
	   13 B(2,3,5)        =    109.529744     0.000003     0.001732   109.531477
	   14 B(2,3,6)        =    109.566811     0.000005     0.014066   109.580877
	   15 B(2,3,7)        =    109.585661     0.000021     0.071333   109.656994
	   16 B(2,4,8)        =    119.520696    -0.000446    -0.850755   118.669940
	   17 B(3,2,4)        =    110.917321     0.000204     0.388433   111.305754
	   18 B(4,8,9)        =    104.985359     0.000437     1.420995   106.406354
	   19 B(4,8,10)       =    113.228826    -0.000650    -2.161501   111.067325
	   20 B(4,8,11)       =    109.498333     0.000066     0.329720   109.828053
	   21 B(5,3,6)        =    110.211508    -0.000007    -0.030436   110.181071
	   22 B(5,3,7)        =    107.697253    -0.000011    -0.035780   107.661473
	   23 B(6,3,7)        =    110.222756    -0.000010    -0.020960   110.201796
	   24 B(9,8,10)       =    109.925967     0.000108     0.069834   109.995800
	   25 B(9,8,11)       =    109.527761    -0.000018     0.551160   110.078921
	   26 B(10,8,11)      =    109.553838     0.000079    -0.126395   109.427443
	   27 D(1,2,3,5)      =    120.719392     0.000004     1.261706   121.981098
	   28 D(1,2,3,6)      =     -0.285798     0.000005     1.289319     1.003521
	   29 D(1,2,3,7)      =   -121.340004     0.000004     1.261393  -120.078611
	   30 D(1,2,4,8)      =      2.283137    -0.000010    -1.738326     0.544812
	   31 *D(2,4,8,9)     =    150.000015    -0.000000    -0.000000   150.000015
	   32 D(2,4,8,10)     =     30.078631    -0.000012     0.223959    30.302590
	   33 D(2,4,8,11)     =    -92.492581     0.000057     1.610437   -90.882144
	   34 D(3,2,4,8)      =   -178.316849     0.000000     0.812742  -177.504107
	   35 D(4,2,3,5)      =    -58.682240    -0.000005    -1.312441   -59.994681
	   36 D(4,2,3,6)      =   -179.687430    -0.000004    -1.284828  -180.972258
	   37 D(4,2,3,7)      =     59.258363    -0.000005    -1.312754    57.945609
	 ---------------------------------------------------------------------------

  ==> Convergence Check <==

  Measures of convergence in internal coordinates in au.
  Criteria marked as inactive (o), active & met (*), and active & unmet ( ).
  ---------------------------------------------------------------------------------------------
   Step     Total Energy     Delta E     MAX Force     RMS Force      MAX Disp      RMS Disp   
  ---------------------------------------------------------------------------------------------
    Convergence Criteria    1.00e-06 *    3.00e-04 *             o    1.20e-03 *             o
  ---------------------------------------------------------------------------------------------
      2    -266.93768226   -1.24e-03      8.54e-03      2.48e-03 o    3.77e-02      1.44e-02 o  ~
  ---------------------------------------------------------------------------------------------

	Writing optimization data to binary file.
	Structure for next step:
	Cartesian Geometry (in Angstrom)
	    O     0.6095952679  -0.9935504545   0.6832542009
	    C    -0.2445768628  -0.3598807754   0.1657386797
	    C    -1.6811144801  -0.7855916528   0.0527596646
	    O    -0.0403112785   0.8046788797  -0.4274861544
	    H    -2.3159323430  -0.0449522954   0.5215939804
	    H    -1.8125786075  -1.7432483959   0.5293142096
	    H    -1.9620527977  -0.8456809834  -0.9907511800
	    C     1.2738643011   1.3281066188  -0.4611948082
	    H     1.3449038626   1.9152780264  -1.3632817449
	    H     2.0052576550   0.5374647499  -0.4777719063
	    H     1.4412910446   1.9547583732   0.4036969544
			--------------------------
			 OPTKING Finished Execution 
			--------------------------

    Structure for next step:
    Molecular point group: c1
    Full point group: C1

    Geometry (in Angstrom), charge = 0, multiplicity = 1:

    O            0.609940353415    -1.006491562886     0.686081740648
    C           -0.244231712073    -0.372821932155     0.168566259043
    C           -1.680769219623    -0.798532777131     0.055587252536
    O           -0.039966143345     0.791737633980    -0.424658529762
    H           -2.315587034114    -0.057893476238     0.524421532537
    H           -1.812233336958    -1.756189447021     0.532141761146
    H           -1.961707515838    -0.858622103142    -0.987923512375
    C            1.274209335934     1.315165333141    -0.458367180989
    H            1.345248891998     1.902336695887    -1.360454048848
    H            2.005602633922     0.524523524556    -0.474944277824
    H            1.441636066621     1.941817039642     0.406524515496

gradient() will perform analytic gradient computation.

*** tstart() called on cx1-27-3-2
*** at Fri Sep  9 21:06:00 2016


         ---------------------------------------------------------
                                   SCF
            by Justin Turney, Rob Parrish, and Andy Simmonett
                              RHF Reference
                        4 Threads,   2000 MiB Core
         ---------------------------------------------------------

  ==> Geometry <==

    Molecular point group: c1
    Full point group: C1

    Geometry (in Angstrom), charge = 0, multiplicity = 1:

       Center              X                  Y                   Z               Mass       
    ------------   -----------------  -----------------  -----------------  -----------------
           O          0.609940353415    -1.006491562886     0.686081740648    15.994914619560
           C         -0.244231712073    -0.372821932155     0.168566259043    12.000000000000
           C         -1.680769219623    -0.798532777131     0.055587252536    12.000000000000
           O         -0.039966143345     0.791737633980    -0.424658529762    15.994914619560
           H         -2.315587034114    -0.057893476238     0.524421532537     1.007825032070
           H         -1.812233336958    -1.756189447021     0.532141761146     1.007825032070
           H         -1.961707515838    -0.858622103142    -0.987923512375     1.007825032070
           C          1.274209335934     1.315165333141    -0.458367180989    12.000000000000
           H          1.345248891998     1.902336695887    -1.360454048848     1.007825032070
           H          2.005602633922     0.524523524556    -0.474944277824     1.007825032070
           H          1.441636066621     1.941817039642     0.406524515496     1.007825032070

  Running in c1 symmetry.

  Rotational constants: A =      0.35160  B =      0.13953  C =      0.10373 [cm^-1]
  Rotational constants: A =  10540.62167  B =   4182.98780  C =   3109.62087 [MHz]
  Nuclear repulsion =  183.428138720092591

  Charge       = 0
  Multiplicity = 1
  Electrons    = 40
  Nalpha       = 20
  Nbeta        = 20

  ==> Algorithm <==

  SCF Algorithm Type is DF.
  DIIS enabled.
  MOM disabled.
  Fractional occupation disabled.
  Guess Type is READ.
  Energy threshold   = 1.00e-08
  Density threshold  = 1.00e-08
  Integral threshold = 0.00e+00

  ==> Primary Basis <==

  Basis Set: CC-PVTZ
    Number of shells: 86
    Number of basis function: 234
    Number of Cartesian functions: 265
    Spherical Harmonics?: true
    Max angular momentum: 3

  ==> Pre-Iterations <==

   -------------------------------------------------------
    Irrep   Nso     Nmo     Nalpha   Nbeta   Ndocc  Nsocc
   -------------------------------------------------------
     A        234     234       0       0       0       0
   -------------------------------------------------------
    Total     234     234      20      20      20       0
   -------------------------------------------------------

 OEINTS: Overlap, kinetic, potential, dipole, and quadrupole integrals
         stored in file 35.

  ==> Integral Setup <==

  ==> DFJK: Density-Fitted J/K Matrices <==

    J tasked:                  Yes
    K tasked:                  Yes
    wK tasked:                  No
    OpenMP threads:              4
    Integrals threads:           4
    Memory (MB):              1430
    Algorithm:                Core
    Integral Cache:           NONE
    Schwarz Cutoff:          1E-12
    Fitting Condition:       1E-12

   => Auxiliary Basis Set <=

  Basis Set: 
    Number of shells: 185
    Number of basis function: 575
    Number of Cartesian functions: 690
    Spherical Harmonics?: true
    Max angular momentum: 4

  Minimum eigenvalue in the overlap matrix is 6.9761168001E-04.
  Using Symmetric Orthogonalization.
  SCF Guess: Reading in previously saved MOs, projecting if necessary.

  Using orbitals from previous SCF, no projection.
  Recomputing DOCC and SOCC from number of alpha and beta electrons from previous calculation.
              A 
    DOCC [    20 ]

  ==> Iterations <==

                           Total Energy        Delta E     RMS |[F,P]|

   @DF-RHF iter   0:  -266.93949171124729   -2.66939e+02   2.82102e-04 
   @DF-RHF iter   1:  -266.93794370897160    1.54800e-03   4.06219e-05 
   @DF-RHF iter   2:  -266.93801544231690   -7.17333e-05   1.31448e-05 DIIS
   @DF-RHF iter   3:  -266.93802536496122   -9.92264e-06   4.16890e-06 DIIS
   @DF-RHF iter   4:  -266.93802599459281   -6.29632e-07   1.40645e-06 DIIS
   @DF-RHF iter   5:  -266.93802609780175   -1.03209e-07   6.41595e-07 DIIS
   @DF-RHF iter   6:  -266.93802611968295   -2.18812e-08   2.03536e-07 DIIS
   @DF-RHF iter   7:  -266.93802612306689   -3.38395e-09   7.63418e-08 DIIS
   @DF-RHF iter   8:  -266.93802612352476   -4.57874e-10   3.24515e-08 DIIS
   @DF-RHF iter   9:  -266.93802612361577   -9.10063e-11   1.18344e-08 DIIS
   @DF-RHF iter  10:  -266.93802612363004   -1.42677e-11   4.26926e-09 DIIS

  ==> Post-Iterations <==

    Orbital Energies (a.u.)
    -----------------------

    Doubly Occupied:                                                      

       1A    -20.598065     2A    -20.534753     3A    -11.369483  
       4A    -11.279244     5A    -11.232996     6A     -1.472788  
       7A     -1.367817     8A     -1.036884     9A     -0.954024  
      10A     -0.779582    11A     -0.698668    12A     -0.683348  
      13A     -0.680913    14A     -0.597588    15A     -0.592495  
      16A     -0.561597    17A     -0.529345    18A     -0.522142  
      19A     -0.460665    20A     -0.445734  

    Virtual:                                                              

      21A      0.141818    22A      0.160103    23A      0.183371  
      24A      0.207505    25A      0.217833    26A      0.225627  
      27A      0.244763    28A      0.259347    29A      0.293565  
      30A      0.357296    31A      0.369830    32A      0.390564  
      33A      0.397332    34A      0.427285    35A      0.436328  
      36A      0.506826    37A      0.531876    38A      0.572731  
      39A      0.598766    40A      0.614688    41A      0.620112  
      42A      0.625321    43A      0.629001    44A      0.642041  
      45A      0.657716    46A      0.698030    47A      0.707705  
      48A      0.713519    49A      0.746213    50A      0.782762  
      51A      0.794775    52A      0.833486    53A      0.881131  
      54A      0.915306    55A      0.932529    56A      0.944463  
      57A      0.962015    58A      0.988713    59A      1.022900  
      60A      1.068978    61A      1.092652    62A      1.103839  
      63A      1.146406    64A      1.174582    65A      1.177009  
      66A      1.186798    67A      1.222975    68A      1.232820  
      69A      1.262473    70A      1.274004    71A      1.320090  
      72A      1.339235    73A      1.341050    74A      1.406568  
      75A      1.439218    76A      1.462198    77A      1.465276  
      78A      1.499315    79A      1.522096    80A      1.529002  
      81A      1.534378    82A      1.554641    83A      1.579527  
      84A      1.615138    85A      1.676371    86A      1.717528  
      87A      1.754945    88A      1.803012    89A      1.834598  
      90A      1.878386    91A      1.957417    92A      2.022626  
      93A      2.140970    94A      2.203935    95A      2.246793  
      96A      2.297356    97A      2.336583    98A      2.367718  
      99A      2.456014   100A      2.467206   101A      2.522856  
     102A      2.545010   103A      2.601779   104A      2.620407  
     105A      2.656664   106A      2.699117   107A      2.750697  
     108A      2.828643   109A      2.850486   110A      2.918080  
     111A      2.922564   112A      2.962195   113A      3.039893  
     114A      3.049526   115A      3.085398   116A      3.095040  
     117A      3.116095   118A      3.128700   119A      3.144703  
     120A      3.157201   121A      3.237534   122A      3.253050  
     123A      3.273404   124A      3.280829   125A      3.289787  
     126A      3.314680   127A      3.349725   128A      3.353173  
     129A      3.373184   130A      3.404402   131A      3.431935  
     132A      3.449461   133A      3.506242   134A      3.537581  
     135A      3.581515   136A      3.607711   137A      3.611614  
     138A      3.632203   139A      3.661450   140A      3.676953  
     141A      3.695730   142A      3.733386   143A      3.740592  
     144A      3.752070   145A      3.761727   146A      3.806455  
     147A      3.828615   148A      3.845930   149A      3.890726  
     150A      3.908730   151A      3.929088   152A      3.938234  
     153A      4.047498   154A      4.082680   155A      4.113077  
     156A      4.129296   157A      4.150942   158A      4.189940  
     159A      4.195500   160A      4.218883   161A      4.273987  
     162A      4.292151   163A      4.306389   164A      4.356870  
     165A      4.373942   166A      4.383847   167A      4.402192  
     168A      4.403774   169A      4.434015   170A      4.533755  
     171A      4.563998   172A      4.593907   173A      4.600683  
     174A      4.631363   175A      4.654013   176A      4.715080  
     177A      4.761812   178A      4.824165   179A      4.923368  
     180A      4.959703   181A      5.051923   182A      5.099392  
     183A      5.148639   184A      5.215855   185A      5.258468  
     186A      5.299007   187A      5.302200   188A      5.349331  
     189A      5.388523   190A      5.433695   191A      5.488569  
     192A      5.519850   193A      5.526153   194A      5.565574  
     195A      5.591719   196A      5.613444   197A      5.625899  
     198A      5.634522   199A      5.655409   200A      5.679302  
     201A      5.719857   202A      5.756374   203A      5.871814  
     204A      5.880533   205A      5.971663   206A      6.026351  
     207A      6.152796   208A      6.185272   209A      6.213491  
     210A      6.220831   211A      6.238945   212A      6.353684  
     213A      6.576778   214A      6.617908   215A      6.666566  
     216A      6.834909   217A      6.857201   218A      6.882190  
     219A      6.916655   220A      6.999966   221A      7.197933  
     222A      7.238664   223A      7.370030   224A      7.474202  
     225A      7.497629   226A      7.551499   227A      7.677939  
     228A      7.869905   229A      7.980050   230A      9.768496  
     231A     12.055063   232A     14.127689   233A     14.309653  
     234A     14.381849  

    Final Occupation by Irrep:
              A 
    DOCC [    20 ]

  Energy converged.

  @DF-RHF Final Energy:  -266.93802612363004

   => Energetics <=

    Nuclear Repulsion Energy =            183.4281387200925906
    One-Electron Energy =                -727.9360641645694159
    Two-Electron Energy =                 277.5698993208466163
    DFT Exchange-Correlation Energy =       0.0000000000000000
    Empirical Dispersion Energy =           0.0000000000000000
    PCM Polarization Energy =               0.0000000000000000
    EFP Energy =                            0.0000000000000000
    Total Energy =                       -266.9380261236301521

    Alert: EFP and PCM quantities not currently incorporated into SCF psivars.

Properties will be evaluated at   0.000000,   0.000000,   0.000000 Bohr
  ==> Properties <==


Properties computed using the SCF density matrix

  Nuclear Dipole Moment: (a.u.)
     X:    -1.2132      Y:     1.5889      Z:    -1.2739

  Electronic Dipole Moment: (a.u.)
     X:     0.8242      Y:    -1.0157      Z:     0.8502

  Dipole Moment: (a.u.)
     X:    -0.3890      Y:     0.5732      Z:    -0.4237     Total:     0.8121

  Dipole Moment: (Debye)
     X:    -0.9888      Y:     1.4570      Z:    -1.0770     Total:     2.0641


  Saving occupied orbitals to File 180.

*** tstop() called on cx1-27-3-2 at Fri Sep  9 21:06:05 2016
Module time:
	user time   =      14.73 seconds =       0.25 minutes
	system time =       0.19 seconds =       0.00 minutes
	total time  =          5 seconds =       0.08 minutes
Total time:
	user time   =     120.19 seconds =       2.00 minutes
	system time =       1.45 seconds =       0.02 minutes
	total time  =         35 seconds =       0.58 minutes

*** tstart() called on cx1-27-3-2
*** at Fri Sep  9 21:06:05 2016


         ------------------------------------------------------------
                                   SCF GRAD                          
                          Rob Parrish, Justin Turney,                
                       Andy Simmonett, and Alex Sokolov              
         ------------------------------------------------------------

  ==> Geometry <==

    Molecular point group: c1
    Full point group: C1

    Geometry (in Angstrom), charge = 0, multiplicity = 1:

       Center              X                  Y                   Z               Mass       
    ------------   -----------------  -----------------  -----------------  -----------------
           O          0.609940353415    -1.006491562886     0.686081740648    15.994914619560
           C         -0.244231712073    -0.372821932155     0.168566259043    12.000000000000
           C         -1.680769219623    -0.798532777131     0.055587252536    12.000000000000
           O         -0.039966143345     0.791737633980    -0.424658529762    15.994914619560
           H         -2.315587034114    -0.057893476238     0.524421532537     1.007825032070
           H         -1.812233336958    -1.756189447021     0.532141761146     1.007825032070
           H         -1.961707515838    -0.858622103142    -0.987923512375     1.007825032070
           C          1.274209335934     1.315165333141    -0.458367180989    12.000000000000
           H          1.345248891998     1.902336695887    -1.360454048848     1.007825032070
           H          2.005602633922     0.524523524556    -0.474944277824     1.007825032070
           H          1.441636066621     1.941817039642     0.406524515496     1.007825032070

  Nuclear repulsion =  183.428138720092591

  ==> Basis Set <==

  Basis Set: CC-PVTZ
    Number of shells: 86
    Number of basis function: 234
    Number of Cartesian functions: 265
    Spherical Harmonics?: true
    Max angular momentum: 3

  ==> DFJKGrad: Density-Fitted SCF Gradients <==

    Gradient:                    1
    J tasked:                  Yes
    K tasked:                  Yes
    wK tasked:                  No
    OpenMP threads:              4
    Integrals threads:           4
    Memory (MB):              1430
    Schwarz Cutoff:          0E+00
    Fitting Condition:       1E-12

   => Auxiliary Basis Set <=

  Basis Set: 
    Number of shells: 185
    Number of basis function: 575
    Number of Cartesian functions: 690
    Spherical Harmonics?: true
    Max angular momentum: 4


  -Total Gradient:
     Atom            X                  Y                   Z
    ------   -----------------  -----------------  -----------------
       1        0.000534119155    -0.000561789981    -0.002386366955
       2       -0.001281072669     0.002186326646     0.004649464320
       3        0.000270219061    -0.001004039709    -0.001813647411
       4        0.000053247210    -0.000239126561     0.000142845620
       5        0.000392254908     0.000090429296    -0.000002296775
       6        0.000009085274    -0.000038871994    -0.000120602765
       7       -0.000500498507    -0.000124634930    -0.000065757297
       8       -0.000135920971     0.000416978305     0.000520934983
       9        0.000380280149    -0.001208363333    -0.000906031175
      10        0.000349965066     0.000386912711    -0.000044446469
      11       -0.000071678675     0.000096179550     0.000025903922


*** tstop() called on cx1-27-3-2 at Fri Sep  9 21:06:14 2016
Module time:
	user time   =      33.14 seconds =       0.55 minutes
	system time =       0.34 seconds =       0.01 minutes
	total time  =          9 seconds =       0.15 minutes
Total time:
	user time   =     153.34 seconds =       2.56 minutes
	system time =       1.79 seconds =       0.03 minutes
	total time  =         44 seconds =       0.73 minutes
CURRENT ENERGY: -266.9380261236

			-----------------------------------------
			 OPTKING 2.0: for geometry optimizations 
			  - R.A. King,  Bethel University        
			-----------------------------------------

	Previous internal coordinate definitions found.
	---Fragment 1 Geometry and Gradient---
	 O           1.1526202253       -1.9019934089        1.2965065946
	 C          -0.4615310488       -0.7045313481        0.3185440648
	 C          -3.1761935177       -1.5090082569        0.1050446838
	 O          -0.0755250655        1.4961672973       -0.8024883212
	 H          -4.3758253313       -0.1094028150        0.9910130747
	 H          -3.4246246957       -3.3187170923        1.0056021924
	 H          -3.7070899578       -1.6225606266       -1.8669048786
	 C           2.4079066809        2.4853022991       -0.8661884404
	 H           2.5421519864        3.5948953678       -2.5708855687
	 H           3.7900397095        0.9912058117       -0.8975146135
	 H           2.7242973492        3.6695024051        0.7682200006
	             0.0005341192       -0.0005617900       -0.0023863670
	            -0.0012810727        0.0021863266        0.0046494643
	             0.0002702191       -0.0010040397       -0.0018136474
	             0.0000532472       -0.0002391266        0.0001428456
	             0.0003922549        0.0000904293       -0.0000022968
	             0.0000090853       -0.0000388720       -0.0001206028
	            -0.0005004985       -0.0001246349       -0.0000657573
	            -0.0001359210        0.0004169783        0.0005209350
	             0.0003802801       -0.0012083633       -0.0009060312
	             0.0003499651        0.0003869127       -0.0000444465
	            -0.0000716787        0.0000961796        0.0000259039

	---Fragment 1 Intrafragment Coordinates---
	 - Coordinate -           - BOHR/RAD -       - ANG/DEG -
	 R(1,2)           =         2.235131	       1.182780
	 R(2,3)           =         2.839394	       1.502543
	 R(2,4)           =         2.499758	       1.322815
	 R(3,5)           =         2.045227	       1.082287
	 R(3,6)           =         2.036607	       1.077726
	 R(3,7)           =         2.045319	       1.082336
	 R(4,8)           =         2.673926	       1.414981
	 R(8,9)           =         2.038433	       1.078693
	 R(8,10)          =         2.035583	       1.077184
	 R(8,11)          =         2.042969	       1.081093
	 B(1,2,3)         =         2.179199	     124.858878
	 B(1,2,4)         =         2.160788	     123.804024
	 B(2,3,5)         =         1.911685	     109.531477
	 B(2,3,6)         =         1.912547	     109.580877
	 B(2,3,7)         =         1.913876	     109.656994
	 B(2,4,8)         =         2.071181	     118.669940
	 B(3,2,4)         =         1.942652	     111.305754
	 B(4,8,9)         =         1.857141	     106.406354
	 B(4,8,10)        =         1.938491	     111.067325
	 B(4,8,11)        =         1.916861	     109.828053
	 B(5,3,6)         =         1.923022	     110.181071
	 B(5,3,7)         =         1.879047	     107.661473
	 B(6,3,7)         =         1.923384	     110.201796
	 B(9,8,10)        =         1.919789	     109.995800
	 B(9,8,11)        =         1.921240	     110.078921
	 B(10,8,11)       =         1.909869	     109.427443
	 D(1,2,3,5)       =         2.128972	     121.981098
	 D(1,2,3,6)       =         0.017515	       1.003521
	 D(1,2,3,7)       =        -2.095767	    -120.078611
	 D(1,2,4,8)       =         0.009509	       0.544812
	*D(2,4,8,9)       =         2.617994	     150.000015
	 D(2,4,8,10)      =         0.528880	      30.302590
	 D(2,4,8,11)      =        -1.586193	     -90.882144
	 D(3,2,4,8)       =        -3.098031	    -177.504107
	 D(4,2,3,5)       =        -1.047105	     -59.994681
	 D(4,2,3,6)       =         3.124624	     179.027742
	 D(4,2,3,7)       =         1.011342	      57.945609

	Current energy   :      -266.9380261236

	Energy change for the previous step:
		Projected    :        -0.0018058622
		Actual       :        -0.0003438663
	Energy ratio indicates iffy step: Trust radius decreased to 3.125e-02.


	Performing BFGS update.
	Previous computed or guess Hessian on step 1.
	Steps to be used in Hessian update: 2 1
	Taking RFO optimization step.
	Going to follow RFO solution 1.
	Using RFO vector 1.

	Determining step-restricting scale parameter for RS-RFO.
	Maximum step size allowed    0.03125

	 Iter      |step|        alpha        rfo_root  
	------------------------------------------------
	    0     0.20417       1.00000           1
	    1     0.13101      21.43213           1
	    2     0.08444      79.48285           1
	    3     0.05675     210.44276           1
	    4     0.04136     430.16019           1
	    5     0.03394     662.32494           1
	    6     0.03154     776.07336           1
	    7     0.03125     791.41299           1
	------------------------------------------------
	Norm of target step-size    0.03125
	Projected energy change by RFO approximation:        -0.0000811352

	Back-transformation to cartesian coordinates...
	Successfully converged to displaced geometry.

	Back-transformation to cartesian coordinates to adjust frozen coordinates...
	Successfully converged to displaced geometry.

	--- Internal Coordinate Step in ANG or DEG, aJ/ANG or AJ/DEG ---
	 ---------------------------------------------------------------------------
	   Coordinate                Previous        Force       Change         New 
	   ----------                --------       ------       ------       ------
	    1 R(1,2)          =      1.182780     0.002945     0.000048     1.182829
	    2 R(2,3)          =      1.502543    -0.002407    -0.000183     1.502359
	    3 R(2,4)          =      1.322815     0.002274     0.000036     1.322851
	    4 R(3,5)          =      1.082287     0.001394     0.000186     1.082473
	    5 R(3,6)          =      1.077726     0.000164     0.000018     1.077744
	    6 R(3,7)          =      1.082336    -0.001650    -0.000213     1.082123
	    7 R(4,8)          =      1.414981    -0.003139    -0.000505     1.414475
	    8 R(8,9)          =      1.078693    -0.001030    -0.000137     1.078555
	    9 R(8,10)         =      1.077184     0.000376     0.000025     1.077209
	   10 R(8,11)         =      1.081093    -0.000539     0.000015     1.081108
	   11 B(1,2,3)        =    124.858878    -0.000028    -0.018768   124.840110
	   12 B(1,2,4)        =    123.804024     0.000054     0.063585   123.867610
	   13 B(2,3,5)        =    109.531477     0.000051     0.146383   109.677860
	   14 B(2,3,6)        =    109.580877    -0.000000    -0.000378   109.580498
	   15 B(2,3,7)        =    109.656994    -0.000061    -0.167609   109.489385
	   16 B(2,4,8)        =    118.669940    -0.000012    -0.020309   118.649632
	   17 B(3,2,4)        =    111.305754    -0.000021    -0.017725   111.288028
	   18 B(4,8,9)        =    106.406354     0.000026    -0.023311   106.383044
	   19 B(4,8,10)       =    111.067325    -0.000067    -0.108239   110.959086
	   20 B(4,8,11)       =    109.828053     0.000014     0.024713   109.852766
	   21 B(5,3,6)        =    110.181071    -0.000016    -0.032319   110.148753
	   22 B(5,3,7)        =    107.661473     0.000005     0.011592   107.673065
	   23 B(6,3,7)        =    110.201796     0.000021     0.042374   110.244170
	   24 B(9,8,10)       =    109.995800     0.000017     0.040975   110.036775
	   25 B(9,8,11)       =    110.078921    -0.000001     0.099489   110.178410
	   26 B(10,8,11)      =    109.427443     0.000011    -0.031114   109.396329
	   27 D(1,2,3,5)      =    121.981098    -0.000019    -0.584340   121.396758
	   28 D(1,2,3,6)      =      1.003521    -0.000022    -0.636304     0.367217
	   29 D(1,2,3,7)      =   -120.078611    -0.000019    -0.582869  -120.661481
[...]
     195A      5.591908   196A      5.612714   197A      5.625537  
     198A      5.635566   199A      5.657023   200A      5.678964  
     201A      5.720286   202A      5.757280   203A      5.872342  
     204A      5.881865   205A      5.971441   206A      6.024614  
     207A      6.155109   208A      6.186355   209A      6.211814  
     210A      6.220371   211A      6.239232   212A      6.354602  
     213A      6.577591   214A      6.617982   215A      6.666282  
     216A      6.834680   217A      6.857205   218A      6.882762  
     219A      6.916714   220A      6.999558   221A      7.197221  
     222A      7.240014   223A      7.369838   224A      7.473571  
     225A      7.496854   226A      7.550969   227A      7.678589  
     228A      7.870572   229A      7.980382   230A      9.773777  
     231A     12.056291   232A     14.133902   233A     14.310766  
     234A     14.381820  

    Final Occupation by Irrep:
              A 
    DOCC [    20 ]

  Energy converged.

  @DF-RHF Final Energy:  -266.93811546215471

   => Energetics <=

    Nuclear Repulsion Energy =            183.4506732204227433
    One-Electron Energy =                -727.9791646512267107
    Two-Electron Energy =                 277.5903759686491412
    DFT Exchange-Correlation Energy =       0.0000000000000000
    Empirical Dispersion Energy =           0.0000000000000000
    PCM Polarization Energy =               0.0000000000000000
    EFP Energy =                            0.0000000000000000
    Total Energy =                       -266.9381154621548831

    Alert: EFP and PCM quantities not currently incorporated into SCF psivars.

Properties will be evaluated at   0.000000,   0.000000,   0.000000 Bohr
  ==> Properties <==


Properties computed using the SCF density matrix

  Nuclear Dipole Moment: (a.u.)
     X:    -1.2194      Y:     1.6011      Z:    -1.2386

  Electronic Dipole Moment: (a.u.)
     X:     0.8320      Y:    -1.0306      Z:     0.8092

  Dipole Moment: (a.u.)
     X:    -0.3874      Y:     0.5706      Z:    -0.4293     Total:     0.8124

  Dipole Moment: (Debye)
     X:    -0.9847      Y:     1.4502      Z:    -1.0913     Total:     2.0649


  Saving occupied orbitals to File 180.

*** tstop() called on cx1-27-3-2 at Fri Sep  9 21:06:47 2016
Module time:
	user time   =      12.66 seconds =       0.21 minutes
	system time =       0.18 seconds =       0.00 minutes
	total time  =          5 seconds =       0.08 minutes
Total time:
	user time   =     265.18 seconds =       4.42 minutes
	system time =       3.15 seconds =       0.05 minutes
	total time  =         77 seconds =       1.28 minutes

*** tstart() called on cx1-27-3-2
*** at Fri Sep  9 21:06:47 2016


         ------------------------------------------------------------
                                   SCF GRAD                          
                          Rob Parrish, Justin Turney,                
                       Andy Simmonett, and Alex Sokolov              
         ------------------------------------------------------------

  ==> Geometry <==

    Molecular point group: c1
    Full point group: C1

    Geometry (in Angstrom), charge = 0, multiplicity = 1:

       Center              X                  Y                   Z               Mass       
    ------------   -----------------  -----------------  -----------------  -----------------
           O          0.609487548035    -1.004700972491     0.689741423354    15.994914619560
           C         -0.241263583181    -0.378524829524     0.157405078555    12.000000000000
           C         -1.680439367419    -0.797541329435     0.058409994945    12.000000000000
           O         -0.040166031663     0.790731201489    -0.427723513035    15.994914619560
           H         -2.308576377428    -0.048086726594     0.522214123496     1.007825032070
           H         -1.814094847785    -1.748913909806     0.546828527845     1.007825032070
           H         -1.967296045024    -0.868254863876    -0.982791895676     1.007825032070
           C          1.272335876003     1.317735207956    -0.453988669608    12.000000000000
           H          1.346033200399     1.911464380934    -1.351280552446     1.007825032070
           H          2.002961517247     0.526212373478    -0.474301029225     1.007825032070
           H          1.437329451386     1.936605189507     0.416808653357     1.007825032070

  Nuclear repulsion =  183.450673220422743

  ==> Basis Set <==

  Basis Set: CC-PVTZ
    Number of shells: 86
    Number of basis function: 234
    Number of Cartesian functions: 265
    Spherical Harmonics?: true
    Max angular momentum: 3

  ==> DFJKGrad: Density-Fitted SCF Gradients <==

    Gradient:                    1
    J tasked:                  Yes
    K tasked:                  Yes
    wK tasked:                  No
    OpenMP threads:              4
    Integrals threads:           4
    Memory (MB):              1430
    Schwarz Cutoff:          0E+00
    Fitting Condition:       1E-12

   => Auxiliary Basis Set <=

  Basis Set: 
    Number of shells: 185
    Number of basis function: 575
    Number of Cartesian functions: 690
    Spherical Harmonics?: true
    Max angular momentum: 4


  -Total Gradient:
     Atom            X                  Y                   Z
    ------   -----------------  -----------------  -----------------
       1        0.000022300311     0.000109192383    -0.000043245004
       2        0.000259332854    -0.000691014717    -0.001245913508
       3       -0.000030333211     0.000006090622     0.000000006585
       4       -0.000187748226     0.000703957858     0.001609110811
       5        0.000008265487    -0.000003106415    -0.000003572429
       6        0.000000952977     0.000003852508    -0.000001383147
       7       -0.000022003130    -0.000003372198    -0.000006464464
       8       -0.000525065375     0.001191189710     0.000498559239
       9        0.000441585064    -0.001309206920    -0.000822656995
      10        0.000034431430    -0.000008781397     0.000005505795
      11       -0.000001718181     0.000001198566     0.000010053117


*** tstop() called on cx1-27-3-2 at Fri Sep  9 21:06:56 2016
Module time:
	user time   =      33.51 seconds =       0.56 minutes
	system time =       0.38 seconds =       0.01 minutes
	total time  =          9 seconds =       0.15 minutes
Total time:
	user time   =     298.70 seconds =       4.98 minutes
	system time =       3.53 seconds =       0.06 minutes
	total time  =         86 seconds =       1.43 minutes
CURRENT ENERGY: -266.9381154622

			-----------------------------------------
			 OPTKING 2.0: for geometry optimizations 
			  - R.A. King,  Bethel University        
			-----------------------------------------

	Previous internal coordinate definitions found.
	---Fragment 1 Geometry and Gradient---
	 O           1.1517645472       -1.8986096835        1.3034223926
	 C          -0.4559220981       -0.7153082623        0.2974524904
	 C          -3.1755701873       -1.5071346923        0.1103788939
	 O          -0.0759027997        1.4942654155       -0.8082803002
	 H          -4.3625771102       -0.0908707439        0.9868416761
	 H          -3.4281424414       -3.3049683195        1.0333561593
	 H          -3.7176507474       -1.6407639063       -1.8572075284
	 C           2.4043663547        2.4901586587       -0.8579142530
	 H           2.5436341145        3.6121441927       -2.5535501728
	 H           3.7850487223        0.9943972736       -0.8962990498
	 H           2.7161590258        3.6596534357        0.7876542047
	             0.0000223003        0.0001091924       -0.0000432450
	             0.0002593329       -0.0006910147       -0.0012459135
	            -0.0000303332        0.0000060906        0.0000000066
	            -0.0001877482        0.0007039579        0.0016091108
	             0.0000082655       -0.0000031064       -0.0000035724
	             0.0000009530        0.0000038525       -0.0000013831
	            -0.0000220031       -0.0000033722       -0.0000064645
	            -0.0005250654        0.0011911897        0.0004985592
	             0.0004415851       -0.0013092069       -0.0008226570
	             0.0000344314       -0.0000087814        0.0000055058
	            -0.0000017182        0.0000011986        0.0000100531

	---Fragment 1 Intrafragment Coordinates---
	 - Coordinate -           - BOHR/RAD -       - ANG/DEG -
	 R(1,2)           =         2.235360	       1.182902
	 R(2,3)           =         2.838745	       1.502199
	 R(2,4)           =         2.499855	       1.322866
	 R(3,5)           =         2.045233	       1.082291
	 R(3,6)           =         2.036636	       1.077741
	 R(3,7)           =         2.045264	       1.082307
	 R(4,8)           =         2.673201	       1.414597
	 R(8,9)           =         2.037996	       1.078461
	 R(8,10)          =         2.035942	       1.077374
	 R(8,11)          =         2.042750	       1.080977
	 B(1,2,3)         =         2.178561	     124.822366
	 B(1,2,4)         =         2.162302	     123.890756
	 B(2,3,5)         =         1.912012	     109.550217
	 B(2,3,6)         =         1.912588	     109.583228
	 B(2,3,7)         =         1.912979	     109.605627
	 B(2,4,8)         =         2.069793	     118.590415
	 B(3,2,4)         =         1.942320	     111.286741
	 B(4,8,9)         =         1.858709	     106.496190
	 B(4,8,10)        =         1.934628	     110.846038
	 B(4,8,11)        =         1.917658	     109.873683
	 B(5,3,6)         =         1.923134	     110.187450
	 B(5,3,7)         =         1.879352	     107.678932
	 B(6,3,7)         =         1.923495	     110.208133
	 B(9,8,10)        =         1.920305	     110.025384
	 B(9,8,11)        =         1.922634	     110.158788
	 B(10,8,11)       =         1.909526	     109.407763
	 D(1,2,3,5)       =         2.114266	     121.138506
	 D(1,2,3,6)       =         0.002440	       0.139816
	 D(1,2,3,7)       =        -2.110439	    -120.919250
	 D(1,2,4,8)       =         0.028969	       1.659827
	*D(2,4,8,9)       =         2.617994	     150.000015
	 D(2,4,8,10)      =         0.529457	      30.335660
	 D(2,4,8,11)      =        -1.583193	     -90.710276
	 D(3,2,4,8)       =        -3.114883	    -178.469668
	 D(4,2,3,5)       =        -1.025042	     -58.730552
	 D(4,2,3,6)       =        -3.136867	    -179.729242
	 D(4,2,3,7)       =         1.033439	      59.211692

	Current energy   :      -266.9381154622

	Energy change for the previous step:
		Projected    :        -0.0000003232
		Actual       :        -0.0000001392

	Performing BFGS update.
	Previous computed or guess Hessian on step 1.
	Steps to be used in Hessian update: 5 4
	Taking RFO optimization step.
	Going to follow RFO solution 1.
	Using RFO vector 1.
	Norm of target step-size    0.00111
	Projected energy change by RFO approximation:        -0.0000002868

	Back-transformation to cartesian coordinates...
	Successfully converged to displaced geometry.

	Back-transformation to cartesian coordinates to adjust frozen coordinates...
	Successfully converged to displaced geometry.

	--- Internal Coordinate Step in ANG or DEG, aJ/ANG or AJ/DEG ---
	 ---------------------------------------------------------------------------
	   Coordinate                Previous        Force       Change         New 
	   ----------                --------       ------       ------       ------
	    1 R(1,2)          =      1.182902     0.000504     0.000024     1.182925
	    2 R(2,3)          =      1.502199    -0.000339    -0.000054     1.502145
	    3 R(2,4)          =      1.322866     0.000827     0.000060     1.322927
	    4 R(3,5)          =      1.082291     0.000070     0.000019     1.082309
	    5 R(3,6)          =      1.077741     0.000034     0.000004     1.077745
	    6 R(3,7)          =      1.082307    -0.000101    -0.000023     1.082284
	    7 R(4,8)          =      1.414597     0.000726     0.000049     1.414646
	    8 R(8,9)          =      1.078461     0.000051     0.000001     1.078462
	    9 R(8,10)         =      1.077374    -0.000245    -0.000024     1.077350
	   10 R(8,11)         =      1.080977    -0.000070    -0.000012     1.080965
	   11 B(1,2,3)        =    124.822366    -0.000007    -0.014754   124.807612
	   12 B(1,2,4)        =    123.890756     0.000011     0.024151   123.914906
	   13 B(2,3,5)        =    109.550217     0.000001     0.008936   109.559153
	   14 B(2,3,6)        =    109.583228     0.000000     0.000680   109.583908
	   15 B(2,3,7)        =    109.605627    -0.000002    -0.013865   109.591763
	   16 B(2,4,8)        =    118.590415     0.000011     0.017138   118.607553
	   17 B(3,2,4)        =    111.286741    -0.000004    -0.009363   111.277378
	   18 B(4,8,9)        =    106.496190     0.000008     0.023778   106.519968
	   19 B(4,8,10)       =    110.846038    -0.000004    -0.018799   110.827239
	   20 B(4,8,11)       =    109.873683    -0.000000     0.002058   109.875742
	   21 B(5,3,6)        =    110.187450    -0.000000     0.000347   110.187798
	   22 B(5,3,7)        =    107.678932     0.000001     0.002214   107.681146
	   23 B(6,3,7)        =    110.208133     0.000001     0.001659   110.209792
	   24 B(9,8,10)       =    110.025384    -0.000002    -0.002994   110.022390
	   25 B(9,8,11)       =    110.158788    -0.000002    -0.006615   110.152173
	   26 B(10,8,11)      =    109.407763     0.000000     0.002807   109.410571
	   27 D(1,2,3,5)      =    121.138506     0.000000     0.015313   121.153818
	   28 D(1,2,3,6)      =      0.139816     0.000000     0.008841     0.148657
	   29 D(1,2,3,7)      =   -120.919250     0.000000     0.015095  -120.904155
	   30 D(1,2,4,8)      =      1.659827     0.000000     0.009937     1.669764
	   31 *D(2,4,8,9)     =    150.000015     0.000000    -0.000000   150.000015
	   32 D(2,4,8,10)     =     30.335660    -0.000000    -0.000330    30.335331
	   33 D(2,4,8,11)     =    -90.710276     0.000000     0.007030   -90.703246
	   34 D(3,2,4,8)      =   -178.469668     0.000000     0.026769  -178.442899
	   35 D(4,2,3,5)      =    -58.730552    -0.000000    -0.001761   -58.732313
	   36 D(4,2,3,6)      =   -179.729242    -0.000000    -0.008232  -179.737474
	   37 D(4,2,3,7)      =     59.211692    -0.000000    -0.001978    59.209714
	 ---------------------------------------------------------------------------

  ==> Convergence Check <==

  Measures of convergence in internal coordinates in au.
  Criteria marked as inactive (o), active & met (*), and active & unmet ( ).
  ---------------------------------------------------------------------------------------------
   Step     Total Energy     Delta E     MAX Force     RMS Force      MAX Disp      RMS Disp   
  ---------------------------------------------------------------------------------------------
    Convergence Criteria    1.00e-06 *    3.00e-04 *             o    1.20e-03 *             o
  ---------------------------------------------------------------------------------------------
      6    -266.93811546   -1.39e-07 *    1.41e-04 *    4.98e-05 o    4.67e-04 *    1.83e-04 o  ~
  ---------------------------------------------------------------------------------------------


  **** Optimization is complete! (in 6 steps) ****

  ==> Optimization Summary <==

  Measures of convergence in internal coordinates in au.
  --------------------------------------------------------------------------------------------------------------- ~
   Step         Total Energy             Delta E       MAX Force       RMS Force        MAX Disp        RMS Disp  ~
  --------------------------------------------------------------------------------------------------------------- ~
      1    -266.936442756286   -266.936442756286      0.01885565      0.00474210      0.12595229      0.03071055  ~
      2    -266.937682257342     -0.001239501056      0.00854312      0.00247995      0.03772530      0.01443507  ~
      3    -266.938026123630     -0.000343866288      0.00126899      0.00062357      0.01161670      0.00513800  ~
      4    -266.938100546470     -0.000074422840      0.00050787      0.00025554      0.01032892      0.00372921  ~
      5    -266.938115323002     -0.000014776532      0.00022036      0.00006341      0.00149066      0.00051742  ~
      6    -266.938115462155     -0.000000139153      0.00014098      0.00004978      0.00046721      0.00018276  ~
  --------------------------------------------------------------------------------------------------------------- ~

	Writing optimization data to binary file.
	Final energy is   -266.9381154621547
	Final (previous) structure:
	Cartesian Geometry (in Angstrom)
	    O     0.6094875946  -1.0047010492   0.6897414760
	    C    -0.2412636016  -0.3785248584   0.1574050906
	    C    -1.6804394957  -0.7975413903   0.0584099994
	    O    -0.0401660347   0.7907312619  -0.4277235457
	    H    -2.3085765537  -0.0480867303   0.5222141634
	    H    -1.8140949863  -1.7489140434   0.5468285696
	    H    -1.9672961953  -0.8682549302  -0.9827919707
	    C     1.2723359732   1.3177353086  -0.4539887043
	    H     1.3460333032   1.9114645269  -1.3512806556
	    H     2.0029616702   0.5262124137  -0.4743010654
	    H     1.4373295611   1.9366053374   0.4168086852
	Saving final (previous) structure.
			--------------------------
			 OPTKING Finished Execution 
			--------------------------

    Final optimized geometry and variables:
    Molecular point group: c1
    Full point group: C1

    Geometry (in Angstrom), charge = 0, multiplicity = 1:

    O            0.609487548035    -1.004700972491     0.689741423354
    C           -0.241263583181    -0.378524829524     0.157405078555
    C           -1.680439367419    -0.797541329435     0.058409994945
    O           -0.040166031663     0.790731201489    -0.427723513035
    H           -2.308576377428    -0.048086726594     0.522214123496
    H           -1.814094847785    -1.748913909806     0.546828527845
    H           -1.967296045024    -0.868254863876    -0.982791895676
    C            1.272335876003     1.317735207956    -0.453988669608
    H            1.346033200399     1.911464380934    -1.351280552446
    H            2.002961517247     0.526212373478    -0.474301029225
    H            1.437329451386     1.936605189507     0.416808653357

	Cleaning optimization helper files.


Properties will be evaluated at   0.000000,   0.000000,   0.000000 Bohr

Properties computed using the  density matrix

  Nuclear Dipole Moment: (a.u.)
     X:    -1.2194      Y:     1.6011      Z:    -1.2386

  Electronic Dipole Moment: (a.u.)
     X:     0.8320      Y:    -1.0306      Z:     0.8092

  Dipole Moment: (a.u.)
     X:    -0.3874      Y:     0.5706      Z:    -0.4293     Total:     0.8124

  Dipole Moment: (Debye)
     X:    -0.9847      Y:     1.4502      Z:    -1.0913     Total:     2.0649

  Quadrupole Moment: (Debye Ang)
    XX:   -27.2214     YY:   -30.6270     ZZ:   -30.4457
    XY:     4.6254     XZ:    -2.2212     YZ:     1.8153

  Traceless Quadrupole Moment: (Debye Ang)
    XX:     2.2100     YY:    -1.1957     ZZ:    -1.0143
    XY:     4.6254     XZ:    -2.2212     YZ:     1.8153

  Mulliken Charges: (a.u.)
   Center  Symbol    Alpha    Beta     Spin     Total
       1     O     4.19697  4.19697  0.00000 -0.39395
       2     C     2.79967  2.79967  0.00000  0.40066
       3     C     3.13910  3.13910  0.00000 -0.27821
       4     O     4.14897  4.14897  0.00000 -0.29795
       5     H     0.44524  0.44524  0.00000  0.10952
       6     H     0.43792  0.43792  0.00000  0.12415
       7     H     0.44579  0.44579  0.00000  0.10843
       8     C     3.03433  3.03433  0.00000 -0.06865
       9     H     0.44814  0.44814  0.00000  0.10371
      10     H     0.44766  0.44766  0.00000  0.10469
      11     H     0.45621  0.45621  0.00000  0.08759

   Total alpha = 20.00000, Total beta = 20.00000, Total charge = -0.00000


*** PSI4 exiting successfully. Buy a developer a beer!
