    -----------------------------------------------------------------------
          Psi4: An Open-Source Ab Initio Electronic Structure Package
                              Psi4 (no tag) Driver

                          Git: Rev {detached?}  

    J. M. Turney, A. C. Simmonett, R. M. Parrish, E. G. Hohenstein,
    F. A. Evangelista, J. T. Fermann, B. J. Mintz, L. A. Burns, J. J. Wilke,
    M. L. Abrams, N. J. Russ, M. L. Leininger, C. L. Janssen, E. T. Seidl,
    W. D. Allen, H. F. Schaefer, R. A. King, E. F. Valeev, C. D. Sherrill,
    and T. D. Crawford, WIREs Comput. Mol. Sci. 2, 556-565 (2012)
    (doi: 10.1002/wcms.93)

                         Additional Contributions by
    A. E. DePrince, M. Saitow, U. Bozkaya, A. Yu. Sokolov
    -----------------------------------------------------------------------


    Psi4 started on: Fri Sep  2 13:11:05 2016

    Process ID:  30214
    PSI4DATADIR: /export131/home/mjharvey/miniconda3/share
    Memory level set to 256.000 MB

  ==> Input File <==

--------------------------------------------------------------------------
set {
	reference rhf
	basis 6-31G*
}


set_num_threads( 4 )
memory 2 gb

molecule MOL {
0 1

O	 -2.140631	 0.381937	 1.942870
C	 -2.307600	 -0.361788	 1.029848
C	 -3.480437	 -1.301313	 0.915766
O	 -1.481751	 -0.454642	 0.000584
H	 -4.394895	 -0.720737	 0.939439
H	 -3.440724	 -1.887213	 0.009354
H	 -3.486138	 -1.956989	 1.778283
C	 -0.334255	 0.388708	 0.000906
C	 0.891947	 -0.504646	 0.000751
H	 -0.365390	 1.025305	 -0.873475
H	 -0.365484	 1.024911	 0.875569
C	 2.191998	 0.301789	 0.000897
H	 0.855148	 -1.151283	 -0.871571
H	 0.855132	 -1.151660	 0.872805
C	 3.441114	 -0.581407	 0.000108
H	 2.215074	 0.954890	 -0.869742
H	 2.215465	 0.953923	 0.872248
C	 4.739576	 0.224112	 -0.001102
H	 3.419457	 -1.233487	 -0.870178
H	 3.420834	 -1.233096	 0.870717
H	 4.804918	 0.861552	 -0.878265
H	 5.606527	 -0.429058	 -0.001824
H	 4.806469	 0.861674	 0.875853

	symmetry c1
}
set optking {
	frozen_dihedral = ("
		2 4 8 10
	")
}

ee = optimize('scf')
oeprop('DIPOLE', 'QUADRUPOLE', 'MULLIKEN_CHARGES')
f=open( 'psi4out.xyz', 'w' )
f.write( "23  " )
f.write( str(ee) + "\n" )
f.write( MOL.save_string_xyz() )
f.close()
--------------------------------------------------------------------------

  Memory set to   2.000 GiB by Python script.
gradient() will perform analytic gradient computation.

*** tstart() called on cx1-1-3-3.cx1.hpc.ic.ac.uk
*** at Fri Sep  2 13:11:06 2016


         ---------------------------------------------------------
                                   SCF
            by Justin Turney, Rob Parrish, and Andy Simmonett
                              RHF Reference
                        4 Threads,   2000 MiB Core
         ---------------------------------------------------------

  ==> Geometry <==

    Molecular point group: c1
    Full point group: C1

    Geometry (in Angstrom), charge = 0, multiplicity = 1:

       Center              X                  Y                   Z               Mass       
    ------------   -----------------  -----------------  -----------------  -----------------
           O         -2.294676040658     0.591704751282     1.503190440317    15.994914619560
           C         -2.461645040658    -0.152020248718     0.590168440317    12.000000000000
           C         -3.634482040658    -1.091545248718     0.476086440317    12.000000000000
           O         -1.635796040658    -0.244874248718    -0.439095559683    15.994914619560
           H         -4.548940040658    -0.510969248718     0.499759440317     1.007825032070
           H         -3.594769040658    -1.677445248718    -0.430325559683     1.007825032070
           H         -3.640183040658    -1.747221248718     1.338603440317     1.007825032070
           C         -0.488300040658     0.598475751282    -0.438773559683    12.000000000000
           C          0.737901959342    -0.294878248718    -0.438928559683    12.000000000000
           H         -0.519435040658     1.235072751282    -1.313154559683     1.007825032070
           H         -0.519529040658     1.234678751282     0.435889440317     1.007825032070
           C          2.037952959342     0.511556751282    -0.438782559683    12.000000000000
           H          0.701102959342    -0.941515248718    -1.311250559683     1.007825032070
           H          0.701086959342    -0.941892248718     0.433125440317     1.007825032070
           C          3.287068959342    -0.371639248718    -0.439571559683    12.000000000000
           H          2.061028959342     1.164657751282    -1.309421559683     1.007825032070
           H          2.061419959342     1.163690751282     0.432568440317     1.007825032070
           C          4.585530959342     0.433879751282    -0.440781559683    12.000000000000
           H          3.265411959342    -1.023719248718    -1.309857559683     1.007825032070
           H          3.266788959342    -1.023328248718     0.431037440317     1.007825032070
           H          4.650872959342     1.071319751282    -1.317944559683     1.007825032070
           H          5.452481959342    -0.219290248718    -0.441503559683     1.007825032070
           H          4.652423959342     1.071441751282     0.436173440317     1.007825032070

  Running in c1 symmetry.

  Rotational constants: A =      0.18612  B =      0.01660  C =      0.01620 [cm^-1]
  Rotational constants: A =   5579.75877  B =    497.71788  C =    485.52586 [MHz]
  Nuclear repulsion =  453.606308043682759

  Charge       = 0
  Multiplicity = 1
  Electrons    = 72
  Nalpha       = 36
  Nbeta        = 36

  ==> Algorithm <==

  SCF Algorithm Type is DF.
  DIIS enabled.
  MOM disabled.
  Fractional occupation disabled.
  Guess Type is CORE.
  Energy threshold   = 1.00e-08
  Density threshold  = 1.00e-08
  Integral threshold = 0.00e+00

  ==> Primary Basis <==

  Basis Set: 6-31G*
    Number of shells: 82
    Number of basis function: 163
    Number of Cartesian functions: 163
    Spherical Harmonics?: false
    Max angular momentum: 2

  ==> Pre-Iterations <==

   -------------------------------------------------------
    Irrep   Nso     Nmo     Nalpha   Nbeta   Ndocc  Nsocc
   -------------------------------------------------------
     A        163     163       0       0       0       0
   -------------------------------------------------------
    Total     163     163      36      36      36       0
   -------------------------------------------------------

 OEINTS: Overlap, kinetic, potential, dipole, and quadrupole integrals
         stored in file 35.

  ==> Integral Setup <==

  ==> DFJK: Density-Fitted J/K Matrices <==

    J tasked:                  Yes
    K tasked:                  Yes
    wK tasked:                  No
    OpenMP threads:              4
    Integrals threads:           4
    Memory (MB):              1430
    Algorithm:                Core
    Integral Cache:           NONE
    Schwarz Cutoff:          1E-12
    Fitting Condition:       1E-12

   => Auxiliary Basis Set <=

  Basis Set: 
    Number of shells: 342
    Number of basis function: 1079
    Number of Cartesian functions: 1079
    Spherical Harmonics?: false
    Max angular momentum: 3

  Minimum eigenvalue in the overlap matrix is 3.0862384491E-03.
  Using Symmetric Orthogonalization.
  SCF Guess: Core (One-Electron) Hamiltonian.

  ==> Iterations <==

                           Total Energy        Delta E     RMS |[F,P]|

   @DF-RHF iter   1:  -284.03206776842234   -2.84032e+02   6.67419e-02 
   @DF-RHF iter   2:   -59.35468633740874    2.24677e+02   7.85815e-02 DIIS
   @DF-RHF iter   3:  -236.08910737748141   -1.76734e+02   7.20017e-02 DIIS
   @DF-RHF iter   4:  -316.21199385481276   -8.01229e+01   6.14805e-02 DIIS
   @DF-RHF iter   5:  -388.86496397119987   -7.26530e+01   3.49925e-02 DIIS
   @DF-RHF iter   6:  -368.36134679897356    2.05036e+01   4.20369e-02 DIIS
   @DF-RHF iter   7:  -422.65509564553935   -5.42937e+01   5.14358e-03 DIIS
   @DF-RHF iter   8:  -422.89726118430309   -2.42166e-01   2.78405e-03 DIIS
   @DF-RHF iter   9:  -422.97035910686526   -7.30979e-02   6.32325e-04 DIIS
   @DF-RHF iter  10:  -422.97573147564668   -5.37237e-03   2.24327e-04 DIIS
   @DF-RHF iter  11:  -422.97653427494123   -8.02799e-04   6.94222e-05 DIIS
   @DF-RHF iter  12:  -422.97664623924703   -1.11964e-04   2.57389e-05 DIIS
   @DF-RHF iter  13:  -422.97666159171541   -1.53525e-05   9.58758e-06 DIIS
   @DF-RHF iter  14:  -422.97666419224737   -2.60053e-06   2.99087e-06 DIIS
   @DF-RHF iter  15:  -422.97666450627656   -3.14029e-07   9.66581e-07 DIIS
   @DF-RHF iter  16:  -422.97666453395624   -2.76797e-08   3.40351e-07 DIIS
   @DF-RHF iter  17:  -422.97666453807750   -4.12126e-09   9.51587e-08 DIIS
   @DF-RHF iter  18:  -422.97666453840822   -3.30715e-10   3.00431e-08 DIIS
   @DF-RHF iter  19:  -422.97666453843698   -2.87628e-11   8.74321e-09 DIIS

  ==> Post-Iterations <==

    Orbital Energies (a.u.)
    -----------------------

    Doubly Occupied:                                                      

       1A    -20.603265     2A    -20.540355     3A    -11.376066  
       4A    -11.277107     5A    -11.233280     6A    -11.222002  
       7A    -11.221376     8A    -11.220024     9A    -11.211656  
      10A     -1.469045    11A     -1.361581    12A     -1.092063  
      13A     -1.041515    14A     -1.002896    15A     -0.930151  
      16A     -0.844584    17A     -0.799960    18A     -0.772684  
      19A     -0.699963    20A     -0.681038    21A     -0.659766  
      22A     -0.647686    23A     -0.604201    24A     -0.587116  
      25A     -0.585134    26A     -0.571981    27A     -0.550319  
      28A     -0.539574    29A     -0.522213    30A     -0.508979  
      31A     -0.487143    32A     -0.477815    33A     -0.473040  
      34A     -0.469157    35A     -0.441098    36A     -0.433968  

    Virtual:                                                              

      37A      0.197037    38A      0.226193    39A      0.253674  
      40A      0.257473    41A      0.268104    42A      0.276990  
      43A      0.306127    44A      0.307858    45A      0.318875  
      46A      0.325181    47A      0.332460    48A      0.337600  
      49A      0.342912    50A      0.352038    51A      0.358324  
      52A      0.365182    53A      0.394852    54A      0.410227  
      55A      0.429943    56A      0.464796    57A      0.475023  
      58A      0.506947    59A      0.564133    60A      0.679039  
      61A      0.705615    62A      0.741033    63A      0.744704  
      64A      0.750526    65A      0.755326    66A      0.784133  
      67A      0.791985    68A      0.813743    69A      0.827302  
      70A      0.853502    71A      0.869166    72A      0.926244  
      73A      0.943586    74A      0.961631    75A      0.973257  
      76A      0.990566    77A      1.012948    78A      1.038984  
      79A      1.070576    80A      1.081754    81A      1.111194  
      82A      1.116549    83A      1.133603    84A      1.140659  
      85A      1.161687    86A      1.176726    87A      1.184866  
      88A      1.197899    89A      1.201515    90A      1.206649  
      91A      1.210903    92A      1.219198    93A      1.220582  
      94A      1.225585    95A      1.253411    96A      1.264407  
      97A      1.301131    98A      1.318371    99A      1.356714  
     100A      1.414433   101A      1.445832   102A      1.519893  
     103A      1.567927   104A      1.607147   105A      1.666339  
     106A      1.674556   107A      1.710303   108A      1.753743  
     109A      1.783812   110A      1.822593   111A      1.830756  
     112A      1.869451   113A      1.943553   114A      1.965084  
     115A      2.060378   116A      2.071951   117A      2.090333  
     118A      2.115824   119A      2.136471   120A      2.176814  
     121A      2.197899   122A      2.223125   123A      2.227749  
     124A      2.251950   125A      2.283008   126A      2.288759  
     127A      2.309048   128A      2.336406   129A      2.379940  
     130A      2.391412   131A      2.445936   132A      2.480621  
     133A      2.534190   134A      2.565428   135A      2.574044  
     136A      2.591132   137A      2.641777   138A      2.652570  
     139A      2.677979   140A      2.740233   141A      2.759636  
     142A      2.771339   143A      2.803650   144A      2.817958  
     145A      2.923120   146A      2.940044   147A      3.008344  
     148A      3.068665   149A      3.103280   150A      3.160354  
     151A      3.194846   152A      3.358272   153A      3.427409  
     154A      3.557284   155A      4.434677   156A      4.544830  
     157A      4.557316   158A      4.633905   159A      4.686045  
     160A      4.761798   161A      4.847227   162A      4.925101  
     163A      4.995679  

    Final Occupation by Irrep:
              A 
    DOCC [    36 ]

  Energy converged.

  @DF-RHF Final Energy:  -422.97666453843698

   => Energetics <=

    Nuclear Repulsion Energy =            453.6063080436827590
    One-Electron Energy =               -1474.8463382906656989
    Two-Electron Energy =                 598.2633657085459618
    DFT Exchange-Correlation Energy =       0.0000000000000000
    Empirical Dispersion Energy =           0.0000000000000000
    PCM Polarization Energy =               0.0000000000000000
    EFP Energy =                            0.0000000000000000
    Total Energy =                       -422.9766645384370349

    Alert: EFP and PCM quantities not currently incorporated into SCF psivars.

Properties will be evaluated at   0.000000,   0.000000,   0.000000 Bohr
  ==> Properties <==


Properties computed using the SCF density matrix

  Nuclear Dipole Moment: (a.u.)
     X:    13.0961      Y:    -1.0713      Z:    -3.2069

  Electronic Dipole Moment: (a.u.)
     X:   -12.9225      Y:     0.6624      Z:     2.5861

  Dipole Moment: (a.u.)
     X:     0.1735      Y:    -0.4089      Z:    -0.6208     Total:     0.7634

  Dipole Moment: (Debye)
     X:     0.4411      Y:    -1.0394      Z:    -1.5780     Total:     1.9403


  Saving occupied orbitals to File 180.

*** tstop() called on cx1-1-3-3.cx1.hpc.ic.ac.uk at Fri Sep  2 13:11:17 2016
Module time:
	user time   =      32.41 seconds =       0.54 minutes
	system time =       0.42 seconds =       0.01 minutes
	total time  =         11 seconds =       0.18 minutes
Total time:
	user time   =      32.41 seconds =       0.54 minutes
	system time =       0.42 seconds =       0.01 minutes
	total time  =         11 seconds =       0.18 minutes

*** tstart() called on cx1-1-3-3.cx1.hpc.ic.ac.uk
*** at Fri Sep  2 13:11:17 2016


         ------------------------------------------------------------
                                   SCF GRAD                          
                          Rob Parrish, Justin Turney,                
                       Andy Simmonett, and Alex Sokolov              
         ------------------------------------------------------------

  ==> Geometry <==

    Molecular point group: c1
    Full point group: C1

    Geometry (in Angstrom), charge = 0, multiplicity = 1:

       Center              X                  Y                   Z               Mass       
    ------------   -----------------  -----------------  -----------------  -----------------
           O         -2.294676040658     0.591704751282     1.503190440317    15.994914619560
           C         -2.461645040658    -0.152020248718     0.590168440317    12.000000000000
           C         -3.634482040658    -1.091545248718     0.476086440317    12.000000000000
           O         -1.635796040658    -0.244874248718    -0.439095559683    15.994914619560
           H         -4.548940040658    -0.510969248718     0.499759440317     1.007825032070
           H         -3.594769040658    -1.677445248718    -0.430325559683     1.007825032070
           H         -3.640183040658    -1.747221248718     1.338603440317     1.007825032070
           C         -0.488300040658     0.598475751282    -0.438773559683    12.000000000000
           C          0.737901959342    -0.294878248718    -0.438928559683    12.000000000000
           H         -0.519435040658     1.235072751282    -1.313154559683     1.007825032070
           H         -0.519529040658     1.234678751282     0.435889440317     1.007825032070
           C          2.037952959342     0.511556751282    -0.438782559683    12.000000000000
           H          0.701102959342    -0.941515248718    -1.311250559683     1.007825032070
           H          0.701086959342    -0.941892248718     0.433125440317     1.007825032070
           C          3.287068959342    -0.371639248718    -0.439571559683    12.000000000000
           H          2.061028959342     1.164657751282    -1.309421559683     1.007825032070
           H          2.061419959342     1.163690751282     0.432568440317     1.007825032070
           C          4.585530959342     0.433879751282    -0.440781559683    12.000000000000
           H          3.265411959342    -1.023719248718    -1.309857559683     1.007825032070
           H          3.266788959342    -1.023328248718     0.431037440317     1.007825032070
           H          4.650872959342     1.071319751282    -1.317944559683     1.007825032070
           H          5.452481959342    -0.219290248718    -0.441503559683     1.007825032070
           H          4.652423959342     1.071441751282     0.436173440317     1.007825032070

  Nuclear repulsion =  453.606308043682873

  ==> Basis Set <==

  Basis Set: 6-31G*
    Number of shells: 82
    Number of basis function: 163
    Number of Cartesian functions: 163
    Spherical Harmonics?: false
    Max angular momentum: 2

  ==> DFJKGrad: Density-Fitted SCF Gradients <==

    Gradient:                    1
    J tasked:                  Yes
    K tasked:                  Yes
    wK tasked:                  No
    OpenMP threads:              4
    Integrals threads:           4
    Memory (MB):              1430
    Schwarz Cutoff:          0E+00
    Fitting Condition:       1E-12

   => Auxiliary Basis Set <=

  Basis Set: 
    Number of shells: 342
    Number of basis function: 1079
    Number of Cartesian functions: 1079
    Spherical Harmonics?: false
    Max angular momentum: 3


  -Total Gradient:
     Atom            X                  Y                   Z
    ------   -----------------  -----------------  -----------------
       1        0.004752557078     0.001490631282    -0.003204512730
       2        0.001170500342    -0.000194025450    -0.000487490918
       3       -0.000421666629     0.000062905267    -0.000209391962
       4        0.003155815983    -0.005515258951     0.002901689784
       5       -0.000107333559    -0.000103060448    -0.000032021053
       6       -0.000129299253    -0.000075515844     0.000027124068
       7        0.000028945812    -0.000034773385    -0.000041726334
       8       -0.005647741509     0.000638948647    -0.006938959945
       9       -0.004086245980    -0.002721761552     0.001978487500
      10        0.003289105919     0.003403182987     0.002975248316
      11       -0.001408343482     0.002558716909     0.003319042531
      12       -0.000556542976     0.000941719144    -0.000258870514
      13       -0.000143449775     0.000261740365     0.000014906496
      14        0.000298215679    -0.000517781245    -0.000439204545
      15       -0.000205155524    -0.000285936652     0.000119305794
      16       -0.000042215634    -0.000056902968     0.000247159209
      17        0.000141593637     0.000109409556     0.000004413647
      18       -0.000060855994     0.000099202805    -0.000063029749
      19       -0.000013074788     0.000025620029     0.000045616463
      20        0.000039563113    -0.000061046958    -0.000007506622
      21       -0.000010449912    -0.000020570262     0.000044186325
      22       -0.000055091415    -0.000017774330     0.000001785789
      23        0.000011168877     0.000012331054     0.000003748443


*** tstop() called on cx1-1-3-3.cx1.hpc.ic.ac.uk at Fri Sep  2 13:11:27 2016
Module time:
	user time   =      35.64 seconds =       0.59 minutes
	system time =       0.32 seconds =       0.01 minutes
	total time  =         10 seconds =       0.17 minutes
Total time:
	user time   =      68.07 seconds =       1.13 minutes
	system time =       0.74 seconds =       0.01 minutes
	total time  =         21 seconds =       0.35 minutes
CURRENT ENERGY: -422.9766645384

			-----------------------------------------
			 OPTKING 2.0: for geometry optimizations 
			  - R.A. King,  Bethel University        
			-----------------------------------------

	Internal coordinates to be generated automatically.
	Detected frag with atoms:  1 2 3 4 5 6 7 8 9 10 11 12 13 14 15 16 17 18 19 20
	 21 22 23
	---Fragment 1 Bond Connectivity---
	 1 : 2
	 2 : 1 3 4
	 3 : 2 5 6 7
	 4 : 2 8
	 5 : 3
	 6 : 3
	 7 : 3
	 8 : 4 9 10 11
	 9 : 8 12 13 14
	 10 : 8
	 11 : 8
	 12 : 9 15 16 17
	 13 : 9
	 14 : 9
	 15 : 12 18 19 20
	 16 : 12
	 17 : 12
	 18 : 15 21 22 23
	 19 : 15
	 20 : 15
	 21 : 18
	 22 : 18
	 23 : 18

	Assuming in current code that numbering for constraints corresponds to unified fragment.
	Frozen dihedral atom list: 
	     2     4     8    10
	---Fragment 1 Geometry and Gradient---
	 O          -4.3363092805        1.1181599315        2.8406182578
	 C          -4.6518349632       -0.2872766367        1.1152567245
	 C          -6.8681756917       -2.0627215817        0.8996729878
	 O          -3.0912065261       -0.4627452671       -0.8297703540
	 H          -8.5962508718       -0.9655919424        0.9444084745
	 H          -6.7931289978       -3.1699121230       -0.8131974558
	 H          -6.8789490204       -3.3017696536        2.5295939027
	 C          -0.9227533475        1.1309552671       -0.8291618622
	 C           1.3944326161       -0.5572391326       -0.8294547697
	 H          -0.9815899707        2.3339492541       -2.4815024880
	 H          -0.9817676049        2.3332047020        0.8237116664
	 C           3.8511729649        0.9667021614       -0.8291788697
	 H           1.3248925841       -1.7792059700       -2.4779044494
	 H           1.3248623485       -1.7799183968        0.8184884634
	 C           6.2116601131       -0.7022964003       -0.8306698636
	 H           3.8947802851        2.2008841885       -2.4744481403
	 H           3.8955191680        2.1990568233        0.8174358859
	 C           8.6653976870        0.8199139045       -0.8329564322
	 H           6.1707343142       -1.9345490170       -2.4752720609
	 H           6.1733364671       -1.9338101341        0.8145427152
	 H           8.7888761720        2.0245009307       -2.4905542761
	 H          10.3036976477       -0.4143985137       -0.8343208145
	 H           8.7918071372        2.0247314773        0.8242483486
	             0.0047525571        0.0014906313       -0.0032045127
	             0.0011705003       -0.0001940255       -0.0004874909
	            -0.0004216666        0.0000629053       -0.0002093920
	             0.0031558160       -0.0055152590        0.0029016898
	            -0.0001073336       -0.0001030604       -0.0000320211
	            -0.0001292993       -0.0000755158        0.0000271241
	             0.0000289458       -0.0000347734       -0.0000417263
	            -0.0056477415        0.0006389486       -0.0069389599
	            -0.0040862460       -0.0027217616        0.0019784875
	             0.0032891059        0.0034031830        0.0029752483
	            -0.0014083435        0.0025587169        0.0033190425
	            -0.0005565430        0.0009417191       -0.0002588705
	            -0.0001434498        0.0002617404        0.0000149065
	             0.0002982157       -0.0005177812       -0.0004392045
	            -0.0002051555       -0.0002859367        0.0001193058
	            -0.0000422156       -0.0000569030        0.0002471592
	             0.0001415936        0.0001094096        0.0000044136
	            -0.0000608560        0.0000992028       -0.0000630297
	            -0.0000130748        0.0000256200        0.0000456165
	             0.0000395631       -0.0000610470       -0.0000075066
	            -0.0000104499       -0.0000205703        0.0000441863
	            -0.0000550914       -0.0000177743        0.0000017858
	             0.0000111689        0.0000123311        0.0000037484

	Previous optimization step data not found.  Starting new optimization.

	---Fragment 1 Intrafragment Coordinates---
	 - Coordinate -           - BOHR/RAD -       - ANG/DEG -
	 R(1,2)           =         2.247594	       1.189376
	 R(2,3)           =         2.847955	       1.507073
	 R(2,4)           =         2.499896	       1.322888
	 R(3,5)           =         2.047422	       1.083449
	 R(3,6)           =         2.040938	       1.080018
	 R(3,7)           =         2.047437	       1.083457
	 R(4,8)           =         2.691110	       1.424074
	 R(8,9)           =         2.866941	       1.517120
	 R(8,10)          =         2.044721	       1.082020
	 R(8,11)          =         2.044719	       1.082019
	 R(9,12)          =         2.891015	       1.529860
	 R(9,13)          =         2.053150	       1.086480
	 R(9,14)          =         2.053169	       1.086490
	 R(12,15)         =         2.890927	       1.529813
	 R(12,16)         =         2.057187	       1.088616
	 R(12,17)         =         2.057184	       1.088615
	 R(15,18)         =         2.887552	       1.528027
	 R(15,19)         =         2.055441	       1.087693
	 R(15,20)         =         2.055437	       1.087690
	 R(18,21)         =         2.052780	       1.086285
	 R(18,22)         =         2.051233	       1.085466
	 R(18,23)         =         2.052777	       1.086283
	 B(1,2,3)         =         2.161784	     123.861127
	 B(1,2,4)         =         2.157376	     123.608525
	 B(2,3,5)         =         1.897713	     108.730939
	 B(2,3,6)         =         1.953154	     111.907464
	 B(2,3,7)         =         1.897690	     108.729646
	 B(2,4,8)         =         2.050244	     117.470340
	 B(3,2,4)         =         1.964025	     112.530347
	 B(4,8,9)         =         1.878161	     107.610695
	 B(4,8,10)        =         1.901863	     108.968737
	 B(4,8,11)        =         1.901948	     108.973595
	 B(5,3,6)         =         1.917789	     109.881231
	 B(5,3,7)         =         1.878059	     107.604860
	 B(6,3,7)         =         1.917722	     109.877373
	 B(8,9,12)        =         1.956739	     112.112899
	 B(8,9,13)        =         1.899874	     108.854747
	 B(8,9,14)        =         1.899901	     108.856289
	 B(9,8,10)        =         1.949395	     111.692091
	 B(9,8,11)        =         1.949418	     111.693406
	 B(9,12,15)       =         1.970926	     112.925759
	 B(9,12,16)       =         1.911533	     109.522789
	 B(9,12,17)       =         1.911523	     109.522193
	 B(10,8,11)       =         1.882285	     107.846974
	 B(12,9,13)       =         1.920468	     110.034696
	 B(12,9,14)       =         1.920509	     110.037081
	 B(12,15,18)      =         1.970888	     112.923560
	 B(12,15,19)      =         1.907380	     109.284837
	 B(12,15,20)      =         1.907382	     109.284923
	 B(13,9,14)       =         1.863823	     106.789169
	 B(15,12,16)      =         1.905656	     109.186048
	 B(15,12,17)      =         1.905677	     109.187244
	 B(15,18,21)      =         1.940241	     111.167608
	 B(15,18,22)      =         1.940654	     111.191294
	 B(15,18,23)      =         1.940235	     111.167266
	 B(16,12,17)      =         1.854905	     106.278225
	 B(18,15,19)      =         1.909563	     109.409906
	 B(18,15,20)      =         1.909566	     109.410080
	 B(19,15,20)      =         1.855494	     106.311969
	 B(21,18,22)      =         1.880238	     107.729698
	 B(21,18,23)      =         1.879445	     107.684268
	 B(22,18,23)      =         1.880240	     107.729809
	 D(1,2,3,5)       =         1.018946	      58.381304
	 D(1,2,3,6)       =         3.140580	     179.941959
	 D(1,2,3,7)       =        -1.021072	     -58.503111
	 D(1,2,4,8)       =         0.000291	       0.016653
	 D(2,4,8,9)       =         2.072120	     118.723730
	*D(2,4,8,10)      =        -2.094396	    -120.000025
	 D(2,4,8,11)      =        -0.044627	      -2.556920
	 D(3,2,4,8)       =        -3.141478	    -179.993426
	 D(4,2,3,5)       =        -2.122470	    -121.608587
	 D(4,2,3,6)       =        -0.000837	      -0.047932
	 D(4,2,3,7)       =         2.120697	     121.506997
	 D(4,8,9,12)      =         3.141468	     179.992830
	 D(4,8,9,13)      =         1.012645	      58.020267
	 D(4,8,9,14)      =        -1.012824	     -58.030527
	 D(8,9,12,15)     =        -3.141141	    -179.974143
	 D(8,9,12,16)     =        -1.013454	     -58.066610
	 D(8,9,12,17)     =         1.014337	      58.117220
	 D(9,12,15,18)    =         3.140629	     179.944801
	 D(9,12,15,19)    =         1.010947	      57.923003
	 D(9,12,15,20)    =        -1.012869	     -58.033118
	 D(10,8,9,12)     =         1.054798	      60.435498
	 D(10,8,9,13)     =        -1.074024	     -61.537065
	 D(10,8,9,14)     =        -3.099493	    -177.587859
	 D(11,8,9,12)     =        -1.054931	     -60.443097
	 D(11,8,9,13)     =         3.099431	     177.584339
	 D(11,8,9,14)     =         1.073963	      61.533545
	 D(12,15,18,21)   =        -1.046588	     -59.965057
	 D(12,15,18,22)   =        -3.141411	    -179.989613
	 D(12,15,18,23)   =         1.046952	      59.985922
	 D(13,9,12,15)    =        -1.024121	     -58.677795
	 D(13,9,12,16)    =         1.103567	      63.229738
	 D(13,9,12,17)    =         3.131357	     179.413568
	 D(14,9,12,15)    =         1.024960	      58.725885
	 D(14,9,12,16)    =        -3.130537	    -179.366582
	 D(14,9,12,17)    =        -1.102747	     -63.182753
	 D(16,12,15,18)   =         1.009638	      57.847989
	 D(16,12,15,19)   =        -1.120044	     -64.173808
	 D(16,12,15,20)   =         3.139325	     179.870071
	 D(17,12,15,18)   =        -1.011563	     -57.958292
	 D(17,12,15,19)   =        -3.141245	    -179.980089
	 D(17,12,15,20)   =         1.118124	      64.063789
	 D(19,15,18,21)   =         1.081867	      61.986426
	 D(19,15,18,22)   =        -1.012956	     -58.038130
	 D(19,15,18,23)   =        -3.107779	    -178.062596
	 D(20,15,18,21)   =         3.108139	     178.083226
	 D(20,15,18,22)   =         1.013315	      58.058670
	 D(20,15,18,23)   =        -1.081507	     -61.965796

	Current energy   :      -422.9766645384

	Generating empirical Hessian (Schlegel '84) for each fragment.
	Taking RFO optimization step.
	Going to follow RFO solution 1.
	Using RFO vector 1.
	Norm of target step-size    0.17053
	Projected energy change by RFO approximation:        -0.0037074100

	Back-transformation to cartesian coordinates...
	Successfully converged to displaced geometry.

	Back-transformation to cartesian coordinates to adjust frozen coordinates...
	Successfully converged to displaced geometry.

	--- Internal Coordinate Step in ANG or DEG, aJ/ANG or AJ/DEG ---
	 ---------------------------------------------------------------------------
	   Coordinate                Previous        Force       Change         New 
	   ----------                --------       ------       ------       ------
	    1 R(1,2)          =      1.189376     0.007091     0.000411     1.189787
	    2 R(2,3)          =      1.507073    -0.004968    -0.000998     1.506075
	    3 R(2,4)          =      1.322888     0.051871     0.005412     1.328301
	    4 R(3,5)          =      1.083449    -0.000286    -0.000051     1.083398
	    5 R(3,6)          =      1.080018    -0.000111    -0.000020     1.079998
	    6 R(3,7)          =      1.083457     0.000102     0.000018     1.083475
	    7 R(4,8)          =      1.424074     0.034774     0.005294     1.429368
	    8 R(8,9)          =      1.517120     0.020355     0.004220     1.521340
	    9 R(8,10)         =      1.082020     0.004092     0.000728     1.082748
	   10 R(8,11)         =      1.082019    -0.034834    -0.006199     1.075820
	   11 R(9,12)         =      1.529860     0.002018     0.000435     1.530295
	   12 R(9,13)         =      1.086480     0.001342     0.000242     1.086723
	   13 R(9,14)         =      1.086490     0.000447     0.000081     1.086571
	   14 R(12,15)        =      1.529813     0.000797     0.000172     1.529985
	   15 R(12,16)        =      1.088616     0.001917     0.000349     1.088965
	   16 R(12,17)        =      1.088615    -0.000594    -0.000108     1.088507
	   17 R(15,18)        =      1.528027     0.000489     0.000105     1.528132
	   18 R(15,19)        =      1.087693     0.000425     0.000077     1.087770
	   19 R(15,20)        =      1.087690    -0.000246    -0.000045     1.087646
	   20 R(18,21)        =      1.086285     0.000399     0.000072     1.086357
	   21 R(18,22)        =      1.085466     0.000274     0.000049     1.085515
	   22 R(18,23)        =      1.086283    -0.000090    -0.000016     1.086266
	   23 B(1,2,3)        =    123.861127    -0.000335    -0.999684   122.861443
	   24 B(1,2,4)        =    123.608525     0.000667     1.977209   125.585734
	   25 B(2,3,5)        =    108.730939    -0.000015    -0.075838   108.655101
	   26 B(2,3,6)        =    111.907464    -0.000013    -0.059835   111.847629
	   27 B(2,3,7)        =    108.729646     0.000005     0.029121   108.758767
	   28 B(2,4,8)        =    117.470340     0.001435     4.265699   121.736039
	   29 B(3,2,4)        =    112.530347    -0.000332    -0.989107   111.541241
	   30 B(4,8,9)        =    107.610695     0.000681     2.204718   109.815413
	   31 B(4,8,10)       =    108.968737    -0.000520    -3.695418   105.273319
	   32 B(4,8,11)       =    108.973595    -0.000046     1.247066   110.220661
	   33 B(5,3,6)        =    109.881231     0.000012     0.043421   109.924652
	   34 B(5,3,7)        =    107.604860     0.000004     0.013120   107.617980
	   35 B(6,3,7)        =    109.877373     0.000008     0.051324   109.928698
	   36 B(8,9,12)       =    112.112899     0.000118     0.407667   112.520566
	   37 B(8,9,13)       =    108.854747    -0.000012     0.140486   108.995233
	   38 B(8,9,14)       =    108.856289    -0.000072    -0.448633   108.407656
	   39 B(9,8,10)       =    111.692091    -0.000122    -0.910975   110.781116
	   40 B(9,8,11)       =    111.693406    -0.000195     0.173960   111.867366
	   41 B(9,12,15)      =    112.925759     0.000046     0.158344   113.084104
	   42 B(9,12,16)      =    109.522789    -0.000011    -0.036980   109.485808
	   43 B(9,12,17)      =    109.522193    -0.000023    -0.097796   109.424397
	   44 B(10,8,11)      =    107.846974     0.000185     0.826582   108.673556
	   45 B(12,9,13)      =    110.034696    -0.000047    -0.066455   109.968241
	   46 B(12,9,14)      =    110.037081    -0.000019    -0.112736   109.924345
	   47 B(12,15,18)     =    112.923560     0.000015     0.051125   112.974685
	   48 B(12,15,19)     =    109.284837    -0.000003     0.009764   109.294601
	   49 B(12,15,20)     =    109.284923    -0.000008    -0.051418   109.233504
	   50 B(13,9,14)      =    106.789169     0.000028     0.060559   106.849728
	   51 B(15,12,16)     =    109.186048    -0.000019    -0.075110   109.110939
	   52 B(15,12,17)     =    109.187244    -0.000006     0.018428   109.205672
	   53 B(15,18,21)     =    111.167608    -0.000000    -0.002783   111.164825
	   54 B(15,18,22)     =    111.191294     0.000005     0.027099   111.218393
	   55 B(15,18,23)     =    111.167266    -0.000002    -0.011843   111.155423
	   56 B(16,12,17)     =    106.278225     0.000011     0.025438   106.303663
	   57 B(18,15,19)     =    109.409906    -0.000005    -0.001118   109.408788
	   58 B(18,15,20)     =    109.410080    -0.000003    -0.018633   109.391446
	   59 B(19,15,20)     =    106.311969     0.000003     0.007686   106.319655
	   60 B(21,18,22)     =    107.729698    -0.000002    -0.008438   107.721261
	   61 B(21,18,23)     =    107.684268     0.000001    -0.000137   107.684131
	   62 B(22,18,23)     =    107.729809    -0.000001    -0.004674   107.725135
	   63 D(1,2,3,5)      =     58.381304     0.000002     0.702925    59.084229
	   64 D(1,2,3,6)      =    179.941959     0.000001     0.667439   180.609398
	   65 D(1,2,3,7)      =    -58.503111     0.000003     0.713098   -57.790013
	   66 D(1,2,4,8)      =      0.016653     0.000002     0.103541     0.120194
	   67 D(2,4,8,9)      =    118.723730     0.000010     1.979671   120.703401
	   68 *D(2,4,8,10)    =   -120.000025    -0.000000    -0.000000  -120.000025
	   69 D(2,4,8,11)     =     -2.556920    -0.000023    -0.424566    -2.981486
	   70 D(3,2,4,8)      =   -179.993426     0.000006     1.327612  -178.665813
	   71 D(4,2,3,5)      =   -121.608587    -0.000001    -0.482525  -122.091113
	   72 D(4,2,3,6)      =     -0.047932    -0.000002    -0.518011    -0.565944
	   73 D(4,2,3,7)      =    121.506997    -0.000001    -0.472352   121.034645
	   74 D(4,8,9,12)     =    179.992830    -0.000043    -3.435948   176.556882
	   75 D(4,8,9,13)     =     58.020267    -0.000045    -3.720067    54.300200
	   76 D(4,8,9,14)     =    -58.030527    -0.000042    -3.623289   -61.653817
	   77 D(8,9,12,15)    =   -179.974143    -0.000004    -0.155254  -180.129397
	   78 D(8,9,12,16)    =    -58.066610    -0.000004    -0.170316   -58.236926
	   79 D(8,9,12,17)    =     58.117220    -0.000005    -0.216288    57.900932
	   80 D(9,12,15,18)   =    179.944801     0.000001     0.059306   180.004107
	   81 D(9,12,15,19)   =     57.923003     0.000000     0.019062    57.942066
	   82 D(9,12,15,20)   =    -58.033118     0.000001     0.033156   -57.999963
	   83 D(10,8,9,12)    =     60.435498     0.000020     0.258059    60.693557
	   84 D(10,8,9,13)    =    -61.537065     0.000018    -0.026060   -61.563125
	   85 D(10,8,9,14)    =   -177.587859     0.000021     0.070718  -177.517141
	   86 D(11,8,9,12)    =    -60.443097     0.000017    -0.283333   -60.726431
	   87 D(11,8,9,13)    =    177.584339     0.000015    -0.567452   177.016887
	   88 D(11,8,9,14)    =     61.533545     0.000018    -0.470674    61.062871
	   89 D(12,15,18,21)  =    -59.965057    -0.000000    -0.045985   -60.011042
	   90 D(12,15,18,22)  =   -179.989613    -0.000000    -0.051634  -180.041246
	   91 D(12,15,18,23)  =     59.985922    -0.000001    -0.055955    59.929966
	   92 D(13,9,12,15)   =    -58.677795     0.000004     0.253812   -58.423983
	   93 D(13,9,12,16)   =     63.229738     0.000003     0.238749    63.468487
	   94 D(13,9,12,17)   =    179.413568     0.000002     0.192778   179.606346
	   95 D(14,9,12,15)   =     58.725885     0.000002     0.220543    58.946428
	   96 D(14,9,12,16)   =   -179.366582     0.000002     0.205481  -179.161102
	   97 D(14,9,12,17)   =    -63.182753     0.000001     0.159509   -63.023244
	   98 D(16,12,15,18)  =     57.847989    -0.000000     0.053557    57.901546
	   99 D(16,12,15,19)  =    -64.173808    -0.000001     0.013313   -64.160495
	  100 D(16,12,15,20)  =    179.870071    -0.000000     0.027407   179.897477
	  101 D(17,12,15,18)  =    -57.958292     0.000000     0.054605   -57.903686
	  102 D(17,12,15,19)  =   -179.980089    -0.000000     0.014362  -179.965727
	  103 D(17,12,15,20)  =     64.063789     0.000000     0.028455    64.092244
	  104 D(19,15,18,21)  =     61.986426     0.000000     0.000469    61.986895
	  105 D(19,15,18,22)  =    -58.038130     0.000000    -0.005180   -58.043310
	  106 D(19,15,18,23)  =   -178.062596     0.000000    -0.009502  -178.072097
	  107 D(20,15,18,21)  =    178.083226     0.000000    -0.001454   178.081771
	  108 D(20,15,18,22)  =     58.058670     0.000000    -0.007103    58.051567
	  109 D(20,15,18,23)  =    -61.965796     0.000000    -0.011425   -61.977221
	 ---------------------------------------------------------------------------

  ==> Convergence Check <==

  Measures of convergence in internal coordinates in au.
  Criteria marked as inactive (o), active & met (*), and active & unmet ( ).
  --------------------------------------------------------------------------------------------- ~
   Step     Total Energy     Delta E     MAX Force     RMS Force      MAX Disp      RMS Disp    ~
  --------------------------------------------------------------------------------------------- ~
    Convergence Criteria    1.00e-06 *    3.00e-04 *             o    1.20e-03 *             o  ~
  --------------------------------------------------------------------------------------------- ~
      1    -422.97666454   -4.23e+02      1.89e-02      2.59e-03 o    7.45e-02      1.63e-02 o  ~
  ---------------------------------------------------------------------------------------------

	Writing optimization data to binary file.
	Structure for next step:
	Cartesian Geometry (in Angstrom)
	    O    -2.4843884912   0.5749296524   1.5774431527
	    C    -2.5479337533  -0.1340286430   0.6240628571
	    C    -3.6798983022  -1.1016927780   0.3992394168
	    O    -1.6473237282  -0.2021844814  -0.3499180533
	    H    -4.6093867863  -0.5460751475   0.3661930038
	    H    -3.5536358587  -1.6625021751  -0.5150620282
	    H    -3.7323921093  -1.7787340929   1.2435012655
	    C    -0.4666952818   0.6034891456  -0.3399771146
	    C     0.7660773661  -0.2878645337  -0.3552803359
	    H    -0.5207629871   1.1998698242  -1.2420584958
	    H    -0.4737523423   1.2630401090   0.5099231090
	    C     2.0677344568   0.5132787912  -0.4305184917
	    H     0.6999230041  -0.9685737544  -1.1998066776
	    H     0.7588049196  -0.8989630911   0.5431304937
	    C     3.3163683242  -0.3708019855  -0.4434714631
	    H     2.0610569478   1.1339574874  -1.3252578945
	    H     2.1215945088   1.1966426067   0.4150345074
	    C     4.6146556692   0.4316952348  -0.5185367134
	    H     3.2643214827  -1.0539535050  -1.2883608548
	    H     3.3259755005  -0.9903857031   0.4503947582
	    H     4.6501336800   1.0368690462  -1.4200225464
	    H     5.4809741319  -0.2223606326  -0.5253392703
	    H     4.7118687920   1.1004888164   0.3318982362
			--------------------------
			 OPTKING Finished Execution 
			--------------------------

    Structure for next step:
    Molecular point group: c1
    Full point group: C1

    Geometry (in Angstrom), charge = 0, multiplicity = 1:

    O           -2.461736668414     0.570233716868     1.553031406379
    C           -2.525281925632    -0.138724524451     0.599651183587
    C           -3.657246388087    -1.106388585563     0.374827760464
    O           -1.624671969329    -0.206880357661    -0.374329652450
    H           -4.586734801224    -0.550770997404     0.341781350033
    H           -3.530983954208    -1.667197939764    -0.539473614669
    H           -3.709740191186    -1.783429848748     1.219089544695
    C           -0.444043613106     0.598793207834    -0.364388714425
    C            0.788728940648    -0.292560403344    -0.379691934578
    H           -0.498111314198     1.195173840884    -1.266470026786
    H           -0.451100673058     1.258344120900     0.485511444201
    C            2.090385932004     0.508582860380    -0.454930084633
    H            0.722574583731    -0.973269572092    -1.224218211804
    H            0.781456494796    -0.903658914069     0.518718826384
    C            3.339019704041    -0.375497848841    -0.467883055061
    H            2.083708423507     1.129261509175    -1.349669419150
    H            2.144245979912     1.191946623692     0.390622849893
    C            4.637306949950     0.426999310136    -0.542948299654
    H            3.286972866549    -1.058649316126    -1.312772382258
    H            3.348626879624    -0.995081519134     0.425983097931
    H            4.672784958040     1.032173075329    -1.444434063831
    H            5.503625346413    -0.227056507258    -0.549750855984
    H            4.734520065233     1.095792840730     0.307486585020

gradient() will perform analytic gradient computation.

*** tstart() called on cx1-1-3-3.cx1.hpc.ic.ac.uk
*** at Fri Sep  2 13:11:28 2016


         ---------------------------------------------------------
                                   SCF
            by Justin Turney, Rob Parrish, and Andy Simmonett
                              RHF Reference
                        4 Threads,   2000 MiB Core
         ---------------------------------------------------------

  ==> Geometry <==

    Molecular point group: c1
    Full point group: C1

    Geometry (in Angstrom), charge = 0, multiplicity = 1:

       Center              X                  Y                   Z               Mass       
    ------------   -----------------  -----------------  -----------------  -----------------
           O         -2.461736668414     0.570233716868     1.553031406379    15.994914619560
           C         -2.525281925632    -0.138724524451     0.599651183587    12.000000000000
           C         -3.657246388087    -1.106388585563     0.374827760464    12.000000000000
           O         -1.624671969329    -0.206880357661    -0.374329652450    15.994914619560
           H         -4.586734801224    -0.550770997404     0.341781350033     1.007825032070
           H         -3.530983954208    -1.667197939764    -0.539473614669     1.007825032070
           H         -3.709740191186    -1.783429848748     1.219089544695     1.007825032070
           C         -0.444043613106     0.598793207834    -0.364388714425    12.000000000000
           C          0.788728940648    -0.292560403344    -0.379691934578    12.000000000000
           H         -0.498111314198     1.195173840884    -1.266470026786     1.007825032070
           H         -0.451100673058     1.258344120900     0.485511444201     1.007825032070
           C          2.090385932004     0.508582860380    -0.454930084633    12.000000000000
           H          0.722574583731    -0.973269572092    -1.224218211804     1.007825032070
           H          0.781456494796    -0.903658914069     0.518718826384     1.007825032070
           C          3.339019704041    -0.375497848841    -0.467883055061    12.000000000000
           H          2.083708423507     1.129261509175    -1.349669419150     1.007825032070
           H          2.144245979912     1.191946623692     0.390622849893     1.007825032070
           C          4.637306949950     0.426999310136    -0.542948299654    12.000000000000
           H          3.286972866549    -1.058649316126    -1.312772382258     1.007825032070
           H          3.348626879624    -0.995081519134     0.425983097931     1.007825032070
           H          4.672784958040     1.032173075329    -1.444434063831     1.007825032070
           H          5.503625346413    -0.227056507258    -0.549750855984     1.007825032070
           H          4.734520065233     1.095792840730     0.307486585020     1.007825032070

  Running in c1 symmetry.

  Rotational constants: A =      0.19122  B =      0.01606  C =      0.01563 [cm^-1]
  Rotational constants: A =   5732.66127  B =    481.45528  C =    468.72461 [MHz]
  Nuclear repulsion =  450.155747755326104

  Charge       = 0
  Multiplicity = 1
  Electrons    = 72
  Nalpha       = 36
  Nbeta        = 36

  ==> Algorithm <==

  SCF Algorithm Type is DF.
  DIIS enabled.
  MOM disabled.
  Fractional occupation disabled.
  Guess Type is READ.
  Energy threshold   = 1.00e-08
  Density threshold  = 1.00e-08
  Integral threshold = 0.00e+00

  ==> Primary Basis <==

  Basis Set: 6-31G*
    Number of shells: 82
    Number of basis function: 163
    Number of Cartesian functions: 163
    Spherical Harmonics?: false
    Max angular momentum: 2

  ==> Pre-Iterations <==

   -------------------------------------------------------
    Irrep   Nso     Nmo     Nalpha   Nbeta   Ndocc  Nsocc
   -------------------------------------------------------
     A        163     163       0       0       0       0
   -------------------------------------------------------
    Total     163     163      36      36      36       0
   -------------------------------------------------------

 OEINTS: Overlap, kinetic, potential, dipole, and quadrupole integrals
         stored in file 35.

  ==> Integral Setup <==

  ==> DFJK: Density-Fitted J/K Matrices <==

    J tasked:                  Yes
    K tasked:                  Yes
    wK tasked:                  No
    OpenMP threads:              4
    Integrals threads:           4
    Memory (MB):              1430
    Algorithm:                Core
    Integral Cache:           NONE
    Schwarz Cutoff:          1E-12
    Fitting Condition:       1E-12

   => Auxiliary Basis Set <=

  Basis Set: 
    Number of shells: 342
    Number of basis function: 1079
    Number of Cartesian functions: 1079
    Spherical Harmonics?: false
    Max angular momentum: 3

  Minimum eigenvalue in the overlap matrix is 3.1584932019E-03.
  Using Symmetric Orthogonalization.
  SCF Guess: Reading in previously saved MOs, projecting if necessary.

  Using orbitals from previous SCF, no projection.
  Recomputing DOCC and SOCC from number of alpha and beta electrons from previous calculation.
              A 
    DOCC [    36 ]

  ==> Iterations <==

                           Total Energy        Delta E     RMS |[F,P]|

   @DF-RHF iter   0:  -422.95034978361690   -4.22950e+02   1.65225e-03 
   @DF-RHF iter   1:  -422.97586207347211   -2.55123e-02   2.32556e-04 
   @DF-RHF iter   2:  -422.97694262411659   -1.08055e-03   8.13868e-05 DIIS
   @DF-RHF iter   3:  -422.97706651295738   -1.23889e-04   4.08365e-05 DIIS
   @DF-RHF iter   4:  -422.97709118825077   -2.46753e-05   9.11668e-06 DIIS
   @DF-RHF iter   5:  -422.97709277975088   -1.59150e-06   3.68083e-06 DIIS
   @DF-RHF iter   6:  -422.97709336492420   -5.85173e-07   1.28664e-06 DIIS
   @DF-RHF iter   7:  -422.97709345972561   -9.48014e-08   5.79677e-07 DIIS
   @DF-RHF iter   8:  -422.97709347919175   -1.94661e-08   2.16960e-07 DIIS
   @DF-RHF iter   9:  -422.97709348145014   -2.25839e-09   7.01273e-08 DIIS
   @DF-RHF iter  10:  -422.97709348164238   -1.92244e-10   2.00488e-08 DIIS
   @DF-RHF iter  11:  -422.97709348165534   -1.29603e-11   5.47519e-09 DIIS

  ==> Post-Iterations <==

    Orbital Energies (a.u.)
    -----------------------

    Doubly Occupied:                                                      

       1A    -20.602061     2A    -20.540459     3A    -11.376155  
       4A    -11.282588     5A    -11.230370     6A    -11.225261  
       7A    -11.224583     8A    -11.222098     9A    -11.213245  
      10A     -1.461275    11A     -1.361436    12A     -1.093935  
      13A     -1.042014    14A     -1.002611    15A     -0.932678  
      16A     -0.847720    17A     -0.801221    18A     -0.771214  
      19A     -0.696017    20A     -0.678235    21A     -0.658555  
      22A     -0.648721    23A     -0.606437    24A     -0.588550  
      25A     -0.585593    26A     -0.571661    27A     -0.552009  
      28A     -0.538428    29A     -0.523069    30A     -0.507586  
      31A     -0.489454    32A     -0.479460    33A     -0.474657  
      34A     -0.471204    35A     -0.439972    36A     -0.434542  

    Virtual:                                                              

      37A      0.198546    38A      0.224354    39A      0.252767  
      40A      0.257620    41A      0.266391    42A      0.274756  
      43A      0.303574    44A      0.306987    45A      0.318013  
      46A      0.323010    47A      0.329307    48A      0.338354  
      49A      0.341067    50A      0.350111    51A      0.357149  
      52A      0.359935    53A      0.393112    54A      0.409272  
      55A      0.427331    56A      0.461446    57A      0.473113  
      58A      0.500914    59A      0.567040    60A      0.678460  
      61A      0.703345    62A      0.737484    63A      0.743375  
      64A      0.748955    65A      0.754168    66A      0.782245  
      67A      0.786031    68A      0.807662    69A      0.826962  
      70A      0.850789    71A      0.862900    72A      0.922176  
      73A      0.937487    74A      0.959687    75A      0.969818  
      76A      0.992955    77A      1.008870    78A      1.033764  
      79A      1.068188    80A      1.080177    81A      1.110841  
      82A      1.115295    83A      1.135769    84A      1.143807  
      85A      1.159674    86A      1.175070    87A      1.184530  
      88A      1.196973    89A      1.201976    90A      1.206782  
      91A      1.208879    92A      1.215465    93A      1.218841  
      94A      1.224784    95A      1.248006    96A      1.262441  
      97A      1.301615    98A      1.322292    99A      1.361711  
     100A      1.405308   101A      1.441922   102A      1.519578  
     103A      1.564925   104A      1.608819   105A      1.664296  
     106A      1.673439   107A      1.706102   108A      1.749569  
     109A      1.775274   110A      1.815709   111A      1.831250  
     112A      1.858350   113A      1.936151   114A      1.978715  
     115A      2.051843   116A      2.085029   117A      2.095944  
     118A      2.107088   119A      2.123033   120A      2.165264  
     121A      2.193775   122A      2.221274   123A      2.226782  
     124A      2.248175   125A      2.274711   126A      2.287119  
     127A      2.308652   128A      2.331350   129A      2.374117  
     130A      2.386581   131A      2.442784   132A      2.469512  
     133A      2.525963   134A      2.567317   135A      2.579287  
     136A      2.584345   137A      2.634613   138A      2.649489  
     139A      2.668947   140A      2.738871   141A      2.753268  
     142A      2.763534   143A      2.793714   144A      2.806526  
     145A      2.921752   146A      2.939201   147A      2.998444  
     148A      3.074945   149A      3.095801   150A      3.161030  
     151A      3.200548   152A      3.353498   153A      3.420802  
     154A      3.567337   155A      4.428969   156A      4.546849  
     157A      4.551917   158A      4.629543   159A      4.689187  
     160A      4.759229   161A      4.841866   162A      4.922957  
     163A      4.993303  

    Final Occupation by Irrep:
              A 
    DOCC [    36 ]

  Energy converged.

  @DF-RHF Final Energy:  -422.97709348165534

   => Energetics <=

    Nuclear Repulsion Energy =            450.1557477553261037
    One-Electron Energy =               -1467.9155343265506417
    Two-Electron Energy =                 594.7826930895691930
    DFT Exchange-Correlation Energy =       0.0000000000000000
    Empirical Dispersion Energy =           0.0000000000000000
    PCM Polarization Energy =               0.0000000000000000
    EFP Energy =                            0.0000000000000000
    Total Energy =                       -422.9770934816554018

    Alert: EFP and PCM quantities not currently incorporated into SCF psivars.

Properties will be evaluated at   0.000000,   0.000000,   0.000000 Bohr
  ==> Properties <==


Properties computed using the SCF density matrix

  Nuclear Dipole Moment: (a.u.)
     X:    13.5754      Y:    -1.1761      Z:    -3.7420

  Electronic Dipole Moment: (a.u.)
     X:   -13.2295      Y:     0.7762      Z:     3.0446

  Dipole Moment: (a.u.)
     X:     0.3459      Y:    -0.4000      Z:    -0.6974     Total:     0.8752

  Dipole Moment: (Debye)
     X:     0.8793      Y:    -1.0166      Z:    -1.7726     Total:     2.2246


  Saving occupied orbitals to File 180.

*** tstop() called on cx1-1-3-3.cx1.hpc.ic.ac.uk at Fri Sep  2 13:11:37 2016
Module time:
	user time   =      26.61 seconds =       0.44 minutes
	system time =       0.35 seconds =       0.01 minutes
	total time  =          9 seconds =       0.15 minutes
Total time:
	user time   =      96.32 seconds =       1.61 minutes
	system time =       1.13 seconds =       0.02 minutes
	total time  =         31 seconds =       0.52 minutes

*** tstart() called on cx1-1-3-3.cx1.hpc.ic.ac.uk
*** at Fri Sep  2 13:11:37 2016


         ------------------------------------------------------------
                                   SCF GRAD                          
                          Rob Parrish, Justin Turney,                
                       Andy Simmonett, and Alex Sokolov              
         ------------------------------------------------------------

  ==> Geometry <==

    Molecular point group: c1
    Full point group: C1

    Geometry (in Angstrom), charge = 0, multiplicity = 1:

       Center              X                  Y                   Z               Mass       
    ------------   -----------------  -----------------  -----------------  -----------------
           O         -2.461736668414     0.570233716868     1.553031406379    15.994914619560
           C         -2.525281925632    -0.138724524451     0.599651183587    12.000000000000
           C         -3.657246388087    -1.106388585563     0.374827760464    12.000000000000
           O         -1.624671969329    -0.206880357661    -0.374329652450    15.994914619560
           H         -4.586734801224    -0.550770997404     0.341781350033     1.007825032070
           H         -3.530983954208    -1.667197939764    -0.539473614669     1.007825032070
           H         -3.709740191186    -1.783429848748     1.219089544695     1.007825032070
           C         -0.444043613106     0.598793207834    -0.364388714425    12.000000000000
           C          0.788728940648    -0.292560403344    -0.379691934578    12.000000000000
           H         -0.498111314198     1.195173840884    -1.266470026786     1.007825032070
           H         -0.451100673058     1.258344120900     0.485511444201     1.007825032070
           C          2.090385932004     0.508582860380    -0.454930084633    12.000000000000
           H          0.722574583731    -0.973269572092    -1.224218211804     1.007825032070
           H          0.781456494796    -0.903658914069     0.518718826384     1.007825032070
           C          3.339019704041    -0.375497848841    -0.467883055061    12.000000000000
           H          2.083708423507     1.129261509175    -1.349669419150     1.007825032070
           H          2.144245979912     1.191946623692     0.390622849893     1.007825032070
           C          4.637306949950     0.426999310136    -0.542948299654    12.000000000000
           H          3.286972866549    -1.058649316126    -1.312772382258     1.007825032070
           H          3.348626879624    -0.995081519134     0.425983097931     1.007825032070
           H          4.672784958040     1.032173075329    -1.444434063831     1.007825032070
           H          5.503625346413    -0.227056507258    -0.549750855984     1.007825032070
           H          4.734520065233     1.095792840730     0.307486585020     1.007825032070

  Nuclear repulsion =  450.155747755326217

  ==> Basis Set <==

  Basis Set: 6-31G*
    Number of shells: 82
    Number of basis function: 163
    Number of Cartesian functions: 163
    Spherical Harmonics?: false
    Max angular momentum: 2

  ==> DFJKGrad: Density-Fitted SCF Gradients <==

    Gradient:                    1
    J tasked:                  Yes
    K tasked:                  Yes
    wK tasked:                  No
    OpenMP threads:              4
    Integrals threads:           4
    Memory (MB):              1430
    Schwarz Cutoff:          0E+00
    Fitting Condition:       1E-12

   => Auxiliary Basis Set <=

  Basis Set: 
    Number of shells: 342
    Number of basis function: 1079
    Number of Cartesian functions: 1079
    Spherical Harmonics?: false
    Max angular momentum: 3


  -Total Gradient:
     Atom            X                  Y                   Z
    ------   -----------------  -----------------  -----------------
       1       -0.004433247867    -0.001490287335     0.004817306014
       2       -0.002870495008     0.002524429840    -0.002005994786
       3        0.001230761739     0.000043734893     0.001857583108
       4       -0.000248751921    -0.000585618306    -0.003144428453
       5        0.000266607901     0.000205369134    -0.000029364142
       6        0.000419848614     0.000150894558    -0.000122945607
       7       -0.000244229583    -0.000231694647    -0.000062681936
       8        0.002921824423    -0.000403062630     0.003623730065
       9        0.001616055749     0.001515808459    -0.001231876048
      10       -0.001279756165    -0.000904643211    -0.000404744254
      11        0.001406903993    -0.000147827983    -0.002841135638
      12        0.000798157418    -0.001154437966     0.000087877759
      13        0.000414238457    -0.000264565161    -0.000163689427
      14       -0.000481548330     0.000487104956    -0.000165111774
      15        0.000301227372     0.000525610052    -0.000178452532
      16        0.000061332436    -0.000007024352    -0.000072396031
      17       -0.000148957679    -0.000080578744     0.000008393462
      18        0.000172852976    -0.000237168485     0.000025911056
      19        0.000024426968    -0.000031659977    -0.000023841929
      20       -0.000031287126     0.000028648584     0.000033377860
      21       -0.000018135633     0.000004973781    -0.000011502897
      22        0.000133303914     0.000043561308    -0.000004038886
      23       -0.000011132639     0.000008433231     0.000008025018


*** tstop() called on cx1-1-3-3.cx1.hpc.ic.ac.uk at Fri Sep  2 13:11:47 2016
Module time:
	user time   =      35.14 seconds =       0.59 minutes
	system time =       0.30 seconds =       0.01 minutes
	total time  =         10 seconds =       0.17 minutes
Total time:
	user time   =     131.47 seconds =       2.19 minutes
	system time =       1.43 seconds =       0.02 minutes
	total time  =         41 seconds =       0.68 minutes
CURRENT ENERGY: -422.9770934817

			-----------------------------------------
			 OPTKING 2.0: for geometry optimizations 
			  - R.A. King,  Bethel University        
			-----------------------------------------

	Previous internal coordinate definitions found.
	---Fragment 1 Geometry and Gradient---
	 O          -4.6520081146        1.0775855566        2.9348040338
	 C          -4.7720912478       -0.2621513591        1.1331765122
	 C          -6.9111940740       -2.0907714233        0.7083218143
	 O          -3.0701850778       -0.3909472183       -0.7073805265
	 H          -8.6676726185       -1.0408063470        0.6458731489
	 H          -6.6725926531       -3.1505475155       -1.0194573876
	 H          -7.0103929855       -3.3701939913        2.3037453709
	 C          -0.8391208198        1.1315551730       -0.6885948762
	 C           1.4904816909       -0.5528590396       -0.7175137712
	 H          -0.9412939675        2.2585512405       -2.3932815061
	 H          -0.8524567304        2.3779257694        0.9174836639
	 C           3.9502569235        0.9610823220       -0.8596932696
	 H           1.3654680738       -1.8392129447       -2.3134371472
	 H           1.4767387599       -1.7076678651        0.9802365218
	 C           6.3098327929       -0.7095880978       -0.8841708363
	 H           3.9376382612        2.1339949848       -2.5505055721
	 H           4.0520376636        2.2524526838        0.7381702075
	 C           8.7632401295        0.8069117551       -1.0260235907
	 H           6.2114785240       -2.0005572782       -2.4807802773
	 H           6.3279877237       -1.8804315511        0.8049913923
	 H           8.8302838486        1.9505244341       -2.7295847977
	 H          10.4003446427       -0.4290746154       -1.0388785591
	 H           8.9469462939        2.0707483674        0.5810654352
	            -0.0044332479       -0.0014902873        0.0048173060
	            -0.0028704950        0.0025244298       -0.0020059948
	             0.0012307617        0.0000437349        0.0018575831
	            -0.0002487519       -0.0005856183       -0.0031444285
	             0.0002666079        0.0002053691       -0.0000293641
	             0.0004198486        0.0001508946       -0.0001229456
	            -0.0002442296       -0.0002316946       -0.0000626819
	             0.0029218244       -0.0004030626        0.0036237301
	             0.0016160557        0.0015158085       -0.0012318760
	            -0.0012797562       -0.0009046432       -0.0004047443
	             0.0014069040       -0.0001478280       -0.0028411356
	             0.0007981574       -0.0011544380        0.0000878778
	             0.0004142385       -0.0002645652       -0.0001636894
	            -0.0004815483        0.0004871050       -0.0001651118
	             0.0003012274        0.0005256101       -0.0001784525
	             0.0000613324       -0.0000070244       -0.0000723960
	            -0.0001489577       -0.0000805787        0.0000083935
	             0.0001728530       -0.0002371685        0.0000259111
	             0.0000244270       -0.0000316600       -0.0000238419
	            -0.0000312871        0.0000286486        0.0000333779
	            -0.0000181356        0.0000049738       -0.0000115029
	             0.0001333039        0.0000435613       -0.0000040389
	            -0.0000111326        0.0000084332        0.0000080250

	---Fragment 1 Intrafragment Coordinates---
	 - Coordinate -           - BOHR/RAD -       - ANG/DEG -
	 R(1,2)           =         2.248372	       1.189787
	 R(2,3)           =         2.846070	       1.506075
	 R(2,4)           =         2.510124	       1.328301
	 R(3,5)           =         2.047326	       1.083398
	 R(3,6)           =         2.040901	       1.079998
	 R(3,7)           =         2.047471	       1.083475
	 R(4,8)           =         2.701114	       1.429368
	 R(8,9)           =         2.874915	       1.521340
	 R(8,10)          =         2.046098	       1.082748
	 R(8,11)          =         2.033004	       1.075820
	 R(9,12)          =         2.891838	       1.530295
	 R(9,13)          =         2.053608	       1.086723
	 R(9,14)          =         2.053321	       1.086571
	 R(12,15)         =         2.891252	       1.529985
	 R(12,16)         =         2.057846	       1.088965
	 R(12,17)         =         2.056979	       1.088507
	 R(15,18)         =         2.887750	       1.528132
	 R(15,19)         =         2.055587	       1.087770
	 R(15,20)         =         2.055352	       1.087646
	 R(18,21)         =         2.052916	       1.086357
	 R(18,22)         =         2.051326	       1.085515
	 R(18,23)         =         2.052746	       1.086266
	 B(1,2,3)         =         2.144337	     122.861443
	 B(1,2,4)         =         2.191885	     125.585734
	 B(2,3,5)         =         1.896389	     108.655101
	 B(2,3,6)         =         1.952109	     111.847629
	 B(2,3,7)         =         1.898199	     108.758767
	 B(2,4,8)         =         2.124695	     121.736039
	 B(3,2,4)         =         1.946762	     111.541241
	 B(4,8,9)         =         1.916641	     109.815413
	 B(4,8,10)        =         1.837366	     105.273319
	 B(4,8,11)        =         1.923713	     110.220661
	 B(5,3,6)         =         1.918547	     109.924652
	 B(5,3,7)         =         1.878288	     107.617980
	 B(6,3,7)         =         1.918618	     109.928698
	 B(8,9,12)        =         1.963854	     112.520566
	 B(8,9,13)        =         1.902326	     108.995233
	 B(8,9,14)        =         1.892071	     108.407656
	 B(9,8,10)        =         1.933495	     110.781116
	 B(9,8,11)        =         1.952454	     111.867366
	 B(9,12,15)       =         1.973690	     113.084104
	 B(9,12,16)       =         1.910888	     109.485808
	 B(9,12,17)       =         1.909816	     109.424397
	 B(10,8,11)       =         1.896711	     108.673556
	 B(12,9,13)       =         1.919308	     109.968241
	 B(12,9,14)       =         1.918542	     109.924345
	 B(12,15,18)      =         1.971780	     112.974685
	 B(12,15,19)      =         1.907551	     109.294601
	 B(12,15,20)      =         1.906484	     109.233504
	 B(13,9,14)       =         1.864880	     106.849728
	 B(15,12,16)      =         1.904345	     109.110939
	 B(15,12,17)      =         1.905999	     109.205672
	 B(15,18,21)      =         1.940192	     111.164825
	 B(15,18,22)      =         1.941127	     111.218393
	 B(15,18,23)      =         1.940028	     111.155423
	 B(16,12,17)      =         1.855349	     106.303663
	 B(18,15,19)      =         1.909544	     109.408788
	 B(18,15,20)      =         1.909241	     109.391446
	 B(19,15,20)      =         1.855628	     106.319655
	 B(21,18,22)      =         1.880091	     107.721261
	 B(21,18,23)      =         1.879443	     107.684131
	 B(22,18,23)      =         1.880158	     107.725135
	 D(1,2,3,5)       =         1.031214	      59.084229
	 D(1,2,3,6)       =        -3.130957	    -179.390602
	 D(1,2,3,7)       =        -1.008626	     -57.790013
	 D(1,2,4,8)       =         0.002098	       0.120194
	 D(2,4,8,9)       =         2.106672	     120.703401
	*D(2,4,8,10)      =        -2.094396	    -120.000025
	 D(2,4,8,11)      =        -0.052037	      -2.981486
	 D(3,2,4,8)       =        -3.118307	    -178.665813
	 D(4,2,3,5)       =        -2.130892	    -122.091113
	 D(4,2,3,6)       =        -0.009878	      -0.565944
	 D(4,2,3,7)       =         2.112453	     121.034645
	 D(4,8,9,12)      =         3.081499	     176.556882
	 D(4,8,9,13)      =         0.947717	      54.300200
	 D(4,8,9,14)      =        -1.076062	     -61.653817
	 D(8,9,12,15)     =         3.139334	     179.870603
	 D(8,9,12,16)     =        -1.016426	     -58.236926
	 D(8,9,12,17)     =         1.010562	      57.900932
	 D(9,12,15,18)    =        -3.141521	    -179.995893
	 D(9,12,15,19)    =         1.011280	      57.942066
	 D(9,12,15,20)    =        -1.012290	     -57.999963
	 D(10,8,9,12)     =         1.059302	      60.693557
	 D(10,8,9,13)     =        -1.074479	     -61.563125
	 D(10,8,9,14)     =        -3.098259	    -177.517141
	 D(11,8,9,12)     =        -1.059876	     -60.726431
	 D(11,8,9,13)     =         3.089528	     177.016887
	 D(11,8,9,14)     =         1.065748	      61.062871
	 D(12,15,18,21)   =        -1.047390	     -60.011042
	 D(12,15,18,22)   =         3.140873	     179.958754
	 D(12,15,18,23)   =         1.045975	      59.929966
	 D(13,9,12,15)    =        -1.019691	     -58.423983
	 D(13,9,12,16)    =         1.107734	      63.468487
	 D(13,9,12,17)    =         3.134722	     179.606346
	 D(14,9,12,15)    =         1.028809	      58.946428
	 D(14,9,12,16)    =        -3.126951	    -179.161102
	 D(14,9,12,17)    =        -1.099963	     -63.023244
	 D(16,12,15,18)   =         1.010573	      57.901546
	 D(16,12,15,19)   =        -1.119812	     -64.160495
	 D(16,12,15,20)   =         3.139803	     179.897477
	 D(17,12,15,18)   =        -1.010610	     -57.903686
	 D(17,12,15,19)   =        -3.140994	    -179.965727
	 D(17,12,15,20)   =         1.118621	      64.092244
	 D(19,15,18,21)   =         1.081875	      61.986895
	 D(19,15,18,22)   =        -1.013047	     -58.043310
	 D(19,15,18,23)   =        -3.107944	    -178.072097
	 D(20,15,18,21)   =         3.108113	     178.081771
	 D(20,15,18,22)   =         1.013191	      58.051567
	 D(20,15,18,23)   =        -1.081707	     -61.977221

	Current energy   :      -422.9770934817

	Energy change for the previous step:
		Projected    :        -0.0037074100
		Actual       :        -0.0004289432
	Energy ratio indicates iffy step: Trust radius decreased to 1.250e-01.


	Performing BFGS update.
	Previous computed or guess Hessian on step 1.
	Steps to be used in Hessian update: 1
	Taking RFO optimization step.
	Going to follow RFO solution 1.
	Using RFO vector 1.

	Determining step-restricting scale parameter for RS-RFO.
	Maximum step size allowed    0.12500

	 Iter      |step|        alpha        rfo_root  
	------------------------------------------------
	    0     0.15227       1.00000           1
	    1     0.13065       2.42830           1
	    2     0.12534       2.89579           1
	    3     0.12500       2.92779           1
	------------------------------------------------
	Norm of target step-size    0.12500
	Projected energy change by RFO approximation:        -0.0004372556

	Back-transformation to cartesian coordinates...
	Successfully converged to displaced geometry.

	Back-transformation to cartesian coordinates to adjust frozen coordinates...
	Successfully converged to displaced geometry.

	--- Internal Coordinate Step in ANG or DEG, aJ/ANG or AJ/DEG ---
	 ---------------------------------------------------------------------------
	   Coordinate                Previous        Force       Change         New 
	   ----------                --------       ------       ------       ------
	    1 R(1,2)          =      1.189787    -0.022536    -0.000772     1.189016
	    2 R(2,3)          =      1.506075     0.013271     0.001562     1.507637
	    3 R(2,4)          =      1.328301    -0.058868    -0.003415     1.324886
	    4 R(3,5)          =      1.083398     0.001009     0.000107     1.083505
	    5 R(3,6)          =      1.079998    -0.000616    -0.000068     1.079931
	    6 R(3,7)          =      1.083475    -0.000888    -0.000096     1.083380
	    7 R(4,8)          =      1.429368    -0.037071    -0.003114     1.426254
	    8 R(8,9)          =      1.521340    -0.014988    -0.001631     1.519708
	    9 R(8,10)         =      1.082748     0.000801     0.000132     1.082880
	   10 R(8,11)         =      1.075820     0.019315     0.001713     1.077532
	   11 R(9,12)         =      1.530295    -0.005154    -0.000650     1.529645
	   12 R(9,13)         =      1.086723    -0.002206    -0.000228     1.086495
	   13 R(9,14)         =      1.086571     0.003355     0.000374     1.086945
	   14 R(12,15)        =      1.529985    -0.002221    -0.000281     1.529703
	   15 R(12,16)        =      1.088965    -0.000454    -0.000029     1.088936
	   16 R(12,17)        =      1.088507     0.000424     0.000040     1.088547
	   17 R(15,18)        =      1.528132    -0.001151    -0.000144     1.527988
	   18 R(15,19)        =      1.087770    -0.000307    -0.000029     1.087741
	   19 R(15,20)        =      1.087646    -0.000089    -0.000013     1.087633
	   20 R(18,21)        =      1.086357    -0.000097    -0.000006     1.086350
	   21 R(18,22)        =      1.085515    -0.000660    -0.000069     1.085446
	   22 R(18,23)        =      1.086266    -0.000086    -0.000010     1.086256
	   23 B(1,2,3)        =    122.861443     0.000371     0.581378   123.442821
	   24 B(1,2,4)        =    125.585734    -0.000658    -1.092064   124.493670
	   25 B(2,3,5)        =    108.655101     0.000031     0.089862   108.744964
	   26 B(2,3,6)        =    111.847629     0.000055     0.166826   112.014455
	   27 B(2,3,7)        =    108.758767    -0.000054    -0.172709   108.586057
	   28 B(2,4,8)        =    121.736039    -0.000983    -1.512389   120.223650
	   29 B(3,2,4)        =    111.541241     0.000289     0.433975   111.975215
	   30 B(4,8,9)        =    109.815413    -0.000190    -0.288065   109.527348
	   31 B(4,8,10)       =    105.273319     0.000181     0.641215   105.914534
	   32 B(4,8,11)       =    110.220661    -0.000069    -0.710103   109.510558
	   33 B(5,3,6)        =    109.924652    -0.000027    -0.029766   109.894886
	   34 B(5,3,7)        =    107.617980    -0.000003    -0.044535   107.573445
	   35 B(6,3,7)        =    109.928698    -0.000003    -0.018098   109.910600
	   36 B(8,9,12)       =    112.520566    -0.000154    -0.316302   112.204264
	   37 B(8,9,13)       =    108.995233     0.000012    -0.094859   108.900374
	   38 B(8,9,14)       =    108.407656     0.000087     0.257050   108.664706
	   39 B(9,8,10)       =    110.781116     0.000045     0.345581   111.126697
	   40 B(9,8,11)       =    111.867366     0.000058    -0.115291   111.752076
	   41 B(9,12,15)      =    113.084104    -0.000065    -0.133974   112.950130
	   42 B(9,12,16)      =    109.485808     0.000014     0.012955   109.498763
	   43 B(9,12,17)      =    109.424397     0.000030     0.071885   109.496282
	   44 B(10,8,11)      =    108.673556    -0.000017     0.159413   108.832969
	   45 B(12,9,13)      =    109.968241     0.000068     0.101643   110.069884
	   46 B(12,9,14)      =    109.924345     0.000021     0.040221   109.964566
	   47 B(12,15,18)     =    112.974685    -0.000031    -0.066767   112.907918
	   48 B(12,15,19)     =    109.294601     0.000007    -0.000133   109.294468
	   49 B(12,15,20)     =    109.233504     0.000013     0.033029   109.266534
	   50 B(13,9,14)      =    106.849728    -0.000027     0.030045   106.879774
	   51 B(15,12,16)     =    109.110939     0.000025     0.043417   109.154356
	   52 B(15,12,17)     =    109.205672     0.000012     0.006657   109.212329
	   53 B(15,18,21)     =    111.164825     0.000004     0.014529   111.179354
	   54 B(15,18,22)     =    111.218393    -0.000014    -0.042608   111.175785
	   55 B(15,18,23)     =    111.155423     0.000003     0.010842   111.166265
	   56 B(16,12,17)     =    106.303663    -0.000012     0.007458   106.311121
	   57 B(18,15,19)     =    109.408788     0.000010     0.011945   109.420733
	   58 B(18,15,20)     =    109.391446     0.000008     0.019052   109.410498
	   59 B(19,15,20)     =    106.319655    -0.000005     0.007312   106.326966
	   60 B(21,18,22)     =    107.721261     0.000004     0.004901   107.726161
	   61 B(21,18,23)     =    107.684131    -0.000001     0.007661   107.691793
	   62 B(22,18,23)     =    107.725135     0.000004     0.005752   107.730887
	   63 D(1,2,3,5)      =     59.084229    -0.000015    -2.441088    56.643141
	   64 D(1,2,3,6)      =   -179.390602    -0.000010    -2.309700  -181.700303
	   65 D(1,2,3,7)      =    -57.790013    -0.000011    -2.342465   -60.132478
	   66 D(1,2,4,8)      =      0.120194     0.000007     1.637470     1.757664
	   67 D(2,4,8,9)      =    120.703401    -0.000013    -0.623641   120.079760
	   68 *D(2,4,8,10)    =   -120.000025    -0.000000     0.000000  -120.000025
	   69 D(2,4,8,11)     =     -2.981486     0.000010     0.185107    -2.796379
	   70 D(3,2,4,8)      =   -178.665813    -0.000020    -2.899695  -181.565508
	   71 D(4,2,3,5)      =   -122.091113     0.000008     2.016570  -120.074542
	   72 D(4,2,3,6)      =     -0.565944     0.000013     2.147958     1.582014
	   73 D(4,2,3,7)      =    121.034645     0.000011     2.115193   123.149839
	   74 D(4,8,9,12)     =    176.556882     0.000024     0.179077   176.735959
	   75 D(4,8,9,13)     =     54.300200     0.000026     0.326870    54.627070
	   76 D(4,8,9,14)     =    -61.653817     0.000021     0.202212   -61.451605
	   77 D(8,9,12,15)    =    179.870603     0.000004     0.145623   180.016226
	   78 D(8,9,12,16)    =    -58.236926     0.000004     0.119386   -58.117540
	   79 D(8,9,12,17)    =     57.900932     0.000006     0.176543    58.077475
	   80 D(9,12,15,18)   =   -179.995893    -0.000001    -0.026219  -180.022112
	   81 D(9,12,15,19)   =     57.942066    -0.000000     0.003854    57.945919
	   82 D(9,12,15,20)   =    -57.999963    -0.000001    -0.023305   -58.023268
	   83 D(10,8,9,12)    =     60.693557    -0.000006    -0.633404    60.060153
	   84 D(10,8,9,13)    =    -61.563125    -0.000004    -0.485611   -62.048736
	   85 D(10,8,9,14)    =   -177.517141    -0.000009    -0.610269  -178.127410
	   86 D(11,8,9,12)    =    -60.726431    -0.000018    -1.001398   -61.727829
	   87 D(11,8,9,13)    =    177.016887    -0.000016    -0.853606   176.163281
	   88 D(11,8,9,14)    =     61.062871    -0.000021    -0.978264    60.084607
	   89 D(12,15,18,21)  =    -60.011042     0.000000     0.001873   -60.009169
	   90 D(12,15,18,22)  =    179.958754     0.000000     0.014521   179.973275
	   91 D(12,15,18,23)  =     59.929966     0.000001     0.028560    59.958526
	   92 D(13,9,12,15)   =    -58.423983    -0.000005    -0.118969   -58.542952
	   93 D(13,9,12,16)   =     63.468487    -0.000006    -0.145205    63.323282
	   94 D(13,9,12,17)   =    179.606346    -0.000003    -0.088049   179.518297
[...]
	 D(1,2,3,5)       =         1.023072	      58.617711
	 D(1,2,3,6)       =        -3.138047	    -179.796837
	 D(1,2,3,7)       =        -1.015468	     -58.182017
	 D(1,2,4,8)       =        -0.002067	      -0.118447
	 D(2,4,8,9)       =         2.092910	     119.914888
	*D(2,4,8,10)      =        -2.094396	    -120.000025
	 D(2,4,8,11)      =        -0.046653	      -2.673002
	 D(3,2,4,8)       =         3.139829	     179.898938
	 D(4,2,3,5)       =        -2.118820	    -121.399465
	 D(4,2,3,6)       =         0.003246	       0.185987
	 D(4,2,3,7)       =         2.125825	     121.800807
	 D(4,8,9,12)      =         3.085446	     176.783025
	 D(4,8,9,13)      =         0.954766	      54.704083
	 D(4,8,9,14)      =        -1.072270	     -61.436546
	 D(8,9,12,15)     =         3.140516	     179.938288
	 D(8,9,12,16)     =        -1.015611	     -58.190207
	 D(8,9,12,17)     =         1.012236	      57.996827
	 D(9,12,15,18)    =         3.138991	     179.850955
	 D(9,12,15,19)    =         1.009137	      57.819292
	 D(9,12,15,20)    =        -1.014878	     -58.148221
	 D(10,8,9,12)     =         1.042483	      59.729877
	 D(10,8,9,13)     =        -1.088196	     -62.349066
	 D(10,8,9,14)     =        -3.115233	    -178.489695
	 D(11,8,9,12)     =        -1.081814	     -61.983350
	 D(11,8,9,13)     =         3.070692	     175.937708
	 D(11,8,9,14)     =         1.043656	      59.797078
	 D(12,15,18,21)   =        -1.047364	     -60.009525
	 D(12,15,18,22)   =         3.141074	     179.970282
	 D(12,15,18,23)   =         1.046379	      59.953086
	 D(13,9,12,15)    =        -1.023224	     -58.626441
	 D(13,9,12,16)    =         1.103835	      63.245063
	 D(13,9,12,17)    =         3.131681	     179.432098
	 D(14,9,12,15)    =         1.027493	      58.871035
	 D(14,9,12,16)    =        -3.128633	    -179.257460
	 D(14,9,12,17)    =        -1.100787	     -63.070425
	 D(16,12,15,18)   =         1.008731	      57.796028
	 D(16,12,15,19)   =        -1.121123	     -64.235635
	 D(16,12,15,20)   =         3.138047	     179.796852
	 D(17,12,15,18)   =        -1.013053	     -58.043683
	 D(17,12,15,19)   =         3.140278	     179.924653
	 D(17,12,15,20)   =         1.116263	      63.957140
	 D(19,15,18,21)   =         1.081224	      61.949588
	 D(19,15,18,22)   =        -1.013523	     -58.070605
	 D(19,15,18,23)   =        -3.108218	    -178.087801
	 D(20,15,18,21)   =         3.107888	     178.068870
	 D(20,15,18,22)   =         1.013141	      58.048677
	 D(20,15,18,23)   =        -1.081555	     -61.968518

	Current energy   :      -422.9776480381

	Energy change for the previous step:
		Projected    :        -0.0000004057
		Actual       :        -0.0000001797

	Performing BFGS update.
	Previous computed or guess Hessian on step 1.
	Steps to be used in Hessian update: 6 5
	Taking RFO optimization step.
	Going to follow RFO solution 1.
	Using RFO vector 1.
	Norm of target step-size    0.01370
	Projected energy change by RFO approximation:        -0.0000002960

	Back-transformation to cartesian coordinates...
	Successfully converged to displaced geometry.

	Back-transformation to cartesian coordinates to adjust frozen coordinates...
	Successfully converged to displaced geometry.

	--- Internal Coordinate Step in ANG or DEG, aJ/ANG or AJ/DEG ---
	 ---------------------------------------------------------------------------
	   Coordinate                Previous        Force       Change         New 
	   ----------                --------       ------       ------       ------
	    1 R(1,2)          =      1.189214    -0.000058    -0.000003     1.189211
	    2 R(2,3)          =      1.507295     0.000101    -0.000002     1.507293
	    3 R(2,4)          =      1.324372     0.000036     0.000004     1.324376
	    4 R(3,5)          =      1.083473     0.000061     0.000013     1.083486
	    5 R(3,6)          =      1.079899    -0.000035     0.000001     1.079900
	    6 R(3,7)          =      1.083460    -0.000010    -0.000012     1.083448
	    7 R(4,8)          =      1.426110     0.000461    -0.000015     1.426096
	    8 R(8,9)          =      1.519269     0.000009    -0.000024     1.519245
	    9 R(8,10)         =      1.082734     0.000012     0.000008     1.082742
	   10 R(8,11)         =      1.077788     0.000079     0.000012     1.077800
	   11 R(9,12)         =      1.529768     0.000278     0.000005     1.529774
	   12 R(9,13)         =      1.086472    -0.000050     0.000002     1.086473
	   13 R(9,14)         =      1.086949    -0.000033     0.000003     1.086952
	   14 R(12,15)        =      1.529787     0.000169     0.000007     1.529794
	   15 R(12,16)        =      1.088848     0.000018     0.000004     1.088853
	   16 R(12,17)        =      1.088555    -0.000086    -0.000007     1.088548
	   17 R(15,18)        =      1.528028     0.000114     0.000008     1.528036
	   18 R(15,19)        =      1.087730    -0.000052    -0.000003     1.087727
	   19 R(15,20)        =      1.087614     0.000027     0.000002     1.087616
	   20 R(18,21)        =      1.086339    -0.000026    -0.000002     1.086337
	   21 R(18,22)        =      1.085459     0.000041     0.000002     1.085461
	   22 R(18,23)        =      1.086255    -0.000000     0.000000     1.086255
	   23 B(1,2,3)        =    123.464905     0.000000    -0.000494   123.464411
	   24 B(1,2,4)        =    124.492041    -0.000003     0.000139   124.492180
	   25 B(2,3,5)        =    108.667711    -0.000000     0.000036   108.667747
	   26 B(2,3,6)        =    111.954385    -0.000000     0.000456   111.954841
	   27 B(2,3,7)        =    108.687109     0.000001     0.000178   108.687287
	   28 B(2,4,8)        =    119.807969     0.000002     0.003518   119.811486
	   29 B(3,2,4)        =    112.043051     0.000003     0.000351   112.043402
	   30 B(4,8,9)        =    109.367315     0.000002    -0.001756   109.365559
	   31 B(4,8,10)       =    106.287908     0.000002     0.004641   106.292550
	   32 B(4,8,11)       =    109.406202    -0.000001     0.000552   109.406754
	   33 B(5,3,6)        =    109.911147    -0.000000    -0.003431   109.907716
	   34 B(5,3,7)        =    107.582660    -0.000000    -0.000192   107.582468
	   35 B(6,3,7)        =    109.924006     0.000000     0.002935   109.926941
	   36 B(8,9,12)       =    112.098874     0.000003    -0.001242   112.097633
	   37 B(8,9,13)       =    108.949712    -0.000001     0.001663   108.951375
	   38 B(8,9,14)       =    108.721319    -0.000001    -0.002212   108.719107
	   39 B(9,8,10)       =    111.157296    -0.000002    -0.002231   111.155065
	   40 B(9,8,11)       =    111.657720    -0.000001    -0.002073   111.655646
	   41 B(9,12,15)      =    112.966663     0.000002     0.001109   112.967772
	   42 B(9,12,16)      =    109.484264    -0.000000     0.002647   109.486911
	   43 B(9,12,17)      =    109.497089    -0.000001    -0.002625   109.494465
	   44 B(10,8,11)      =    108.809419     0.000000     0.001236   108.810655
	   45 B(12,9,13)      =    110.074069    -0.000000     0.000596   110.074665
	   46 B(12,9,14)      =    109.962625    -0.000001     0.001058   109.963683
	   47 B(12,15,18)     =    112.915842     0.000002     0.001632   112.917474
	   48 B(12,15,19)     =    109.289850    -0.000001     0.000109   109.289960
	   49 B(12,15,20)     =    109.266838    -0.000000    -0.000408   109.266430
	   50 B(13,9,14)      =    106.883195     0.000000     0.000177   106.883373
	   51 B(15,12,16)     =    109.157827    -0.000000     0.002230   109.160057
	   52 B(15,12,17)     =    109.205203    -0.000001    -0.003041   109.202162
	   53 B(15,18,21)     =    111.176280    -0.000001    -0.001323   111.174957
	   54 B(15,18,22)     =    111.185027     0.000001     0.001816   111.186843
	   55 B(15,18,23)     =    111.162856     0.000000     0.000281   111.163137
	   56 B(16,12,17)     =    106.310960     0.000000    -0.000411   106.310549
	   57 B(18,15,19)     =    109.418889    -0.000000     0.000365   109.419254
	   58 B(18,15,20)     =    109.407686    -0.000001    -0.001509   109.406177
	   59 B(19,15,20)     =    106.327583     0.000000    -0.000305   106.327277
	   60 B(21,18,22)     =    107.724972    -0.000000    -0.000099   107.724873
	   61 B(21,18,23)     =    107.691209     0.000000    -0.000207   107.691002
	   62 B(22,18,23)     =    107.729727    -0.000000    -0.000514   107.729212
	   63 D(1,2,3,5)      =     58.617711     0.000000     0.087225    58.704937
	   64 D(1,2,3,6)      =   -179.796837     0.000000     0.083234  -179.713603
	   65 D(1,2,3,7)      =    -58.182017     0.000000     0.087337   -58.094680
	   66 D(1,2,4,8)      =     -0.118447    -0.000000    -0.017063    -0.135510
	   67 D(2,4,8,9)      =    119.914888     0.000000     0.000934   119.915823
	   68 *D(2,4,8,10)    =   -120.000025     0.000000    -0.000000  -120.000025
	   69 D(2,4,8,11)     =     -2.673002     0.000000     0.004278    -2.668724
	   70 D(3,2,4,8)      =    179.898938     0.000000    -0.006325   179.892614
	   71 D(4,2,3,5)      =   -121.399465    -0.000000     0.076616  -121.322849
	   72 D(4,2,3,6)      =      0.185987    -0.000000     0.072625     0.258611
	   73 D(4,2,3,7)      =    121.800807    -0.000000     0.076728   121.877535
	   74 D(4,8,9,12)     =    176.783025     0.000000     0.024222   176.807247
	   75 D(4,8,9,13)     =     54.704083     0.000000     0.023132    54.727215
	   76 D(4,8,9,14)     =    -61.436546     0.000000     0.023227   -61.413319
	   77 D(8,9,12,15)    =    179.938288    -0.000000    -0.199035   179.739254
	   78 D(8,9,12,16)    =    -58.190207    -0.000000    -0.193519   -58.383727
	   79 D(8,9,12,17)    =     57.996827    -0.000000    -0.194001    57.802826
	   80 D(9,12,15,18)   =    179.850955     0.000000     0.165152   180.016107
	   81 D(9,12,15,19)   =     57.819292     0.000000     0.163501    57.982792
	   82 D(9,12,15,20)   =    -58.148221     0.000000     0.164033   -57.984188
	   83 D(10,8,9,12)    =     59.729877    -0.000000     0.020936    59.750812
	   84 D(10,8,9,13)    =    -62.349066    -0.000000     0.019846   -62.329219
	   85 D(10,8,9,14)    =   -178.489695    -0.000000     0.019941  -178.469754
	   86 D(11,8,9,12)    =    -61.983350     0.000000     0.022376   -61.960974
	   87 D(11,8,9,13)    =    175.937708     0.000000     0.021286   175.958994
	   88 D(11,8,9,14)    =     59.797078     0.000000     0.021381    59.818460
	   89 D(12,15,18,21)  =    -60.009525     0.000000    -0.009844   -60.019370
	   90 D(12,15,18,22)  =    179.970282     0.000000    -0.010049   179.960233
	   91 D(12,15,18,23)  =     59.953086    -0.000000    -0.010805    59.942281
	   92 D(13,9,12,15)   =    -58.626441    -0.000000    -0.197340   -58.823781
	   93 D(13,9,12,16)   =     63.245063    -0.000000    -0.191824    63.053239
	   94 D(13,9,12,17)   =    179.432098    -0.000000    -0.192306   179.239791
	   95 D(14,9,12,15)   =     58.871035    -0.000000    -0.196129    58.674906
	   96 D(14,9,12,16)   =   -179.257460    -0.000000    -0.190614  -179.448074
	   97 D(14,9,12,17)   =    -63.070425    -0.000000    -0.191096   -63.261521
	   98 D(16,12,15,18)  =     57.796028     0.000000     0.159417    57.955445
	   99 D(16,12,15,19)  =    -64.235635    -0.000000     0.157766   -64.077869
	  100 D(16,12,15,20)  =    179.796852     0.000000     0.158298   179.955150
	  101 D(17,12,15,18)  =    -58.043683     0.000000     0.160357   -57.883326
	  102 D(17,12,15,19)  =    179.924653     0.000000     0.158706   180.083360
	  103 D(17,12,15,20)  =     63.957140     0.000000     0.159239    64.116379
	  104 D(19,15,18,21)  =     61.949588     0.000000    -0.008333    61.941254
	  105 D(19,15,18,22)  =    -58.070605     0.000000    -0.008538   -58.079143
	  106 D(19,15,18,23)  =   -178.087801    -0.000000    -0.009294  -178.097095
	  107 D(20,15,18,21)  =    178.068870    -0.000000    -0.009347   178.059524
	  108 D(20,15,18,22)  =     58.048677    -0.000000    -0.009551    58.039126
	  109 D(20,15,18,23)  =    -61.968518    -0.000000    -0.010307   -61.978826
	 ---------------------------------------------------------------------------

  ==> Convergence Check <==

  Measures of convergence in internal coordinates in au.
  Criteria marked as inactive (o), active & met (*), and active & unmet ( ).
  ---------------------------------------------------------------------------------------------
   Step     Total Energy     Delta E     MAX Force     RMS Force      MAX Disp      RMS Disp   
  ---------------------------------------------------------------------------------------------
    Convergence Criteria    1.00e-06 *    3.00e-04 *             o    1.20e-03 *             o
  ---------------------------------------------------------------------------------------------
      7    -422.97764804   -1.80e-07 *    5.59e-05 *    1.43e-05 o    3.47e-03      1.31e-03 o  ~
  ---------------------------------------------------------------------------------------------


  **** Optimization is complete! (in 7 steps) ****

  ==> Optimization Summary <==

  Measures of convergence in internal coordinates in au.
  --------------------------------------------------------------------------------------------------------------- ~
   Step         Total Energy             Delta E       MAX Force       RMS Force        MAX Disp        RMS Disp  ~
  --------------------------------------------------------------------------------------------------------------- ~
      1    -422.976664538437   -422.976664538437      0.01886512      0.00258567      0.07445050      0.01633137  ~
      2    -422.977093481655     -0.000428943218      0.01292237      0.00193568      0.05060922      0.01196873  ~
      3    -422.977415763497     -0.000322281842      0.00264303      0.00061157      0.04735744      0.01196844  ~
      4    -422.977534933716     -0.000119170218      0.00298294      0.00065880      0.01365963      0.00299314  ~
      5    -422.977635688000     -0.000100754284      0.00043114      0.00012913      0.00941362      0.00299321  ~
      6    -422.977647858343     -0.000012170343      0.00019914      0.00003658      0.00482607      0.00151999  ~
      7    -422.977648038060     -0.000000179717      0.00005590      0.00001431      0.00347381      0.00131216  ~
  --------------------------------------------------------------------------------------------------------------- ~

	Writing optimization data to binary file.
	Final energy is   -422.9776480380600
	Final (previous) structure:
	Cartesian Geometry (in Angstrom)
	    O    -2.3863877647   0.5662380908   1.5375021925
	    C    -2.5008924065  -0.1503871181   0.5953943320
	    C    -3.6689256570  -1.0821964470   0.3969818075
	    O    -1.6284393994  -0.2284926192  -0.3979266442
	    H    -4.5808979684  -0.4973353526   0.3844296522
	    H    -3.5826112867  -1.6485635528  -0.5184196125
	    H    -3.7235875308  -1.7555720471   1.2440133193
	    C    -0.4580404073   0.5861268717  -0.3791724441
	    C     0.7743582210  -0.3022979533  -0.3877344053
	    H    -0.5022191200   1.2016966033  -1.2687988263
	    H    -0.4810207959   1.2261086649   0.4877317298
	    C     2.0691265110   0.5101903450  -0.4479764702
	    H     0.7173249129  -0.9765662764  -1.2377523227
	    H     0.7652389052  -0.9201634246   0.5064792155
	    C     3.3234904760  -0.3654550125  -0.4560126096
	    H     2.0642615829   1.1356685398  -1.3392363305
	    H     2.1118472066   1.1891738168   0.4017928283
	    C     4.6159610875   0.4471417625  -0.5198589370
	    H     3.2815856081  -1.0454632775  -1.3039451526
	    H     3.3319618624  -0.9884746182   0.4354348292
	    H     4.6527485051   1.0559277226  -1.4188358484
	    H     5.4868601184  -0.2007329183  -0.5236194657
	    H     4.7029287559   1.1133102571   0.3337252605
	Saving final (previous) structure.
			--------------------------
			 OPTKING Finished Execution 
			--------------------------

    Final optimized geometry and variables:
    Molecular point group: c1
    Full point group: C1

    Geometry (in Angstrom), charge = 0, multiplicity = 1:

    O           -2.386387582466     0.566238047588     1.537502075112
    C           -2.500892215493    -0.150387106576     0.595394286500
    C           -3.668925376843    -1.082196364326     0.396981777153
    O           -1.628439275014    -0.228492601797    -0.397926613837
    H           -4.580897618537    -0.497335314614     0.384429622884
    H           -3.582611013142    -1.648563426883    -0.518419572897
    H           -3.723587246451    -1.755571913072     1.244013224258
    C           -0.458040372316     0.586126826976    -0.379172415136
    C            0.774358161851    -0.302297930236    -0.387734375645
    H           -0.502219081615     1.201696511576    -1.268798729435
    H           -0.481020759205     1.226108571225     0.487731692580
    C            2.069126353014     0.510190306088    -0.447976436024
    H            0.717324858144    -0.976566201865    -1.237752228173
    H            0.765238846726    -0.920163354297     0.506479176792
    C            3.323490222190    -0.365454984585    -0.456012574801
    H            2.064261425286     1.135668453028    -1.339236228241
    H            2.111847045352     1.189173725983     0.401792797640
    C            4.615960735015     0.447141728400    -0.519858897255
    H            3.281585357479    -1.045463197625    -1.303945053008
    H            3.331961607970    -0.988474542677     0.435434795952
    H            4.652748149778     1.055927641997    -1.418835740012
    H            5.486859699405    -0.200732902951    -0.523619425752
    H            4.702928396777     1.113310172049     0.333725235061

	Cleaning optimization helper files.


Properties will be evaluated at   0.000000,   0.000000,   0.000000 Bohr

Properties computed using the  density matrix

  Nuclear Dipole Moment: (a.u.)
     X:    13.3344      Y:    -1.0399      Z:    -3.5728

  Electronic Dipole Moment: (a.u.)
     X:   -13.0695      Y:     0.6410      Z:     2.9030

  Dipole Moment: (a.u.)
     X:     0.2649      Y:    -0.3989      Z:    -0.6698     Total:     0.8234

  Dipole Moment: (Debye)
     X:     0.6733      Y:    -1.0138      Z:    -1.7025     Total:     2.0928

  Quadrupole Moment: (Debye Ang)
    XX:   -53.5565     YY:   -56.3776     ZZ:   -61.0483
    XY:     4.1980     XZ:     3.6288     YZ:    -3.4395

  Traceless Quadrupole Moment: (Debye Ang)
    XX:     3.4376     YY:     0.6165     ZZ:    -4.0541
    XY:     4.1980     XZ:     3.6288     YZ:    -3.4395

  Mulliken Charges: (a.u.)
   Center  Symbol    Alpha    Beta     Spin     Total
       1     O     4.28371  4.28371  0.00000 -0.56742
       2     C     2.61540  2.61540  0.00000  0.76920
       3     C     3.28845  3.28845  0.00000 -0.57691
       4     O     4.31369  4.31369  0.00000 -0.62738
       5     H     0.39755  0.39755  0.00000  0.20490
       6     H     0.39989  0.39989  0.00000  0.20022
       7     H     0.39779  0.39779  0.00000  0.20442
       8     C     3.00656  3.00656  0.00000 -0.01312
       9     C     3.16321  3.16321  0.00000 -0.32642
      10     H     0.41440  0.41440  0.00000  0.17119
      11     H     0.39355  0.39355  0.00000  0.21290
      12     C     3.16117  3.16117  0.00000 -0.32234
      13     H     0.41455  0.41455  0.00000  0.17090
      14     H     0.41516  0.41516  0.00000  0.16969
      15     C     3.15138  3.15138  0.00000 -0.30275
      16     H     0.42200  0.42200  0.00000  0.15601
      17     H     0.41938  0.41938  0.00000  0.16125
      18     C     3.23990  3.23990  0.00000 -0.47981
      19     H     0.42163  0.42163  0.00000  0.15674
      20     H     0.42082  0.42082  0.00000  0.15837
      21     H     0.42130  0.42130  0.00000  0.15741
      22     H     0.41800  0.41800  0.00000  0.16399
      23     H     0.42052  0.42052  0.00000  0.15896

   Total alpha = 36.00000, Total beta = 36.00000, Total charge =  0.00000


*** PSI4 exiting successfully. Buy a developer a beer!
