    -----------------------------------------------------------------------
          Psi4: An Open-Source Ab Initio Electronic Structure Package
                              Psi4 (no tag) Driver

                          Git: Rev {detached?}  

    J. M. Turney, A. C. Simmonett, R. M. Parrish, E. G. Hohenstein,
    F. A. Evangelista, J. T. Fermann, B. J. Mintz, L. A. Burns, J. J. Wilke,
    M. L. Abrams, N. J. Russ, M. L. Leininger, C. L. Janssen, E. T. Seidl,
    W. D. Allen, H. F. Schaefer, R. A. King, E. F. Valeev, C. D. Sherrill,
    and T. D. Crawford, WIREs Comput. Mol. Sci. 2, 556-565 (2012)
    (doi: 10.1002/wcms.93)

                         Additional Contributions by
    A. E. DePrince, M. Saitow, U. Bozkaya, A. Yu. Sokolov
    -----------------------------------------------------------------------


    Psi4 started on: Fri Sep  2 13:38:32 2016

    Process ID:   7187
    PSI4DATADIR: /export131/home/mjharvey/miniconda3/share
    Memory level set to 256.000 MB

  ==> Input File <==

--------------------------------------------------------------------------
set {
	reference rhf
	basis 6-31G*
}


set_num_threads( 4 )
memory 2 gb

molecule MOL {
0 1

O	 0.749854	 1.307668	 -0.000040
C	 0.576249	 0.131685	 -0.000108
C	 -0.766779	 -0.556801	 -0.000461
O	 1.568443	 -0.749345	 -0.000005
C	 -1.945214	 0.412366	 0.000161
H	 -0.796911	 -1.211249	 -0.867467
H	 -0.796854	 -1.212390	 0.865687
C	 -3.287791	 -0.317055	 0.000105
H	 -1.876087	 1.060580	 -0.866812
H	 -1.875822	 1.059691	 0.867761
H	 -3.394745	 -0.949193	 -0.877058
H	 -4.111778	 0.388953	 0.000015
H	 -3.394954	 -0.949187	 0.877259
C	 2.194660	 -1.012176	 -1.242575
H	 1.481341	 -1.407394	 -1.951462
H	 2.961981	 -1.742295	 -1.037605
H	 2.633448	 -0.110607	 -1.645250

	symmetry c1
}
set optking {
	frozen_dihedral = ("
		14 4 2 1
	")
}

ee = optimize('scf')
oeprop('DIPOLE', 'QUADRUPOLE', 'MULLIKEN_CHARGES')
f=open( 'psi4out.xyz', 'w' )
f.write( "17  " )
f.write( str(ee) + "\n" )
f.write( MOL.save_string_xyz() )
f.close()
--------------------------------------------------------------------------

  Memory set to   2.000 GiB by Python script.
gradient() will perform analytic gradient computation.

*** tstart() called on cx1-3-1-1.cx1.hpc.ic.ac.uk
*** at Fri Sep  2 13:38:32 2016


         ---------------------------------------------------------
                                   SCF
            by Justin Turney, Rob Parrish, and Andy Simmonett
                              RHF Reference
                        4 Threads,   2000 MiB Core
         ---------------------------------------------------------

  ==> Geometry <==

    Molecular point group: c1
    Full point group: C1

    Geometry (in Angstrom), charge = 0, multiplicity = 1:

       Center              X                  Y                   Z               Mass       
    ------------   -----------------  -----------------  -----------------  -----------------
           O          0.856720681480     1.428040906374     0.191856000661    15.994914619560
           C          0.683115681480     0.252057906374     0.191788000661    12.000000000000
           C         -0.659912318520    -0.436428093626     0.191435000661    12.000000000000
           O          1.675309681480    -0.628972093626     0.191891000661    15.994914619560
           C         -1.838347318520     0.532738906374     0.192057000661    12.000000000000
           H         -0.690044318520    -1.090876093626    -0.675570999339     1.007825032070
           H         -0.689987318520    -1.092017093626     1.057583000661     1.007825032070
           C         -3.180924318520    -0.196682093626     0.192001000661    12.000000000000
           H         -1.769220318520     1.180952906374    -0.674915999339     1.007825032070
           H         -1.768955318520     1.180063906374     1.059657000661     1.007825032070
           H         -3.287878318520    -0.828820093626    -0.685161999339     1.007825032070
           H         -4.004911318520     0.509325906374     0.191911000661     1.007825032070
           H         -3.288087318520    -0.828814093626     1.069155000661     1.007825032070
           C          2.301526681480    -0.891803093626    -1.050678999339    12.000000000000
           H          1.588207681480    -1.287021093626    -1.759565999339     1.007825032070
           H          3.068847681480    -1.621922093626    -0.845708999339     1.007825032070
           H          2.740314681480     0.009765906374    -1.453353999339     1.007825032070

  Running in c1 symmetry.

  Rotational constants: A =      0.19901  B =      0.04394  C =      0.03880 [cm^-1]
  Rotational constants: A =   5966.15593  B =   1317.39708  C =   1163.16296 [MHz]
  Nuclear repulsion =  313.372338280103861

  Charge       = 0
  Multiplicity = 1
  Electrons    = 56
  Nalpha       = 28
  Nbeta        = 28

  ==> Algorithm <==

  SCF Algorithm Type is DF.
  DIIS enabled.
  MOM disabled.
  Fractional occupation disabled.
  Guess Type is CORE.
  Energy threshold   = 1.00e-08
  Density threshold  = 1.00e-08
  Integral threshold = 0.00e+00

  ==> Primary Basis <==

  Basis Set: 6-31G*
    Number of shells: 62
    Number of basis function: 125
    Number of Cartesian functions: 125
    Spherical Harmonics?: false
    Max angular momentum: 2

  ==> Pre-Iterations <==

   -------------------------------------------------------
    Irrep   Nso     Nmo     Nalpha   Nbeta   Ndocc  Nsocc
   -------------------------------------------------------
     A        125     125       0       0       0       0
   -------------------------------------------------------
    Total     125     125      28      28      28       0
   -------------------------------------------------------

 OEINTS: Overlap, kinetic, potential, dipole, and quadrupole integrals
         stored in file 35.

  ==> Integral Setup <==

  ==> DFJK: Density-Fitted J/K Matrices <==

    J tasked:                  Yes
    K tasked:                  Yes
    wK tasked:                  No
    OpenMP threads:              4
    Integrals threads:           4
    Memory (MB):              1430
    Algorithm:                Core
    Integral Cache:           NONE
    Schwarz Cutoff:          1E-12
    Fitting Condition:       1E-12

   => Auxiliary Basis Set <=

  Basis Set: 
    Number of shells: 258
    Number of basis function: 817
    Number of Cartesian functions: 817
    Spherical Harmonics?: false
    Max angular momentum: 3

  Minimum eigenvalue in the overlap matrix is 3.2022440187E-03.
  Using Symmetric Orthogonalization.
  SCF Guess: Core (One-Electron) Hamiltonian.

  ==> Iterations <==

                           Total Energy        Delta E     RMS |[F,P]|

   @DF-RHF iter   1:  -231.59295208037537   -2.31593e+02   8.04095e-02 
   @DF-RHF iter   2:  -132.60592172936998    9.89870e+01   8.94663e-02 DIIS
   @DF-RHF iter   3:  -230.29175337063458   -9.76858e+01   6.77445e-02 DIIS
   @DF-RHF iter   4:  -271.27145244210641   -4.09797e+01   6.08148e-02 DIIS
   @DF-RHF iter   5:  -333.44962523924704   -6.21782e+01   3.22386e-02 DIIS
   @DF-RHF iter   6:  -344.49101913270653   -1.10414e+01   6.77796e-03 DIIS
   @DF-RHF iter   7:  -344.79350597104445   -3.02487e-01   3.18512e-03 DIIS
   @DF-RHF iter   8:  -344.86472757227381   -7.12216e-02   1.46915e-03 DIIS
   @DF-RHF iter   9:  -344.88491093254714   -2.01834e-02   3.93191e-04 DIIS
   @DF-RHF iter  10:  -344.88662803127608   -1.71710e-03   1.08995e-04 DIIS
   @DF-RHF iter  11:  -344.88680821075963   -1.80179e-04   4.60670e-05 DIIS
   @DF-RHF iter  12:  -344.88684163907163   -3.34283e-05   1.53664e-05 DIIS
   @DF-RHF iter  13:  -344.88684502768416   -3.38861e-06   9.15833e-06 DIIS
   @DF-RHF iter  14:  -344.88684606149201   -1.03381e-06   1.99358e-06 DIIS
   @DF-RHF iter  15:  -344.88684616373956   -1.02248e-07   7.65093e-07 DIIS
   @DF-RHF iter  16:  -344.88684617519874   -1.14592e-08   1.81189e-07 DIIS
   @DF-RHF iter  17:  -344.88684617587904   -6.80302e-10   5.57209e-08 DIIS
   @DF-RHF iter  18:  -344.88684617592975   -5.07043e-11   1.40316e-08 DIIS
   @DF-RHF iter  19:  -344.88684617593407   -4.32010e-12   3.75880e-09 DIIS

  ==> Post-Iterations <==

    Orbital Energies (a.u.)
    -----------------------

    Doubly Occupied:                                                      

       1A    -20.587609     2A    -20.554859     3A    -11.373961  
       4A    -11.294251     5A    -11.237335     6A    -11.222504  
       7A    -11.215534     8A     -1.464640     9A     -1.366950  
      10A     -1.080050    11A     -0.996769    12A     -0.952092  
      13A     -0.832521    14A     -0.768552    15A     -0.699092  
      16A     -0.681608    17A     -0.675285    18A     -0.633797  
      19A     -0.616585    20A     -0.577709    21A     -0.565895  
      22A     -0.541418    23A     -0.517991    24A     -0.491770  
      25A     -0.490693    26A     -0.480393    27A     -0.454642  
      28A     -0.434419  

    Virtual:                                                              

      29A      0.178369    30A      0.217991    31A      0.244451  
      32A      0.283924    33A      0.288627    34A      0.302427  
      35A      0.307073    36A      0.314815    37A      0.320731  
      38A      0.337441    39A      0.347006    40A      0.372974  
      41A      0.405418    42A      0.420976    43A      0.467126  
      44A      0.530173    45A      0.571939    46A      0.710580  
      47A      0.730253    48A      0.739853    49A      0.748777  
      50A      0.757195    51A      0.780470    52A      0.796611  
      53A      0.822758    54A      0.855255    55A      0.941696  
      56A      0.947248    57A      0.963430    58A      0.971829  
      59A      1.060625    60A      1.067487    61A      1.086075  
      62A      1.100365    63A      1.117723    64A      1.132907  
      65A      1.143317    66A      1.170793    67A      1.180645  
      68A      1.199402    69A      1.221097    70A      1.222948  
      71A      1.238503    72A      1.257220    73A      1.277805  
      74A      1.293576    75A      1.306754    76A      1.411264  
      77A      1.427731    78A      1.439077    79A      1.614064  
      80A      1.643242    81A      1.661298    82A      1.683668  
      83A      1.765585    84A      1.807397    85A      1.846166  
      86A      1.951627    87A      2.000432    88A      2.031013  
      89A      2.062275    90A      2.092842    91A      2.143200  
      92A      2.158302    93A      2.196051    94A      2.261181  
      95A      2.278617    96A      2.290602    97A      2.299084  
      98A      2.387142    99A      2.388702   100A      2.395174  
     101A      2.473960   102A      2.481545   103A      2.519227  
     104A      2.598899   105A      2.653359   106A      2.685958  
     107A      2.697965   108A      2.739625   109A      2.812875  
     110A      2.847196   111A      2.948575   112A      2.954321  
     113A      3.001527   114A      3.193101   115A      3.253848  
     116A      3.324671   117A      3.394004   118A      3.522317  
     119A      4.384535   120A      4.556788   121A      4.612308  
     122A      4.668211   123A      4.753187   124A      4.837785  
     125A      4.996029  

    Final Occupation by Irrep:
              A 
    DOCC [    28 ]

  Energy converged.

  @DF-RHF Final Energy:  -344.88684617593407

   => Energetics <=

    Nuclear Repulsion Energy =            313.3723382801038611
    One-Electron Energy =               -1090.9005233391612819
    Two-Electron Energy =                 432.6413388831238080
    DFT Exchange-Correlation Energy =       0.0000000000000000
    Empirical Dispersion Energy =           0.0000000000000000
    PCM Polarization Energy =               0.0000000000000000
    EFP Energy =                            0.0000000000000000
    Total Energy =                       -344.8868461759336697

    Alert: EFP and PCM quantities not currently incorporated into SCF psivars.

Properties will be evaluated at   0.000000,   0.000000,   0.000000 Bohr
  ==> Properties <==


Properties computed using the SCF density matrix

  Nuclear Dipole Moment: (a.u.)
     X:    -7.5829      Y:    -3.6236      Z:    -2.5443

  Electronic Dipole Moment: (a.u.)
     X:     7.3479      Y:     2.5885      Z:     1.9017

  Dipole Moment: (a.u.)
     X:    -0.2350      Y:    -1.0350      Z:    -0.6426     Total:     1.2407

  Dipole Moment: (Debye)
     X:    -0.5974      Y:    -2.6308      Z:    -1.6332     Total:     3.1536


  Saving occupied orbitals to File 180.

*** tstop() called on cx1-3-1-1.cx1.hpc.ic.ac.uk at Fri Sep  2 13:38:38 2016
Module time:
	user time   =      15.50 seconds =       0.26 minutes
	system time =       0.20 seconds =       0.00 minutes
	total time  =          6 seconds =       0.10 minutes
Total time:
	user time   =      15.50 seconds =       0.26 minutes
	system time =       0.20 seconds =       0.00 minutes
	total time  =          6 seconds =       0.10 minutes

*** tstart() called on cx1-3-1-1.cx1.hpc.ic.ac.uk
*** at Fri Sep  2 13:38:38 2016


         ------------------------------------------------------------
                                   SCF GRAD                          
                          Rob Parrish, Justin Turney,                
                       Andy Simmonett, and Alex Sokolov              
         ------------------------------------------------------------

  ==> Geometry <==

    Molecular point group: c1
    Full point group: C1

    Geometry (in Angstrom), charge = 0, multiplicity = 1:

       Center              X                  Y                   Z               Mass       
    ------------   -----------------  -----------------  -----------------  -----------------
           O          0.856720681480     1.428040906374     0.191856000661    15.994914619560
           C          0.683115681480     0.252057906374     0.191788000661    12.000000000000
           C         -0.659912318520    -0.436428093626     0.191435000661    12.000000000000
           O          1.675309681480    -0.628972093626     0.191891000661    15.994914619560
           C         -1.838347318520     0.532738906374     0.192057000661    12.000000000000
           H         -0.690044318520    -1.090876093626    -0.675570999339     1.007825032070
           H         -0.689987318520    -1.092017093626     1.057583000661     1.007825032070
           C         -3.180924318520    -0.196682093626     0.192001000661    12.000000000000
           H         -1.769220318520     1.180952906374    -0.674915999339     1.007825032070
           H         -1.768955318520     1.180063906374     1.059657000661     1.007825032070
           H         -3.287878318520    -0.828820093626    -0.685161999339     1.007825032070
           H         -4.004911318520     0.509325906374     0.191911000661     1.007825032070
           H         -3.288087318520    -0.828814093626     1.069155000661     1.007825032070
           C          2.301526681480    -0.891803093626    -1.050678999339    12.000000000000
           H          1.588207681480    -1.287021093626    -1.759565999339     1.007825032070
           H          3.068847681480    -1.621922093626    -0.845708999339     1.007825032070
           H          2.740314681480     0.009765906374    -1.453353999339     1.007825032070

  Nuclear repulsion =  313.372338280103918

  ==> Basis Set <==

  Basis Set: 6-31G*
    Number of shells: 62
    Number of basis function: 125
    Number of Cartesian functions: 125
    Spherical Harmonics?: false
    Max angular momentum: 2

  ==> DFJKGrad: Density-Fitted SCF Gradients <==

    Gradient:                    1
    J tasked:                  Yes
    K tasked:                  Yes
    wK tasked:                  No
    OpenMP threads:              4
    Integrals threads:           4
    Memory (MB):              1430
    Schwarz Cutoff:          0E+00
    Fitting Condition:       1E-12

   => Auxiliary Basis Set <=

  Basis Set: 
    Number of shells: 258
    Number of basis function: 817
    Number of Cartesian functions: 817
    Spherical Harmonics?: false
    Max angular momentum: 3


  -Total Gradient:
     Atom            X                  Y                   Z
    ------   -----------------  -----------------  -----------------
       1        0.000572474092     0.011295559251     0.000985232115
       2        0.014666894994    -0.017350392531     0.002757525879
       3        0.003981220581    -0.007835622800    -0.004340808583
       4       -0.017345243437     0.014370471781     0.001475043682
       5        0.001479316300     0.001867113768     0.000195424754
       6       -0.000059888375     0.000472577915     0.000512082062
       7       -0.000415865312     0.000335652848     0.000067743504
       8        0.000393716700    -0.000605382480    -0.000070586505
       9        0.000024740247    -0.000122812813     0.000117461552
      10       -0.000259919491     0.000148725433    -0.000013184325
      11        0.000060802058     0.000058765431     0.000085251364
      12        0.000168185274     0.000142140890     0.000022817781
      13       -0.000047928169    -0.000035329643     0.000020878859
      14       -0.003321404072    -0.004598323250    -0.005314753351
      15        0.001300829958     0.002818217955     0.001639065039
      16        0.000266621924    -0.000052162532     0.002112150096
      17       -0.001464553281    -0.000909199224    -0.000251343922


*** tstop() called on cx1-3-1-1.cx1.hpc.ic.ac.uk at Fri Sep  2 13:38:43 2016
Module time:
	user time   =      17.70 seconds =       0.30 minutes
	system time =       0.19 seconds =       0.00 minutes
	total time  =          5 seconds =       0.08 minutes
Total time:
	user time   =      33.22 seconds =       0.55 minutes
	system time =       0.39 seconds =       0.01 minutes
	total time  =         11 seconds =       0.18 minutes
CURRENT ENERGY: -344.8868461759

			-----------------------------------------
			 OPTKING 2.0: for geometry optimizations 
			  - R.A. King,  Bethel University        
			-----------------------------------------

	Internal coordinates to be generated automatically.
	Detected frag with atoms:  1 2 3 4 5 6 7 8 9 10 11 12 13 14 15 16 17
	---Fragment 1 Bond Connectivity---
	 1 : 2
	 2 : 1 3 4
	 3 : 2 5 6 7
	 4 : 2 14
	 5 : 3 8 9 10
	 6 : 3
	 7 : 3
	 8 : 5 11 12 13
	 9 : 5
	 10 : 5
	 11 : 8
	 12 : 8
	 13 : 8
	 14 : 4 15 16 17
	 15 : 14
	 16 : 14
	 17 : 14

	Assuming in current code that numbering for constraints corresponds to unified fragment.
	Frozen dihedral atom list: 
	    14     4     2     1
	---Fragment 1 Geometry and Gradient---
	 O           1.6189674604        2.6986062196        0.3625552982
	 C           1.2909015551        0.4763204127        0.3624267968
	 C          -1.2470535537       -0.8247295737        0.3617597235
	 O           3.1658764858       -1.1885850022        0.3626214386
	 C          -3.4739729691        1.0067306334        0.3629351332
	 H          -1.3039947816       -2.0614570619       -1.2766441721
	 H          -1.3038870672       -2.0636132394        1.9985422340
	 C          -6.0110758114       -0.3716752922        0.3628293085
	 H          -3.3433418707        2.2316775689       -1.2754064015
	 H          -3.3428410933        2.2299976024        2.0024615260
	 H          -6.2131895803       -1.5662429904       -1.2947685354
	 H          -7.5681855785        0.9624864754        0.3626592331
	 H          -6.2135845330       -1.5662316520        2.0204101449
	 C           4.3492551155       -1.6852636114       -1.9854955623
	 H           3.0012775601       -2.4321173942       -3.3250978515
	 H           5.7992816615       -3.0649885658       -1.5981583969
	 H           5.1784442659        0.0184548885       -2.7464410329
	             0.0005724741        0.0112955593        0.0009852321
	             0.0146668950       -0.0173503925        0.0027575259
	             0.0039812206       -0.0078356228       -0.0043408086
	            -0.0173452434        0.0143704718        0.0014750437
	             0.0014793163        0.0018671138        0.0001954248
	            -0.0000598884        0.0004725779        0.0005120821
	            -0.0004158653        0.0003356528        0.0000677435
	             0.0003937167       -0.0006053825       -0.0000705865
	             0.0000247402       -0.0001228128        0.0001174616
	            -0.0002599195        0.0001487254       -0.0000131843
	             0.0000608021        0.0000587654        0.0000852514
	             0.0001681853        0.0001421409        0.0000228178
	            -0.0000479282       -0.0000353296        0.0000208789
	            -0.0033214041       -0.0045983233       -0.0053147534
	             0.0013008300        0.0028182180        0.0016390650
	             0.0002666219       -0.0000521625        0.0021121501
	            -0.0014645533       -0.0009091992       -0.0002513439

	Previous optimization step data not found.  Starting new optimization.

	---Fragment 1 Intrafragment Coordinates---
	 - Coordinate -           - BOHR/RAD -       - ANG/DEG -
	 R(1,2)           =         2.246371	       1.188728
	 R(2,3)           =         2.852008	       1.509218
	 R(2,4)           =         2.507477	       1.326900
	 R(3,5)           =         2.883300	       1.525777
	 R(3,6)           =         2.053559	       1.086697
	 R(3,7)           =         2.053563	       1.086699
	 R(4,14)          =         2.675954	       1.416054
	 R(5,8)           =         2.887368	       1.527929
	 R(5,9)           =         2.049810	       1.084713
	 R(5,10)          =         2.049786	       1.084700
	 R(8,11)          =         2.053162	       1.086486
	 R(8,12)          =         2.050507	       1.085082
	 R(8,13)          =         2.053180	       1.086496
	 R(14,15)         =         2.041903	       1.080529
	 R(14,16)         =         2.038688	       1.078827
	 R(14,17)         =         2.041874	       1.080513
	 B(1,2,3)         =         2.191069	     125.539022
	 B(1,2,4)         =         2.150353	     123.206180
	 B(2,3,5)         =         1.979624	     113.424111
	 B(2,3,6)         =         1.875063	     107.433215
	 B(2,3,7)         =         1.875125	     107.436742
	 B(2,4,14)        =         2.041875	     116.990836
	 B(3,2,4)         =         1.941763	     111.254798
	 B(3,5,8)         =         1.955646	     112.050281
	 B(3,5,9)         =         1.907143	     109.271230
	 B(3,5,10)        =         1.907086	     109.267981
	 B(4,14,15)       =         1.930108	     110.587064
	 B(4,14,16)       =         1.847757	     105.868670
	 B(4,14,17)       =         1.930214	     110.593104
	 B(5,3,6)         =         1.940616	     111.189111
	 B(5,3,7)         =         1.940677	     111.192591
	 B(5,8,11)        =         1.943660	     111.363500
	 B(5,8,12)        =         1.935469	     110.894195
	 B(5,8,13)        =         1.943771	     111.369894
	 B(6,3,7)         =         1.846084	     105.772847
	 B(8,5,9)         =         1.919046	     109.953232
	 B(8,5,10)        =         1.918925	     109.946284
	 B(9,5,10)        =         1.853120	     106.175969
	 B(11,8,12)       =         1.879412	     107.682364
	 B(11,8,13)       =         1.879231	     107.672032
	 B(12,8,13)       =         1.879392	     107.681252
	 B(15,14,16)      =         1.924792	     110.282441
	 B(15,14,17)      =         1.905810	     109.194849
	 B(16,14,17)      =         1.924805	     110.283197
	 D(1,2,3,5)       =        -0.000642	      -0.036806
	 D(1,2,3,6)       =         2.151225	     123.256131
	 D(1,2,3,7)       =        -2.152632	    -123.336733
	*D(1,2,4,14)      =        -1.396263	     -79.999985
	 D(2,3,5,8)       =        -3.141366	    -179.987002
	 D(2,3,5,9)       =         1.010468	      57.895562
	 D(2,3,5,10)      =        -1.010208	     -57.880647
	 D(2,4,14,15)     =        -1.056410	     -60.527815
	 D(2,4,14,16)     =        -3.141295	    -179.982947
	 D(2,4,14,17)     =         1.056932	      60.557763
	 D(3,2,4,14)      =         1.745228	      99.994194
	 D(3,5,8,11)      =        -1.048478	     -60.073363
	 D(3,5,8,12)      =        -3.141063	    -179.969664
	 D(3,5,8,13)      =         1.049487	      60.131187
	 D(4,2,3,5)       =         3.141055	     179.969180
	 D(4,2,3,6)       =        -0.990263	     -56.737883
	 D(4,2,3,7)       =         0.989065	      56.669253
	 D(6,3,5,8)       =         1.026367	      58.806521
	 D(6,3,5,9)       =        -1.104984	     -63.310915
	 D(6,3,5,10)      =        -3.125660	    -179.087124
	 D(7,3,5,8)       =        -1.025788	     -58.773347
	 D(7,3,5,9)       =         3.126046	     179.109217
	 D(7,3,5,10)      =         1.105370	      63.333008
	 D(9,5,8,11)      =         1.076065	      61.653991
	 D(9,5,8,12)      =        -1.016520	     -58.242310
	 D(9,5,8,13)      =        -3.109155	    -178.141459
	 D(10,5,8,11)     =         3.110321	     178.208290
	 D(10,5,8,12)     =         1.017736	      58.311989
	 D(10,5,8,13)     =        -1.074899	     -61.587160

	Current energy   :      -344.8868461759

	Generating empirical Hessian (Schlegel '84) for each fragment.
	Taking RFO optimization step.
	Going to follow RFO solution 1.
	Using RFO vector 1.
	Norm of target step-size    0.46249
	Projected energy change by RFO approximation:        -0.0027916593

	Back-transformation to cartesian coordinates...
	Successfully converged to displaced geometry.

	Back-transformation to cartesian coordinates to adjust frozen coordinates...
	Successfully converged to displaced geometry.

	--- Internal Coordinate Step in ANG or DEG, aJ/ANG or AJ/DEG ---
	 ---------------------------------------------------------------------------
	   Coordinate                Previous        Force       Change         New 
	   ----------                --------       ------       ------       ------
	    1 R(1,2)          =      1.188728    -0.092752    -0.005359     1.183369
	    2 R(2,3)          =      1.509218     0.018079     0.003641     1.512859
	    3 R(2,4)          =      1.326900     0.190298     0.020135     1.347035
	    4 R(3,5)          =      1.525777     0.003968     0.000842     1.526618
	    5 R(3,6)          =      1.086697     0.005697     0.001026     1.087723
	    6 R(3,7)          =      1.086699     0.001129     0.000203     1.086902
	    7 R(4,14)         =      1.416054    -0.005586    -0.000824     1.415229
	    8 R(5,8)          =      1.527929     0.002431     0.000519     1.528449
	    9 R(5,9)          =      1.084713     0.001365     0.000244     1.084957
	   10 R(5,10)         =      1.084700    -0.000507    -0.000091     1.084610
	   11 R(8,11)         =      1.086486     0.000898     0.000162     1.086648
	   12 R(8,12)         =      1.085082     0.000290     0.000052     1.085134
	   13 R(8,13)         =      1.086496    -0.000347    -0.000062     1.086434
	   14 R(14,15)        =      1.080529     0.024427     0.004312     1.084840
	   15 R(14,16)        =      1.078827    -0.005159    -0.000905     1.077922
	   16 R(14,17)        =      1.080513     0.010378     0.001832     1.082345
	   17 B(1,2,3)        =    125.539022    -0.000335    -1.719232   123.819790
	   18 B(1,2,4)        =    123.206180    -0.000520    -2.257550   120.948630
	   19 B(2,3,5)        =    113.424111     0.000268     0.995414   114.419525
	   20 B(2,3,6)        =    107.433215    -0.000091    -0.283416   107.149799
	   21 B(2,3,7)        =    107.436742    -0.000109    -0.332585   107.104156
	   22 B(2,4,14)       =    116.990836     0.000056     0.164202   117.155038
	   23 B(3,2,4)        =    111.254798     0.000855     1.816469   113.071268
	   24 B(3,5,8)        =    112.050281     0.000085     0.310103   112.360384
	   25 B(3,5,9)        =    109.271230    -0.000019    -0.012920   109.258311
	   26 B(3,5,10)       =    109.267981    -0.000044    -0.229703   109.038278
	   27 B(4,14,15)      =    110.587064     0.000025     0.138225   110.725289
	   28 B(4,14,16)      =    105.868670     0.000179     0.727936   106.596606
	   29 B(4,14,17)      =    110.593104    -0.000029    -0.064628   110.528476
	   30 B(5,3,6)        =    111.189111    -0.000070    -0.216409   110.972702
	   31 B(5,3,7)        =    111.192591    -0.000040    -0.003675   111.188915
	   32 B(5,8,11)       =    111.363500     0.000001     0.001639   111.365139
	   33 B(5,8,12)       =    110.894195     0.000024     0.123769   111.017964
	   34 B(5,8,13)       =    111.369894    -0.000010    -0.053006   111.316888
	   35 B(6,3,7)        =    105.772847     0.000024    -0.260838   105.512009
	   36 B(8,5,9)        =    109.953232    -0.000028    -0.044012   109.909220
	   37 B(8,5,10)       =    109.946284    -0.000013    -0.014299   109.931985
	   38 B(9,5,10)       =    106.175969     0.000015    -0.029959   106.146010
	   39 B(11,8,12)      =    107.682364    -0.000012    -0.039885   107.642479
	   40 B(11,8,13)      =    107.672032     0.000001    -0.017585   107.654447
	   41 B(12,8,13)      =    107.681252    -0.000006    -0.019208   107.662044
	   42 B(15,14,16)     =    110.282441    -0.000166    -0.898862   109.383579
	   43 B(15,14,17)     =    109.194849     0.000080     0.533602   109.728452
	   44 B(16,14,17)     =    110.283197    -0.000091    -0.458414   109.824783
	   45 D(1,2,3,5)      =     -0.036806     0.000033     8.107129     8.070323
	   46 D(1,2,3,6)      =    123.256131     0.000038     8.283417   131.539549
	   47 D(1,2,3,7)      =   -123.336733     0.000022     7.693727  -115.643006
	   48 *D(1,2,4,14)    =    -79.999985    -0.000000     0.000000   -79.999985
	   49 D(2,3,5,8)      =   -179.987002    -0.000000     0.033928  -179.953074
	   50 D(2,3,5,9)      =     57.895562    -0.000002    -0.108806    57.786756
	   51 D(2,3,5,10)     =    -57.880647     0.000002     0.061624   -57.819023
	   52 D(2,4,14,15)    =    -60.527815    -0.000015    -1.117151   -61.644965
	   53 D(2,4,14,16)    =   -179.982947     0.000003    -0.547052  -180.529999
	   54 D(2,4,14,17)    =     60.557763     0.000007    -0.394765    60.162997
	   55 D(3,2,4,14)     =     99.994194     0.000062    16.099295   116.093489
	   56 D(3,5,8,11)     =    -60.073363    -0.000001    -0.062000   -60.135363
	   57 D(3,5,8,12)     =   -179.969664    -0.000002    -0.095805  -180.065469
	   58 D(3,5,8,13)     =     60.131187    -0.000002    -0.119260    60.011926
	   59 D(4,2,3,5)      =    179.969180    -0.000031    -8.527030   171.442149
	   60 D(4,2,3,6)      =    -56.737883    -0.000026    -8.350742   -65.088625
	   61 D(4,2,3,7)      =     56.669253    -0.000041    -8.940433    47.728820
	   62 D(6,3,5,8)      =     58.806521    -0.000005    -0.149226    58.657295
	   63 D(6,3,5,9)      =    -63.310915    -0.000007    -0.291960   -63.602874
	   64 D(6,3,5,10)     =   -179.087124    -0.000003    -0.121530  -179.208654
	   65 D(7,3,5,8)      =    -58.773347     0.000004     0.315752   -58.457596
	   66 D(7,3,5,9)      =    179.109217     0.000003     0.173017   179.282235
	   67 D(7,3,5,10)     =     63.333008     0.000007     0.343447    63.676455
	   68 D(9,5,8,11)     =     61.653991     0.000002     0.101305    61.755297
	   69 D(9,5,8,12)     =    -58.242310     0.000001     0.067501   -58.174809
	   70 D(9,5,8,13)     =   -178.141459     0.000001     0.044045  -178.097414
	   71 D(10,5,8,11)    =    178.208290     0.000001     0.030726   178.239016
	   72 D(10,5,8,12)    =     58.311989     0.000000    -0.003079    58.308910
	   73 D(10,5,8,13)    =    -61.587160    -0.000000    -0.026534   -61.613695
	 ---------------------------------------------------------------------------

  ==> Convergence Check <==

  Measures of convergence in internal coordinates in au.
  Criteria marked as inactive (o), active & met (*), and active & unmet ( ).
  --------------------------------------------------------------------------------------------- ~
   Step     Total Energy     Delta E     MAX Force     RMS Force      MAX Disp      RMS Disp    ~
  --------------------------------------------------------------------------------------------- ~
    Convergence Criteria    1.00e-06 *    3.00e-04 *             o    1.20e-03 *             o  ~
  --------------------------------------------------------------------------------------------- ~
      1    -344.88684618   -3.45e+02      2.31e-02      3.58e-03 o    2.81e-01      5.39e-02 o  ~
  ---------------------------------------------------------------------------------------------

	Writing optimization data to binary file.
	Structure for next step:
	Cartesian Geometry (in Angstrom)
	    O     0.8220033133   1.3442132846   0.1089215320
	    C     0.6271465626   0.1827201168  -0.0065175691
	    C    -0.7398306713  -0.4565028733   0.1007654417
	    O     1.6348900352  -0.7036176739   0.1090766446
	    C    -1.8964725366   0.5366641387   0.1805323719
	    H    -0.8527970035  -1.1177271585  -0.7554834952
	    H    -0.7207133914  -1.1079641919   0.9705864489
	    C    -3.2533905918  -0.1584943386   0.2886220655
	    H    -1.8785197058   1.1779052135  -0.6944647491
	    H    -1.7454839716   1.1877306795   1.0347529062
	    H    -3.4422453257  -0.7941318657  -0.5722512528
	    H    -4.0587476575   0.5665777135   0.3450620465
	    H    -3.3081871996  -0.7818069353   1.1767757981
	    C     2.4727889639  -0.8795518651  -1.0177981853
	    H     1.9047903706  -1.2504188427  -1.8643875295
	    H     3.2156338608  -1.6089013029  -0.7382519953
	    H     2.9549089025   0.0528960187  -1.2815636675
			--------------------------
			 OPTKING Finished Execution 
			--------------------------

    Structure for next step:
    Molecular point group: c1
    Full point group: C1

    Geometry (in Angstrom), charge = 0, multiplicity = 1:

    O            0.843290258801     1.371256992373     0.151674664240
    C            0.648433522896     0.209763913195     0.036235571929
    C           -0.718543606561    -0.429459028016     0.143518574598
    O            1.656176918615    -0.676573809758     0.151829776892
    C           -1.875185383555     0.563707908075     0.223285498703
    H           -0.831509930095    -1.090683262750    -0.712730296931
    H           -0.699426328153    -1.080920296921     1.013339515328
    C           -3.232103335097    -0.131450516084     0.331375184025
    H           -1.857232554139     1.204948933929    -0.651711555471
    H           -1.724196830049     1.214774399203     1.077505967706
    H           -3.420958054558    -0.767087994709    -0.529498068559
    H           -4.037460339317     0.593621480652     0.387815160684
    H           -3.286899938773    -0.754763065241     1.219528848783
    C            2.494075783254    -0.852507987518    -0.975044966984
    H            1.926077233336    -1.223374936865    -1.821634246528
    H            3.236920623454    -1.581857369674    -0.695498798330
    H            2.976195685079     0.079939825079    -1.238810429109

gradient() will perform analytic gradient computation.

*** tstart() called on cx1-3-1-1.cx1.hpc.ic.ac.uk
*** at Fri Sep  2 13:38:44 2016


         ---------------------------------------------------------
                                   SCF
            by Justin Turney, Rob Parrish, and Andy Simmonett
                              RHF Reference
                        4 Threads,   2000 MiB Core
         ---------------------------------------------------------

  ==> Geometry <==

    Molecular point group: c1
    Full point group: C1

    Geometry (in Angstrom), charge = 0, multiplicity = 1:

       Center              X                  Y                   Z               Mass       
    ------------   -----------------  -----------------  -----------------  -----------------
           O          0.843290258801     1.371256992373     0.151674664240    15.994914619560
           C          0.648433522896     0.209763913195     0.036235571929    12.000000000000
           C         -0.718543606561    -0.429459028016     0.143518574598    12.000000000000
           O          1.656176918615    -0.676573809758     0.151829776892    15.994914619560
           C         -1.875185383555     0.563707908075     0.223285498703    12.000000000000
           H         -0.831509930095    -1.090683262750    -0.712730296931     1.007825032070
           H         -0.699426328153    -1.080920296921     1.013339515328     1.007825032070
           C         -3.232103335097    -0.131450516084     0.331375184025    12.000000000000
           H         -1.857232554139     1.204948933929    -0.651711555471     1.007825032070
           H         -1.724196830049     1.214774399203     1.077505967706     1.007825032070
           H         -3.420958054558    -0.767087994709    -0.529498068559     1.007825032070
           H         -4.037460339317     0.593621480652     0.387815160684     1.007825032070
           H         -3.286899938773    -0.754763065241     1.219528848783     1.007825032070
           C          2.494075783254    -0.852507987518    -0.975044966984    12.000000000000
           H          1.926077233336    -1.223374936865    -1.821634246528     1.007825032070
           H          3.236920623454    -1.581857369674    -0.695498798330     1.007825032070
           H          2.976195685079     0.079939825079    -1.238810429109     1.007825032070

  Running in c1 symmetry.

  Rotational constants: A =      0.22225  B =      0.04158  C =      0.03720 [cm^-1]
  Rotational constants: A =   6662.88937  B =   1246.45517  C =   1115.22138 [MHz]
  Nuclear repulsion =  311.396579689418559

  Charge       = 0
  Multiplicity = 1
  Electrons    = 56
  Nalpha       = 28
  Nbeta        = 28

  ==> Algorithm <==

  SCF Algorithm Type is DF.
  DIIS enabled.
  MOM disabled.
  Fractional occupation disabled.
  Guess Type is READ.
  Energy threshold   = 1.00e-08
  Density threshold  = 1.00e-08
  Integral threshold = 0.00e+00

  ==> Primary Basis <==

  Basis Set: 6-31G*
    Number of shells: 62
    Number of basis function: 125
    Number of Cartesian functions: 125
    Spherical Harmonics?: false
    Max angular momentum: 2

  ==> Pre-Iterations <==

   -------------------------------------------------------
    Irrep   Nso     Nmo     Nalpha   Nbeta   Ndocc  Nsocc
   -------------------------------------------------------
     A        125     125       0       0       0       0
   -------------------------------------------------------
    Total     125     125      28      28      28       0
   -------------------------------------------------------

 OEINTS: Overlap, kinetic, potential, dipole, and quadrupole integrals
         stored in file 35.

  ==> Integral Setup <==

  ==> DFJK: Density-Fitted J/K Matrices <==

    J tasked:                  Yes
    K tasked:                  Yes
    wK tasked:                  No
    OpenMP threads:              4
    Integrals threads:           4
    Memory (MB):              1430
    Algorithm:                Core
    Integral Cache:           NONE
    Schwarz Cutoff:          1E-12
    Fitting Condition:       1E-12

   => Auxiliary Basis Set <=

  Basis Set: 
    Number of shells: 258
    Number of basis function: 817
    Number of Cartesian functions: 817
    Spherical Harmonics?: false
    Max angular momentum: 3

  Minimum eigenvalue in the overlap matrix is 3.2140625188E-03.
  Using Symmetric Orthogonalization.
  SCF Guess: Reading in previously saved MOs, projecting if necessary.

  Using orbitals from previous SCF, no projection.
  Recomputing DOCC and SOCC from number of alpha and beta electrons from previous calculation.
              A 
    DOCC [    28 ]

  ==> Iterations <==

                           Total Energy        Delta E     RMS |[F,P]|

   @DF-RHF iter   0:  -344.80886537540937   -3.44809e+02   2.98160e-03 
   @DF-RHF iter   1:  -344.88122090887077   -7.23555e-02   4.83884e-04 
   @DF-RHF iter   2:  -344.88454432935498   -3.32342e-03   1.73252e-04 DIIS
   @DF-RHF iter   3:  -344.88501648854594   -4.72159e-04   6.83298e-05 DIIS
   @DF-RHF iter   4:  -344.88507463289943   -5.81444e-05   1.91248e-05 DIIS
   @DF-RHF iter   5:  -344.88508006477855   -5.43188e-06   9.75135e-06 DIIS
   @DF-RHF iter   6:  -344.88508240473470   -2.33996e-06   3.42494e-06 DIIS
   @DF-RHF iter   7:  -344.88508280494079   -4.00206e-07   1.72617e-06 DIIS
   @DF-RHF iter   8:  -344.88508289266770   -8.77269e-08   6.13574e-07 DIIS
   @DF-RHF iter   9:  -344.88508290581842   -1.31507e-08   2.11549e-07 DIIS
   @DF-RHF iter  10:  -344.88508290739253   -1.57411e-09   7.42909e-08 DIIS
   @DF-RHF iter  11:  -344.88508290755578   -1.63254e-10   2.25395e-08 DIIS
   @DF-RHF iter  12:  -344.88508290757068   -1.48930e-11   6.80338e-09 DIIS

  ==> Post-Iterations <==

    Orbital Energies (a.u.)
    -----------------------

    Doubly Occupied:                                                      

       1A    -20.587485     2A    -20.555115     3A    -11.373774  
       4A    -11.290761     5A    -11.238598     6A    -11.223501  
       7A    -11.216064     8A     -1.460639     9A     -1.365136  
      10A     -1.079130    11A     -0.993711    12A     -0.948041  
      13A     -0.831848    14A     -0.765511    15A     -0.698355  
      16A     -0.677608    17A     -0.672385    18A     -0.633452  
      19A     -0.614541    20A     -0.577438    21A     -0.565883  
      22A     -0.536129    23A     -0.519113    24A     -0.494475  
      25A     -0.489698    26A     -0.480016    27A     -0.452132  
      28A     -0.434684  

    Virtual:                                                              

      29A      0.172806    30A      0.225389    31A      0.246551  
      32A      0.285189    33A      0.292142    34A      0.300863  
      35A      0.308268    36A      0.308892    37A      0.322295  
      38A      0.335805    39A      0.342598    40A      0.361586  
      41A      0.402070    42A      0.422273    43A      0.468643  
      44A      0.531417    45A      0.561640    46A      0.712385  
      47A      0.732510    48A      0.740046    49A      0.750989  
      50A      0.755335    51A      0.780164    52A      0.783728  
      53A      0.832205    54A      0.859086    55A      0.934533  
      56A      0.950919    57A      0.957671    58A      0.982840  
      59A      1.059302    60A      1.069620    61A      1.083348  
      62A      1.099942    63A      1.117489    64A      1.134695  
      65A      1.140896    66A      1.166123    67A      1.177665  
      68A      1.199798    69A      1.215486    70A      1.220222  
      71A      1.229142    72A      1.256503    73A      1.268915  
      74A      1.280298    75A      1.313621    76A      1.414282  
      77A      1.424338    78A      1.453736    79A      1.600295  
      80A      1.645630    81A      1.649570    82A      1.683995  
      83A      1.777392    84A      1.812898    85A      1.835425  
      86A      1.928727    87A      1.977242    88A      2.031670  
      89A      2.044271    90A      2.104311    91A      2.143167  
      92A      2.160685    93A      2.200564    94A      2.249123  
      95A      2.278171    96A      2.296907    97A      2.301392  
      98A      2.361997    99A      2.390377   100A      2.395946  
     101A      2.476563   102A      2.493664   103A      2.519285  
     104A      2.599827   105A      2.664698   106A      2.681169  
     107A      2.700554   108A      2.725999   109A      2.777407  
     110A      2.872416   111A      2.928494   112A      2.968510  
     113A      3.003558   114A      3.195035   115A      3.207587  
     116A      3.316887   117A      3.397896   118A      3.497352  
     119A      4.364559   120A      4.543591   121A      4.588755  
     122A      4.655088   123A      4.715741   124A      4.822308  
     125A      4.979932  

    Final Occupation by Irrep:
              A 
    DOCC [    28 ]

  Energy converged.

  @DF-RHF Final Energy:  -344.88508290757068

   => Energetics <=

    Nuclear Repulsion Energy =            311.3965796894185587
    One-Electron Energy =               -1087.0128842170465759
    Two-Electron Energy =                 430.7312216200571129
    DFT Exchange-Correlation Energy =       0.0000000000000000
    Empirical Dispersion Energy =           0.0000000000000000
    PCM Polarization Energy =               0.0000000000000000
    EFP Energy =                            0.0000000000000000
    Total Energy =                       -344.8850829075709044

    Alert: EFP and PCM quantities not currently incorporated into SCF psivars.

Properties will be evaluated at   0.000000,   0.000000,   0.000000 Bohr
  ==> Properties <==


Properties computed using the SCF density matrix

  Nuclear Dipole Moment: (a.u.)
     X:    -7.2238      Y:    -3.1891      Z:    -1.8282

  Electronic Dipole Moment: (a.u.)
     X:     7.0310      Y:     2.2471      Z:     1.1763

  Dipole Moment: (a.u.)
     X:    -0.1928      Y:    -0.9420      Z:    -0.6519     Total:     1.1617

  Dipole Moment: (Debye)
     X:    -0.4900      Y:    -2.3944      Z:    -1.6568     Total:     2.9527


  Saving occupied orbitals to File 180.

*** tstop() called on cx1-3-1-1.cx1.hpc.ic.ac.uk at Fri Sep  2 13:38:49 2016
Module time:
	user time   =      14.56 seconds =       0.24 minutes
	system time =       0.16 seconds =       0.00 minutes
	total time  =          5 seconds =       0.08 minutes
Total time:
	user time   =      49.33 seconds =       0.82 minutes
	system time =       0.59 seconds =       0.01 minutes
	total time  =         17 seconds =       0.28 minutes

*** tstart() called on cx1-3-1-1.cx1.hpc.ic.ac.uk
*** at Fri Sep  2 13:38:49 2016


         ------------------------------------------------------------
                                   SCF GRAD                          
                          Rob Parrish, Justin Turney,                
                       Andy Simmonett, and Alex Sokolov              
         ------------------------------------------------------------

  ==> Geometry <==

    Molecular point group: c1
    Full point group: C1

    Geometry (in Angstrom), charge = 0, multiplicity = 1:

       Center              X                  Y                   Z               Mass       
    ------------   -----------------  -----------------  -----------------  -----------------
           O          0.843290258801     1.371256992373     0.151674664240    15.994914619560
           C          0.648433522896     0.209763913195     0.036235571929    12.000000000000
           C         -0.718543606561    -0.429459028016     0.143518574598    12.000000000000
           O          1.656176918615    -0.676573809758     0.151829776892    15.994914619560
           C         -1.875185383555     0.563707908075     0.223285498703    12.000000000000
           H         -0.831509930095    -1.090683262750    -0.712730296931     1.007825032070
           H         -0.699426328153    -1.080920296921     1.013339515328     1.007825032070
           C         -3.232103335097    -0.131450516084     0.331375184025    12.000000000000
           H         -1.857232554139     1.204948933929    -0.651711555471     1.007825032070
           H         -1.724196830049     1.214774399203     1.077505967706     1.007825032070
           H         -3.420958054558    -0.767087994709    -0.529498068559     1.007825032070
           H         -4.037460339317     0.593621480652     0.387815160684     1.007825032070
           H         -3.286899938773    -0.754763065241     1.219528848783     1.007825032070
           C          2.494075783254    -0.852507987518    -0.975044966984    12.000000000000
           H          1.926077233336    -1.223374936865    -1.821634246528     1.007825032070
           H          3.236920623454    -1.581857369674    -0.695498798330     1.007825032070
           H          2.976195685079     0.079939825079    -1.238810429109     1.007825032070

  Nuclear repulsion =  311.396579689418559

  ==> Basis Set <==

  Basis Set: 6-31G*
    Number of shells: 62
    Number of basis function: 125
    Number of Cartesian functions: 125
    Spherical Harmonics?: false
    Max angular momentum: 2

  ==> DFJKGrad: Density-Fitted SCF Gradients <==

    Gradient:                    1
    J tasked:                  Yes
    K tasked:                  Yes
    wK tasked:                  No
    OpenMP threads:              4
    Integrals threads:           4
    Memory (MB):              1430
    Schwarz Cutoff:          0E+00
    Fitting Condition:       1E-12

   => Auxiliary Basis Set <=

  Basis Set: 
    Number of shells: 258
    Number of basis function: 817
    Number of Cartesian functions: 817
    Spherical Harmonics?: false
    Max angular momentum: 3


  -Total Gradient:
     Atom            X                  Y                   Z
    ------   -----------------  -----------------  -----------------
       1       -0.000409816134    -0.004345326694     0.019281536668
       2        0.003971607819    -0.007125867324    -0.046932890759
       3       -0.000409533586     0.002657707820     0.012685527256
       4        0.001211568634     0.012247938455     0.017074335314
       5       -0.001430725984    -0.001103389691     0.000097923534
       6        0.002368450471     0.001867167400    -0.000095912980
       7       -0.002321652227    -0.000987108084     0.000071294951
       8       -0.000615781184     0.000772291796     0.000277750306
       9        0.000169440322    -0.000163269946     0.000121694926
      10       -0.000021174608     0.000030348113     0.000088682174
      11        0.000019862778    -0.000011010801    -0.000063204230
      12       -0.000370629530    -0.000190311016    -0.000034582793
      13        0.000020845387     0.000009108924    -0.000017458508
      14       -0.001356322246    -0.004557766691    -0.002834746241
      15       -0.000226317421     0.000362057497     0.000084933586
      16       -0.000424051385     0.000338099606    -0.000073184358
      17       -0.000175771111     0.000199330634     0.000268301156


*** tstop() called on cx1-3-1-1.cx1.hpc.ic.ac.uk at Fri Sep  2 13:38:54 2016
Module time:
	user time   =      17.77 seconds =       0.30 minutes
	system time =       0.21 seconds =       0.00 minutes
	total time  =          5 seconds =       0.08 minutes
Total time:
	user time   =      67.12 seconds =       1.12 minutes
	system time =       0.80 seconds =       0.01 minutes
	total time  =         22 seconds =       0.37 minutes
CURRENT ENERGY: -344.8850829076

			-----------------------------------------
			 OPTKING 2.0: for geometry optimizations 
			  - R.A. King,  Bethel University        
			-----------------------------------------

	Previous internal coordinate definitions found.
	---Fragment 1 Geometry and Gradient---
	 O           1.5935876397        2.5913001734        0.2866235767
	 C           1.2253617737        0.3963963485        0.0684753072
	 C          -1.3578506309       -0.8115599482        0.2712108010
	 O           3.1297208038       -1.2785392091        0.2869166971
	 C          -3.5435868233        1.0652535652        0.4219484420
	 H          -1.5713260447       -2.0610926643       -1.3468650678
	 H          -1.3217242103       -2.0426433327        1.9149341636
	 C          -6.1077901365       -0.2484054754        0.6262083450
	 H          -3.5096608924        2.2770234892       -1.2315563575
	 H          -3.2582598080        2.2955909277        2.0361911855
	 H          -6.4646738352       -1.4495862298       -1.0006063375
	 H          -7.6296943137        1.1217820250        0.7328644439
	 H          -6.2113407105       -1.4262954885        2.3045755354
	 C           4.7131201850       -1.6110066225       -1.8425679548
	 H           3.6397584818       -2.3118435885       -3.4423898402
	 H           6.1168934922       -2.9892772100       -1.3143022546
	 H           5.6241947627        0.1510643765       -2.3410124416
	            -0.0004098161       -0.0043453267        0.0192815367
	             0.0039716078       -0.0071258673       -0.0469328908
	            -0.0004095336        0.0026577078        0.0126855273
	             0.0012115686        0.0122479385        0.0170743353
	            -0.0014307260       -0.0011033897        0.0000979235
	             0.0023684505        0.0018671674       -0.0000959130
	            -0.0023216522       -0.0009871081        0.0000712950
	            -0.0006157812        0.0007722918        0.0002777503
	             0.0001694403       -0.0001632699        0.0001216949
	            -0.0000211746        0.0000303481        0.0000886822
	             0.0000198628       -0.0000110108       -0.0000632042
	            -0.0003706295       -0.0001903110       -0.0000345828
	             0.0000208454        0.0000091089       -0.0000174585
	            -0.0013563222       -0.0045577667       -0.0028347462
	            -0.0002263174        0.0003620575        0.0000849336
	            -0.0004240514        0.0003380996       -0.0000731844
	            -0.0001757711        0.0001993306        0.0002683012

	---Fragment 1 Intrafragment Coordinates---
	 - Coordinate -           - BOHR/RAD -       - ANG/DEG -
	 R(1,2)           =         2.236243	       1.183369
	 R(2,3)           =         2.858889	       1.512859
	 R(2,4)           =         2.545527	       1.347035
	 R(3,5)           =         2.884891	       1.526618
	 R(3,6)           =         2.055498	       1.087723
	 R(3,7)           =         2.053947	       1.086902
	 R(4,14)          =         2.674396	       1.415229
	 R(5,8)           =         2.888349	       1.528449
	 R(5,9)           =         2.050272	       1.084957
	 R(5,10)          =         2.049615	       1.084610
	 R(8,11)          =         2.053467	       1.086648
	 R(8,12)          =         2.050605	       1.085134
	 R(8,13)          =         2.053062	       1.086434
	 R(14,15)         =         2.050051	       1.084840
	 R(14,16)         =         2.036977	       1.077922
	 R(14,17)         =         2.045336	       1.082345
	 B(1,2,3)         =         2.161063	     123.819790
	 B(1,2,4)         =         2.110952	     120.948630
	 B(2,3,5)         =         1.996997	     114.419525
	 B(2,3,6)         =         1.870117	     107.149799
	 B(2,3,7)         =         1.869320	     107.104156
	 B(2,4,14)        =         2.044741	     117.155038
	 B(3,2,4)         =         1.973466	     113.071268
	 B(3,5,8)         =         1.961059	     112.360384
	 B(3,5,9)         =         1.906917	     109.258311
	 B(3,5,10)        =         1.903077	     109.038278
	 B(4,14,15)       =         1.932521	     110.725289
	 B(4,14,16)       =         1.860462	     106.596606
	 B(4,14,17)       =         1.929086	     110.528476
	 B(5,3,6)         =         1.936839	     110.972702
	 B(5,3,7)         =         1.940613	     111.188915
	 B(5,8,11)        =         1.943688	     111.365139
	 B(5,8,12)        =         1.937629	     111.017964
	 B(5,8,13)        =         1.942846	     111.316888
	 B(6,3,7)         =         1.841532	     105.512009
	 B(8,5,9)         =         1.918278	     109.909220
	 B(8,5,10)        =         1.918675	     109.931985
	 B(9,5,10)        =         1.852597	     106.146010
	 B(11,8,12)       =         1.878716	     107.642479
	 B(11,8,13)       =         1.878925	     107.654447
	 B(12,8,13)       =         1.879057	     107.662044
	 B(15,14,16)      =         1.909104	     109.383579
	 B(15,14,17)      =         1.915123	     109.728452
	 B(16,14,17)      =         1.916804	     109.824783
	 D(1,2,3,5)       =         0.140854	       8.070323
	 D(1,2,3,6)       =         2.295798	     131.539549
	 D(1,2,3,7)       =        -2.018351	    -115.643006
	*D(1,2,4,14)      =        -1.396263	     -79.999985
	 D(2,3,5,8)       =        -3.140774	    -179.953074
	 D(2,3,5,9)       =         1.008569	      57.786756
	 D(2,3,5,10)      =        -1.009132	     -57.819023
	 D(2,4,14,15)     =        -1.075908	     -61.644965
	 D(2,4,14,16)     =         3.132342	     179.470001
	 D(2,4,14,17)     =         1.050042	      60.162997
	 D(3,2,4,14)      =         2.026214	     116.093489
	 D(3,5,8,11)      =        -1.049560	     -60.135363
	 D(3,5,8,12)      =         3.140450	     179.934531
	 D(3,5,8,13)      =         1.047406	      60.011926
	 D(4,2,3,5)       =         2.992230	     171.442149
	 D(4,2,3,6)       =        -1.136011	     -65.088625
	 D(4,2,3,7)       =         0.833025	      47.728820
	 D(6,3,5,8)       =         1.023763	      58.657295
	 D(6,3,5,9)       =        -1.110080	     -63.602874
	 D(6,3,5,10)      =        -3.127781	    -179.208654
	 D(7,3,5,8)       =        -1.020278	     -58.457596
	 D(7,3,5,9)       =         3.129065	     179.282235
	 D(7,3,5,10)      =         1.111364	      63.676455
	 D(9,5,8,11)      =         1.077833	      61.755297
	 D(9,5,8,12)      =        -1.015342	     -58.174809
	 D(9,5,8,13)      =        -3.108386	    -178.097414
	 D(10,5,8,11)     =         3.110858	     178.239016
	 D(10,5,8,12)     =         1.017682	      58.308910
	 D(10,5,8,13)     =        -1.075362	     -61.613695

	Current energy   :      -344.8850829076

	Energy change for the previous step:
		Projected    :        -0.0027916593
		Actual       :         0.0017632684

	Performing BFGS update.
	Previous computed or guess Hessian on step 1.
	Steps to be used in Hessian update: 1
	Taking RFO optimization step.
	Going to follow RFO solution 1.
	Using RFO vector 1.
	Norm of target step-size    0.34147
	Projected energy change by RFO approximation:        -0.0071053117

	Back-transformation to cartesian coordinates...
	Successfully converged to displaced geometry.

	Back-transformation to cartesian coordinates to adjust frozen coordinates...
	Successfully converged to displaced geometry.

	--- Internal Coordinate Step in ANG or DEG, aJ/ANG or AJ/DEG ---
	 ---------------------------------------------------------------------------
	   Coordinate                Previous        Force       Change         New 
	   ----------                --------       ------       ------       ------
	    1 R(1,2)          =      1.183369     0.020198    -0.001846     1.181523
	    2 R(2,3)          =      1.512859    -0.016929     0.000115     1.512974
	    3 R(2,4)          =      1.347035     0.042283     0.010805     1.357840
	    4 R(3,5)          =      1.526618    -0.010594    -0.000609     1.526009
	    5 R(3,6)          =      1.087723     0.010756     0.001296     1.089019
	    6 R(3,7)          =      1.086902    -0.005008    -0.000304     1.086598
	    7 R(4,14)         =      1.415229    -0.009860    -0.000997     1.414232
	    8 R(5,8)          =      1.528449    -0.004838    -0.000222     1.528227
	    9 R(5,9)          =      1.084957     0.001581     0.000231     1.085188
	   10 R(5,10)         =      1.084610    -0.000701    -0.000095     1.084515
	   11 R(8,11)         =      1.086648    -0.000437     0.000037     1.086685
	   12 R(8,12)         =      1.085134    -0.001204    -0.000071     1.085062
	   13 R(8,13)         =      1.086434     0.000169    -0.000014     1.086420
	   14 R(14,15)        =      1.084840     0.000590     0.001941     1.086781
	   15 R(14,16)        =      1.077922     0.004449    -0.000058     1.077864
	   16 R(14,17)        =      1.082345    -0.000231     0.000787     1.083133
	   17 B(1,2,3)        =    123.819790     0.000195     0.396589   124.216379
	   18 B(1,2,4)        =    120.948630     0.000333     0.337960   121.286591
	   19 B(2,3,5)        =    114.419525    -0.000192     0.144820   114.564346
	   20 B(2,3,6)        =    107.149799     0.000255     0.676627   107.826426
	   21 B(2,3,7)        =    107.104156    -0.000126    -0.786344   106.317812
	   22 B(2,4,14)       =    117.155038     0.000050     0.136303   117.291341
	   23 B(3,2,4)        =    113.071268    -0.000320     1.282757   114.354025
	   24 B(3,5,8)        =    112.360384    -0.000104    -0.029634   112.330750
	   25 B(3,5,9)        =    109.258311     0.000044     0.069611   109.327921
	   26 B(3,5,10)       =    109.038278     0.000027    -0.072225   108.966053
	   27 B(4,14,15)      =    110.725289     0.000020     0.102176   110.827465
	   28 B(4,14,16)      =    106.596606    -0.000010     0.288143   106.884750
	   29 B(4,14,17)      =    110.528476     0.000045     0.069841   110.598317
	   30 B(5,3,6)        =    110.972702    -0.000061    -0.078670   110.894033
	   31 B(5,3,7)        =    111.188915     0.000174     0.150607   111.339523
	   32 B(5,8,11)       =    111.365139     0.000013     0.034427   111.399566
	   33 B(5,8,12)       =    111.017964    -0.000045    -0.045611   110.972354
	   34 B(5,8,13)       =    111.316888     0.000008    -0.005045   111.311843
	   35 B(6,3,7)        =    105.512009    -0.000038    -0.135276   105.376733
	   36 B(8,5,9)        =    109.909220     0.000021    -0.008265   109.900955
	   37 B(8,5,10)       =    109.931985     0.000035     0.036792   109.968776
	   38 B(9,5,10)       =    106.146010    -0.000017     0.005555   106.151565
	   39 B(11,8,12)      =    107.642479     0.000016     0.009331   107.651810
	   40 B(11,8,13)      =    107.654447    -0.000004     0.006002   107.660450
	   41 B(12,8,13)      =    107.662044     0.000014     0.001799   107.663843
	   42 B(15,14,16)     =    109.383579    -0.000027    -0.468854   108.914725
	   43 B(15,14,17)     =    109.728452    -0.000009     0.237863   109.966315
	   44 B(16,14,17)     =    109.824783    -0.000019    -0.244347   109.580435
	   45 D(1,2,3,5)      =      8.070323    -0.000089    -5.896239     2.174084
	   46 D(1,2,3,6)      =    131.539549    -0.000093    -5.386204   126.153345
	   47 D(1,2,3,7)      =   -115.643006    -0.000089    -5.598896  -121.241902
	   48 *D(1,2,4,14)    =    -79.999985     0.000000     0.000000   -79.999985
	   49 D(2,3,5,8)      =   -179.953074     0.000024     0.607431  -179.345643
	   50 D(2,3,5,9)      =     57.786756     0.000027     0.588692    58.375448
	   51 D(2,3,5,10)     =    -57.819023     0.000023     0.583757   -57.235266
	   52 D(2,4,14,15)    =    -61.644965    -0.000009    -1.237093   -62.882058
	   53 D(2,4,14,16)    =    179.470001    -0.000002    -0.901450   178.568551
	   54 D(2,4,14,17)    =     60.162997    -0.000001    -0.818583    59.344415
	   55 D(3,2,4,14)     =    116.093489    -0.000179   -11.922313   104.171177
	   56 D(3,5,8,11)     =    -60.135363    -0.000002    -0.091830   -60.227193
	   57 D(3,5,8,12)     =    179.934531    -0.000001    -0.095954   179.838577
	   58 D(3,5,8,13)     =     60.011926     0.000000    -0.064264    59.947662
	   59 D(4,2,3,5)      =    171.442149     0.000101     6.420988   177.863137
	   60 D(4,2,3,6)      =    -65.088625     0.000097     6.931023   -58.157602
	   61 D(4,2,3,7)      =     47.728820     0.000101     6.718331    54.447151
	   62 D(6,3,5,8)      =     58.657295    -0.000010    -0.331858    58.325437
	   63 D(6,3,5,9)      =    -63.602874    -0.000007    -0.350597   -63.953472
	   64 D(6,3,5,10)     =   -179.208654    -0.000012    -0.355531  -179.564185
	   65 D(7,3,5,8)      =    -58.457596    -0.000016    -0.208525   -58.666121
	   66 D(7,3,5,9)      =    179.282235    -0.000013    -0.227264   179.054970
	   67 D(7,3,5,10)     =     63.676455    -0.000017    -0.232198    63.444257
	   68 D(9,5,8,11)     =     61.755297    -0.000002    -0.028918    61.726379
	   69 D(9,5,8,12)     =    -58.174809    -0.000002    -0.033042   -58.207851
	   70 D(9,5,8,13)     =   -178.097414     0.000000    -0.001352  -178.098766
	   71 D(10,5,8,11)    =    178.239016     0.000001    -0.005474   178.233542
	   72 D(10,5,8,12)    =     58.308910     0.000001    -0.009598    58.299312
	   73 D(10,5,8,13)    =    -61.613695     0.000003     0.022092   -61.591603
	 ---------------------------------------------------------------------------

  ==> Convergence Check <==

  Measures of convergence in internal coordinates in au.
  Criteria marked as inactive (o), active & met (*), and active & unmet ( ).
  ---------------------------------------------------------------------------------------------
   Step     Total Energy     Delta E     MAX Force     RMS Force      MAX Disp      RMS Disp   
  ---------------------------------------------------------------------------------------------
    Convergence Criteria    1.00e-06 *    3.00e-04 *             o    1.20e-03 *             o
  ---------------------------------------------------------------------------------------------
      2    -344.88508291    1.76e-03      1.02e-02      2.37e-03 o    2.08e-01      3.99e-02 o  ~
  ---------------------------------------------------------------------------------------------

	Writing optimization data to binary file.
	Structure for next step:
	Cartesian Geometry (in Angstrom)
	    O     0.8648567040   1.4017492736   0.2239640238
	    C     0.6840717215   0.2347890972   0.1850193664
	    C    -0.6817448153  -0.4157288588   0.2065200178
	    O     1.7216987147  -0.6407062877   0.2088353716
	    C    -1.8509806793   0.5645574783   0.2316389577
	    H    -0.7489729329  -1.0784422308  -0.6550210719
	    H    -0.6949878865  -1.0692935865   1.0744907454
	    C    -3.2035706169  -0.1457927493   0.2687894545
	    H    -1.7968064534   1.2105912080  -0.6386130829
	    H    -1.7491352518   1.2126025217   1.0952579674
	    H    -3.3430849861  -0.7787719619  -0.6034243967
	    H    -4.0181267421   0.5707618647   0.2889965946
	    H    -3.2954295803  -0.7742594310   1.1502082209
	    C     2.4135199633  -0.8594912833  -1.0050711938
	    H     1.7554680841  -1.2963348479  -1.7515483398
	    H     3.2091675851  -1.5544375268  -0.7910958480
	    H     2.8317102936   0.0675422494  -1.3777665301
			--------------------------
			 OPTKING Finished Execution 
			--------------------------

    Structure for next step:
    Molecular point group: c1
    Full point group: C1

    Geometry (in Angstrom), charge = 0, multiplicity = 1:

    O            0.847263930124     1.390036687246     0.191245149629
    C            0.666478961396     0.223076599990     0.152300495265
    C           -0.699337471031    -0.427441306393     0.173801144979
    O            1.704105875402    -0.652418718101     0.176116498581
    C           -1.868573245791     0.552844955882     0.198920082946
    H           -0.766565583556    -1.090154627769    -0.687739878963
    H           -0.712580541270    -1.081005984151     1.041771806335
    C           -3.221163080134    -0.157505217450     0.236070576905
    H           -1.814399023965     1.198878636272    -0.671331891209
    H           -1.766727826026     1.200889949807     1.062539026694
    H           -3.360677438603    -0.790484381701    -0.636143207675
    H           -4.035719143053     0.559049341835     0.256277715516
    H           -3.313022036507    -0.785971851180     1.117489276012
    C            2.395927071155    -0.871203696947    -1.037789974132
    H            1.737875242206    -1.308047228219    -1.784267063112
    H            3.191574632236    -1.566149887423    -0.823814644607
    H            2.814117369517     0.055829764942    -1.410485281919

gradient() will perform analytic gradient computation.

*** tstart() called on cx1-3-1-1.cx1.hpc.ic.ac.uk
*** at Fri Sep  2 13:38:54 2016


         ---------------------------------------------------------
                                   SCF
            by Justin Turney, Rob Parrish, and Andy Simmonett
                              RHF Reference
                        4 Threads,   2000 MiB Core
         ---------------------------------------------------------

  ==> Geometry <==

    Molecular point group: c1
    Full point group: C1

    Geometry (in Angstrom), charge = 0, multiplicity = 1:

       Center              X                  Y                   Z               Mass       
    ------------   -----------------  -----------------  -----------------  -----------------
           O          0.847263930124     1.390036687246     0.191245149629    15.994914619560
           C          0.666478961396     0.223076599990     0.152300495265    12.000000000000
           C         -0.699337471031    -0.427441306393     0.173801144979    12.000000000000
           O          1.704105875402    -0.652418718101     0.176116498581    15.994914619560
           C         -1.868573245791     0.552844955882     0.198920082946    12.000000000000
           H         -0.766565583556    -1.090154627769    -0.687739878963     1.007825032070
           H         -0.712580541270    -1.081005984151     1.041771806335     1.007825032070
           C         -3.221163080134    -0.157505217450     0.236070576905    12.000000000000
           H         -1.814399023965     1.198878636272    -0.671331891209     1.007825032070
           H         -1.766727826026     1.200889949807     1.062539026694     1.007825032070
           H         -3.360677438603    -0.790484381701    -0.636143207675     1.007825032070
           H         -4.035719143053     0.559049341835     0.256277715516     1.007825032070
           H         -3.313022036507    -0.785971851180     1.117489276012     1.007825032070
           C          2.395927071155    -0.871203696947    -1.037789974132    12.000000000000
           H          1.737875242206    -1.308047228219    -1.784267063112     1.007825032070
           H          3.191574632236    -1.566149887423    -0.823814644607     1.007825032070
           H          2.814117369517     0.055829764942    -1.410485281919     1.007825032070

  Running in c1 symmetry.

  Rotational constants: A =      0.20907  B =      0.04226  C =      0.03770 [cm^-1]
  Rotational constants: A =   6267.75666  B =   1266.98182  C =   1130.15725 [MHz]
  Nuclear repulsion =  311.355730045553571

  Charge       = 0
  Multiplicity = 1
  Electrons    = 56
  Nalpha       = 28
  Nbeta        = 28

  ==> Algorithm <==

  SCF Algorithm Type is DF.
  DIIS enabled.
  MOM disabled.
  Fractional occupation disabled.
  Guess Type is READ.
  Energy threshold   = 1.00e-08
  Density threshold  = 1.00e-08
  Integral threshold = 0.00e+00

  ==> Primary Basis <==

  Basis Set: 6-31G*
    Number of shells: 62
    Number of basis function: 125
    Number of Cartesian functions: 125
    Spherical Harmonics?: false
    Max angular momentum: 2

  ==> Pre-Iterations <==

   -------------------------------------------------------
    Irrep   Nso     Nmo     Nalpha   Nbeta   Ndocc  Nsocc
   -------------------------------------------------------
     A        125     125       0       0       0       0
   -------------------------------------------------------
    Total     125     125      28      28      28       0
   -------------------------------------------------------

 OEINTS: Overlap, kinetic, potential, dipole, and quadrupole integrals
         stored in file 35.

  ==> Integral Setup <==

  ==> DFJK: Density-Fitted J/K Matrices <==

    J tasked:                  Yes
    K tasked:                  Yes
    wK tasked:                  No
    OpenMP threads:              4
    Integrals threads:           4
    Memory (MB):              1430
    Algorithm:                Core
    Integral Cache:           NONE
    Schwarz Cutoff:          1E-12
    Fitting Condition:       1E-12

   => Auxiliary Basis Set <=

  Basis Set: 
    Number of shells: 258
    Number of basis function: 817
    Number of Cartesian functions: 817
    Spherical Harmonics?: false
    Max angular momentum: 3

  Minimum eigenvalue in the overlap matrix is 3.1899970009E-03.
  Using Symmetric Orthogonalization.
  SCF Guess: Reading in previously saved MOs, projecting if necessary.

  Using orbitals from previous SCF, no projection.
  Recomputing DOCC and SOCC from number of alpha and beta electrons from previous calculation.
              A 
    DOCC [    28 ]

  ==> Iterations <==

                           Total Energy        Delta E     RMS |[F,P]|

   @DF-RHF iter   0:  -344.85046618135044   -3.44850e+02   2.06354e-03 
   @DF-RHF iter   1:  -344.88596550015092   -3.54993e-02   3.41232e-04 
   @DF-RHF iter   2:  -344.88756271691119   -1.59722e-03   1.33494e-04 DIIS
   @DF-RHF iter   3:  -344.88778056571306   -2.17849e-04   7.29081e-05 DIIS
   @DF-RHF iter   4:  -344.88782924775097   -4.86820e-05   1.40844e-05 DIIS
   @DF-RHF iter   5:  -344.88783207959460   -2.83184e-06   6.19975e-06 DIIS
   @DF-RHF iter   6:  -344.88783321644047   -1.13685e-06   2.83138e-06 DIIS
   @DF-RHF iter   7:  -344.88783345602639   -2.39586e-07   1.28904e-06 DIIS
   @DF-RHF iter   8:  -344.88783351967953   -6.36531e-08   3.50675e-07 DIIS
   @DF-RHF iter   9:  -344.88783352443994   -4.76041e-09   1.13512e-07 DIIS
   @DF-RHF iter  10:  -344.88783352485342   -4.13479e-10   3.82640e-08 DIIS
   @DF-RHF iter  11:  -344.88783352489071   -3.72893e-11   1.21767e-08 DIIS
   @DF-RHF iter  12:  -344.88783352489423   -3.52429e-12   3.58693e-09 DIIS

  ==> Post-Iterations <==

    Orbital Energies (a.u.)
    -----------------------

    Doubly Occupied:                                                      

       1A    -20.585718     2A    -20.556720     3A    -11.375790  
       4A    -11.290969     5A    -11.240724     6A    -11.225173  
       7A    -11.217265     8A     -1.457723     9A     -1.365345  
      10A     -1.080592    11A     -0.991561    12A     -0.949934  
      13A     -0.833564    14A     -0.764166    15A     -0.698625  
      16A     -0.676803    17A     -0.671810    18A     -0.633728  
      19A     -0.616698    20A     -0.578420    21A     -0.566119  
      22A     -0.537523    23A     -0.518899    24A     -0.494464  
      25A     -0.491828    26A     -0.481228    27A     -0.453206  
      28A     -0.435305  

    Virtual:                                                              

      29A      0.179111    30A      0.219656    31A      0.244979  
      32A      0.283228    33A      0.290590    34A      0.301132  
      35A      0.308291    36A      0.310414    37A      0.321174  
      38A      0.335846    39A      0.343334    40A      0.366036  
      41A      0.402516    42A      0.418874    43A      0.458937  
      44A      0.531646    45A      0.561402    46A      0.711915  
      47A      0.731148    48A      0.737822    49A      0.746684  
      50A      0.756776    51A      0.780544    52A      0.790872  
      53A      0.823618    54A      0.853333    55A      0.944020  
      56A      0.946546    57A      0.956697    58A      0.981585  
      59A      1.062758    60A      1.066003    61A      1.085660  
      62A      1.098093    63A      1.115763    64A      1.134704  
      65A      1.141026    66A      1.167385    67A      1.177993  
      68A      1.198637    69A      1.218388    70A      1.220234  
      71A      1.232851    72A      1.255918    73A      1.278181  
      74A      1.292772    75A      1.302035    76A      1.411171  
      77A      1.423350    78A      1.440231    79A      1.617507  
      80A      1.640993    81A      1.651276    82A      1.685158  
      83A      1.767490    84A      1.811776    85A      1.833045  
      86A      1.934003    87A      1.987373    88A      2.031371  
      89A      2.050770    90A      2.092965    91A      2.136934  
      92A      2.159284    93A      2.189703    94A      2.263490  
      95A      2.276256    96A      2.292018    97A      2.296141  
      98A      2.364685    99A      2.387860   100A      2.395218  
     101A      2.474860   102A      2.477335   103A      2.518701  
     104A      2.597823   105A      2.658345   106A      2.683152  
     107A      2.694818   108A      2.734194   109A      2.797806  
     110A      2.851015   111A      2.941781   112A      2.956667  
     113A      2.991349   114A      3.180015   115A      3.229290  
     116A      3.311534   117A      3.396093   118A      3.502934  
     119A      4.365555   120A      4.545133   121A      4.602336  
     122A      4.658599   123A      4.740362   124A      4.832070  
     125A      4.989691  

    Final Occupation by Irrep:
              A 
    DOCC [    28 ]

  Energy converged.

  @DF-RHF Final Energy:  -344.88783352489423

   => Energetics <=

    Nuclear Repulsion Energy =            311.3557300455535710
    One-Electron Energy =               -1086.9073256931656033
    Two-Electron Energy =                 430.6637621227179125
    DFT Exchange-Correlation Energy =       0.0000000000000000
    Empirical Dispersion Energy =           0.0000000000000000
    PCM Polarization Energy =               0.0000000000000000
    EFP Energy =                            0.0000000000000000
    Total Energy =                       -344.8878335248940630

    Alert: EFP and PCM quantities not currently incorporated into SCF psivars.

Properties will be evaluated at   0.000000,   0.000000,   0.000000 Bohr
  ==> Properties <==


Properties computed using the SCF density matrix

  Nuclear Dipole Moment: (a.u.)
     X:    -7.5120      Y:    -3.3781      Z:    -2.3754

  Electronic Dipole Moment: (a.u.)
     X:     7.2175      Y:     2.4228      Z:     1.7353

  Dipole Moment: (a.u.)
     X:    -0.2945      Y:    -0.9553      Z:    -0.6401     Total:     1.1870

  Dipole Moment: (Debye)
     X:    -0.7486      Y:    -2.4281      Z:    -1.6270     Total:     3.0171


  Saving occupied orbitals to File 180.

*** tstop() called on cx1-3-1-1.cx1.hpc.ic.ac.uk at Fri Sep  2 13:38:59 2016
Module time:
	user time   =      14.97 seconds =       0.25 minutes
	system time =       0.13 seconds =       0.00 minutes
	total time  =          5 seconds =       0.08 minutes
Total time:
	user time   =      82.65 seconds =       1.38 minutes
	system time =       0.94 seconds =       0.02 minutes
	total time  =         27 seconds =       0.45 minutes

*** tstart() called on cx1-3-1-1.cx1.hpc.ic.ac.uk
*** at Fri Sep  2 13:38:59 2016


         ------------------------------------------------------------
                                   SCF GRAD                          
                          Rob Parrish, Justin Turney,                
                       Andy Simmonett, and Alex Sokolov              
         ------------------------------------------------------------

  ==> Geometry <==

    Molecular point group: c1
    Full point group: C1

    Geometry (in Angstrom), charge = 0, multiplicity = 1:

       Center              X                  Y                   Z               Mass       
    ------------   -----------------  -----------------  -----------------  -----------------
           O          0.847263930124     1.390036687246     0.191245149629    15.994914619560
           C          0.666478961396     0.223076599990     0.152300495265    12.000000000000
           C         -0.699337471031    -0.427441306393     0.173801144979    12.000000000000
           O          1.704105875402    -0.652418718101     0.176116498581    15.994914619560
           C         -1.868573245791     0.552844955882     0.198920082946    12.000000000000
           H         -0.766565583556    -1.090154627769    -0.687739878963     1.007825032070
           H         -0.712580541270    -1.081005984151     1.041771806335     1.007825032070
           C         -3.221163080134    -0.157505217450     0.236070576905    12.000000000000
           H         -1.814399023965     1.198878636272    -0.671331891209     1.007825032070
           H         -1.766727826026     1.200889949807     1.062539026694     1.007825032070
           H         -3.360677438603    -0.790484381701    -0.636143207675     1.007825032070
           H         -4.035719143053     0.559049341835     0.256277715516     1.007825032070
           H         -3.313022036507    -0.785971851180     1.117489276012     1.007825032070
           C          2.395927071155    -0.871203696947    -1.037789974132    12.000000000000
           H          1.737875242206    -1.308047228219    -1.784267063112     1.007825032070
           H          3.191574632236    -1.566149887423    -0.823814644607     1.007825032070
[...]
			-----------------------------------------

	Previous internal coordinate definitions found.
	---Fragment 1 Geometry and Gradient---
	 O           1.6183156977        2.6446073406        0.3820829626
	 C           1.2639336422        0.4406710371        0.3033422570
	 C          -1.2963824971       -0.8117872864        0.3377212886
	 O           3.1894765733       -1.2414178648        0.3392416481
	 C          -3.5063447450        1.0387585068        0.3649310796
	 H          -1.3998342092       -2.0672325757       -1.2876755699
	 H          -1.3332283964       -2.0431285845        1.9819724733
	 C          -6.0574368608       -0.3125289928        0.4171708293
	 H          -3.3929424630        2.2540935695       -1.2827136295
	 H          -3.3322123617        2.2690947039        1.9948432583
	 H          -6.3023610023       -1.5140938235       -1.2297590053
	 H          -7.6001162189        1.0379139106        0.4372737800
	 H          -6.2422424859       -1.4953674333        2.0849577505
	 C           4.4632064868       -1.6475167483       -1.9703101974
	 H           3.2018716065       -2.4610331735       -3.3679977189
	 H           5.9700339501       -2.9641820451       -1.5805953991
	 H           5.2459163970        0.1027270723       -2.6834922451
	            -0.0002551477       -0.0001448237        0.0050994366
	            -0.0007941676       -0.0012882070       -0.0078554128
	             0.0000276733        0.0000426016        0.0000165630
	             0.0036359830        0.0044021152        0.0036846348
	            -0.0000157654        0.0000025039       -0.0000023249
	             0.0000050429       -0.0000028345       -0.0000129756
	             0.0000060444        0.0000058277       -0.0000120449
	            -0.0000072895        0.0000052193       -0.0000017398
	             0.0000010645       -0.0000034151        0.0000027513
	             0.0000032885       -0.0000031942        0.0000011368
	            -0.0000007528       -0.0000024369       -0.0000026958
	            -0.0000016853       -0.0000029367       -0.0000011310
	            -0.0000010254        0.0000014803        0.0000039955
	            -0.0026234087       -0.0030064924       -0.0009183939
	             0.0000109471       -0.0000109455       -0.0000123614
	            -0.0000004383        0.0000081059       -0.0000002431
	             0.0000096370       -0.0000025677        0.0000108051

	---Fragment 1 Intrafragment Coordinates---
	 - Coordinate -           - BOHR/RAD -       - ANG/DEG -
	 R(1,2)           =         2.233634	       1.181988
	 R(2,3)           =         2.850448	       1.508392
	 R(2,4)           =         2.557035	       1.353125
	 R(3,5)           =         2.882567	       1.525389
	 R(3,6)           =         2.056395	       1.088197
	 R(3,7)           =         2.054537	       1.087214
	 R(4,14)          =         2.668583	       1.412153
	 R(5,8)           =         2.887348	       1.527919
	 R(5,9)           =         2.050520	       1.085089
	 R(5,10)          =         2.049552	       1.084576
	 R(8,11)          =         2.053320	       1.086570
	 R(8,12)          =         2.050356	       1.085002
	 R(8,13)          =         2.052991	       1.086396
	 R(14,15)         =         2.050928	       1.085304
	 R(14,16)         =         2.038630	       1.078797
	 R(14,17)         =         2.045634	       1.082503
	 B(1,2,3)         =         2.184172	     125.143841
	 B(1,2,4)         =         2.128350	     121.945467
	 B(2,3,5)         =         1.989597	     113.995503
	 B(2,3,6)         =         1.879585	     107.692286
	 B(2,3,7)         =         1.864083	     106.804061
	 B(2,4,14)        =         2.034636	     116.576048
	 B(3,2,4)         =         1.968365	     112.778987
	 B(3,5,8)         =         1.957463	     112.154357
	 B(3,5,9)         =         1.907644	     109.299944
	 B(3,5,10)        =         1.904714	     109.132057
	 B(4,14,15)       =         1.935443	     110.892690
	 B(4,14,16)       =         1.860464	     106.596744
	 B(4,14,17)       =         1.932808	     110.741756
	 B(5,3,6)         =         1.939949	     111.150874
	 B(5,3,7)         =         1.942767	     111.312341
	 B(5,8,11)        =         1.944156	     111.391922
	 B(5,8,12)        =         1.935536	     110.898024
	 B(5,8,13)        =         1.943220	     111.338301
	 B(6,3,7)         =         1.839800	     105.412786
	 B(8,5,9)         =         1.918548	     109.924704
	 B(8,5,10)        =         1.919435	     109.975512
	 B(9,5,10)        =         1.853043	     106.171569
	 B(11,8,12)       =         1.879202	     107.670330
	 B(11,8,13)       =         1.879364	     107.679627
	 B(12,8,13)       =         1.879457	     107.684956
	 B(15,14,16)      =         1.905688	     109.187893
	 B(15,14,17)      =         1.914636	     109.700587
	 B(16,14,17)      =         1.913920	     109.659564
	 D(1,2,3,5)       =         0.046664	       2.673651
	 D(1,2,3,6)       =         2.207701	     126.491946
	 D(1,2,3,7)       =        -2.106506	    -120.693902
	*D(1,2,4,14)      =        -1.396263	     -79.999985
	 D(2,3,5,8)       =        -3.134900	    -179.616562
	 D(2,3,5,9)       =         1.016001	      58.212566
	 D(2,3,5,10)      =        -1.003542	     -57.498698
	 D(2,4,14,15)     =        -1.110304	     -63.615716
	 D(2,4,14,16)     =         3.100447	     177.642547
	 D(2,4,14,17)     =         1.019558	      58.416346
	 D(3,2,4,14)      =         1.814634	     103.970858
	 D(3,5,8,11)      =        -1.049660	     -60.141063
	 D(3,5,8,12)      =         3.140831	     179.956356
	 D(3,5,8,13)      =         1.048436	      60.070975
	 D(4,2,3,5)       =         3.116334	     178.552781
	 D(4,2,3,6)       =        -1.005814	     -57.628924
	 D(4,2,3,7)       =         0.963164	      55.185228
	 D(6,3,5,8)       =         1.020185	      58.452316
	 D(6,3,5,9)       =        -1.112099	     -63.718556
	 D(6,3,5,10)      =        -3.131641	    -179.429820
	 D(7,3,5,8)       =        -1.025033	     -58.730090
	 D(7,3,5,9)       =         3.125868	     179.099038
	 D(7,3,5,10)      =         1.106325	      63.387774
	 D(9,5,8,11)      =         1.076405	      61.673441
	 D(9,5,8,12)      =        -1.016290	     -58.229139
	 D(9,5,8,13)      =        -3.108685	    -178.114521
	 D(10,5,8,11)     =         3.110575	     178.222797
	 D(10,5,8,12)     =         1.017880	      58.320216
	 D(10,5,8,13)     =        -1.074515	     -61.565165

	Current energy   :      -344.8881279074

	Energy change for the previous step:
		Projected    :        -0.0000049805
		Actual       :        -0.0000009463
	Energy ratio indicates iffy step: Trust radius decreased to 1.250e-01.


	Performing BFGS update.
	Previous computed or guess Hessian on step 1.
	Steps to be used in Hessian update: 5 4
	Taking RFO optimization step.
	Going to follow RFO solution 1.
	Using RFO vector 1.
	Norm of target step-size    0.00310
	Projected energy change by RFO approximation:        -0.0000000219

	Back-transformation to cartesian coordinates...
	Successfully converged to displaced geometry.

	Back-transformation to cartesian coordinates to adjust frozen coordinates...
	Successfully converged to displaced geometry.

	--- Internal Coordinate Step in ANG or DEG, aJ/ANG or AJ/DEG ---
	 ---------------------------------------------------------------------------
	   Coordinate                Previous        Force       Change         New 
	   ----------                --------       ------       ------       ------
	    1 R(1,2)          =      1.181988     0.000030    -0.000019     1.181969
	    2 R(2,3)          =      1.508392     0.000279     0.000044     1.508436
	    3 R(2,4)          =      1.353125     0.000808     0.000164     1.353289
	    4 R(3,5)          =      1.525389    -0.000125    -0.000037     1.525352
	    5 R(3,6)          =      1.088197    -0.000097    -0.000019     1.088178
	    6 R(3,7)          =      1.087214     0.000109     0.000020     1.087234
	    7 R(4,14)         =      1.412153    -0.000100    -0.000035     1.412118
	    8 R(5,8)          =      1.527919    -0.000073    -0.000024     1.527894
	    9 R(5,9)          =      1.085089     0.000034     0.000010     1.085099
	   10 R(5,10)         =      1.084576     0.000006     0.000004     1.084580
	   11 R(8,11)         =      1.086570    -0.000030    -0.000005     1.086566
	   12 R(8,12)         =      1.085002     0.000006    -0.000002     1.085000
	   13 R(8,13)         =      1.086396    -0.000020    -0.000003     1.086393
	   14 R(14,15)        =      1.085304    -0.000050     0.000002     1.085306
	   15 R(14,16)        =      1.078797     0.000046     0.000010     1.078806
	   16 R(14,17)        =      1.082503     0.000019     0.000009     1.082512
	   17 B(1,2,3)        =    125.143841     0.000003     0.012231   125.156073
	   18 B(1,2,4)        =    121.945467    -0.000002    -0.008574   121.936892
	   19 B(2,3,5)        =    113.995503    -0.000002    -0.006730   113.988773
	   20 B(2,3,6)        =    107.692286     0.000001     0.006439   107.698725
	   21 B(2,3,7)        =    106.804061     0.000001     0.000118   106.804179
	   22 B(2,4,14)       =    116.576048    -0.000002    -0.012565   116.563484
	   23 B(3,2,4)        =    112.778987    -0.000001    -0.003421   112.775565
	   24 B(3,5,8)        =    112.154357    -0.000001    -0.004137   112.150220
	   25 B(3,5,9)        =    109.299944     0.000000     0.002100   109.302044
	   26 B(3,5,10)       =    109.132057     0.000000     0.001617   109.133674
	   27 B(4,14,15)      =    110.892690    -0.000002    -0.009684   110.883005
	   28 B(4,14,16)      =    106.596744     0.000001     0.003832   106.600576
	   29 B(4,14,17)      =    110.741756     0.000001     0.004003   110.745759
	   30 B(5,3,6)        =    111.150874     0.000000     0.002893   111.153767
	   31 B(5,3,7)        =    111.312341     0.000000    -0.002138   111.310203
	   32 B(5,8,11)       =    111.391922    -0.000000     0.000203   111.392125
	   33 B(5,8,12)       =    110.898024    -0.000000    -0.003388   110.894636
	   34 B(5,8,13)       =    111.338301     0.000000     0.001055   111.339356
	   35 B(6,3,7)        =    105.412786    -0.000000     0.000043   105.412829
	   36 B(8,5,9)        =    109.924704     0.000000     0.000590   109.925294
	   37 B(8,5,10)       =    109.975512     0.000000     0.000132   109.975644
	   38 B(9,5,10)       =    106.171569    -0.000000    -0.000048   106.171521
	   39 B(11,8,12)      =    107.670330     0.000000     0.001019   107.671349
	   40 B(11,8,13)      =    107.679627    -0.000000    -0.000173   107.679454
	   41 B(12,8,13)      =    107.684956     0.000000     0.001412   107.686368
	   42 B(15,14,16)     =    109.187893     0.000001     0.000738   109.188632
	   43 B(15,14,17)     =    109.700587    -0.000000    -0.004721   109.695866
	   44 B(16,14,17)     =    109.659564     0.000001     0.006234   109.665798
	   45 D(1,2,3,5)      =      2.673651     0.000000     0.034198     2.707849
	   46 D(1,2,3,6)      =    126.491946     0.000000     0.038164   126.530110
	   47 D(1,2,3,7)      =   -120.693902     0.000000     0.041243  -120.652659
	   48 *D(1,2,4,14)    =    -79.999985    -0.000000    -0.000000   -79.999985
	   49 D(2,3,5,8)      =   -179.616562     0.000000     0.005185  -179.611377
	   50 D(2,3,5,9)      =     58.212566     0.000000     0.005733    58.218300
	   51 D(2,3,5,10)     =    -57.498698     0.000000     0.003730   -57.494968
	   52 D(2,4,14,15)    =    -63.615716     0.000000     0.014259   -63.601457
	   53 D(2,4,14,16)    =    177.642547     0.000000     0.016395   177.658942
	   54 D(2,4,14,17)    =     58.416346    -0.000000     0.004371    58.420716
	   55 D(3,2,4,14)     =    103.970858     0.000000    -0.004087   103.966771
	   56 D(3,5,8,11)     =    -60.141063    -0.000000    -0.048550   -60.189613
	   57 D(3,5,8,12)     =    179.956356    -0.000000    -0.047698   179.908659
	   58 D(3,5,8,13)     =     60.070975    -0.000000    -0.047913    60.023062
	   59 D(4,2,3,5)      =    178.552781    -0.000000     0.037435   178.590216
	   60 D(4,2,3,6)      =    -57.628924    -0.000000     0.041401   -57.587523
	   61 D(4,2,3,7)      =     55.185228    -0.000000     0.044480    55.229708
	   62 D(6,3,5,8)      =     58.452316    -0.000000    -0.000578    58.451738
	   63 D(6,3,5,9)      =    -63.718556    -0.000000    -0.000030   -63.718586
	   64 D(6,3,5,10)     =   -179.429820    -0.000000    -0.002034  -179.431854
	   65 D(7,3,5,8)      =    -58.730090    -0.000000    -0.001118   -58.731208
	   66 D(7,3,5,9)      =    179.099038     0.000000    -0.000570   179.098469
	   67 D(7,3,5,10)     =     63.387774    -0.000000    -0.002573    63.385200
	   68 D(9,5,8,11)     =     61.673441    -0.000000    -0.048265    61.625177
	   69 D(9,5,8,12)     =    -58.229139    -0.000000    -0.047413   -58.276552
	   70 D(9,5,8,13)     =   -178.114521    -0.000000    -0.047628  -178.162149
	   71 D(10,5,8,11)    =    178.222797    -0.000000    -0.047899   178.174897
	   72 D(10,5,8,12)    =     58.320216    -0.000000    -0.047047    58.273169
	   73 D(10,5,8,13)    =    -61.565165    -0.000000    -0.047263   -61.612428
	 ---------------------------------------------------------------------------

  ==> Convergence Check <==

  Measures of convergence in internal coordinates in au.
  Criteria marked as inactive (o), active & met (*), and active & unmet ( ).
  ---------------------------------------------------------------------------------------------
   Step     Total Energy     Delta E     MAX Force     RMS Force      MAX Disp      RMS Disp   
  ---------------------------------------------------------------------------------------------
    Convergence Criteria    1.00e-06 *    3.00e-04 *             o    1.20e-03 *             o
  ---------------------------------------------------------------------------------------------
      6    -344.88812791   -9.46e-07 *    9.80e-05 *    1.60e-05 o    8.47e-04 *    3.63e-04 o  ~
  ---------------------------------------------------------------------------------------------


  **** Optimization is complete! (in 6 steps) ****

  ==> Optimization Summary <==

  Measures of convergence in internal coordinates in au.
  --------------------------------------------------------------------------------------------------------------- ~
   Step         Total Energy             Delta E       MAX Force       RMS Force        MAX Disp        RMS Disp  ~
  --------------------------------------------------------------------------------------------------------------- ~
      1    -344.886846175934   -344.886846175934      0.02309803      0.00358297      0.28098571      0.05394891  ~
      2    -344.885082907571      0.001763268363      0.01024279      0.00236647      0.20808361      0.03988869  ~
      3    -344.887833524894     -0.002750617324      0.00819780      0.00167317      0.02731243      0.00726918  ~
      4    -344.888119287109     -0.000285762214      0.00101162      0.00022771      0.01392056      0.00304276  ~
      5    -344.888126961137     -0.000007674029      0.00060335      0.00009147      0.00171911      0.00059315  ~
      6    -344.888127907440     -0.000000946303      0.00009804      0.00001598      0.00084735      0.00036337  ~
  --------------------------------------------------------------------------------------------------------------- ~

	Writing optimization data to binary file.
	Final energy is   -344.8881279074399
	Final (previous) structure:
	Cartesian Geometry (in Angstrom)
	    O     0.8563758489   1.3994660372   0.2021896110
	    C     0.6688449277   0.2331930871   0.1605218211
	    C    -0.6860161235  -0.4295793630   0.1787144224
	    O     1.6877984388  -0.6569300906   0.1795189621
	    C    -1.8554778662   0.5496873690   0.1931132248
	    H    -0.7407604159  -1.0939324474  -0.6814086157
	    H    -0.7055141351  -1.0811771637   1.0488147410
	    C    -3.2054577740  -0.1653832327   0.2207573118
	    H    -1.7954679586   1.1928150341  -0.6787828697
	    H    -1.7633309707   1.2007532931   1.0556256676
	    H    -3.3350660574  -0.8012240042  -0.6507604874
	    H    -4.0218085928   0.5492404279   0.2313953359
	    H    -3.3032527063  -0.7913144246   1.1033122067
	    C     2.3618273304  -0.8718283805  -1.0426433299
	    H     1.6943576084  -1.3023227644  -1.7822677675
	    H     3.1592061422  -1.5685777002  -0.8364151251
	    H     2.7760196075   0.0543608295  -1.4200430440
	Saving final (previous) structure.
			--------------------------
			 OPTKING Finished Execution 
			--------------------------

    Final optimized geometry and variables:
    Molecular point group: c1
    Full point group: C1

    Geometry (in Angstrom), charge = 0, multiplicity = 1:

    O            0.856375783546     1.399465930306     0.202189595585
    C            0.668844876613     0.233193069301     0.160521808802
    C           -0.686016071098    -0.429579330184     0.178714408799
    O            1.687798309939    -0.656930040414     0.179518948403
    C           -1.855477724501     0.549687327018     0.193113210027
    H           -0.740760359330    -1.093932363907    -0.681408563629
    H           -0.705514081212    -1.081177081160     1.048814660908
    C           -3.205457529222    -0.165383220026     0.220757294960
    H           -1.795467821478     1.192814943035    -0.678782817900
    H           -1.763330836013     1.200753201431     1.055625586992
    H           -3.335065802732    -0.801223943061    -0.650760437666
    H           -4.021808285651     0.549240385989     0.231395318270
    H           -3.303252454034    -0.791314364157     1.103312122428
    C            2.361827150056    -0.871828313968    -1.042643250324
    H            1.694357478975    -1.302322664996    -1.782267631410
    H            3.159205900902    -1.568577580372    -0.836415061198
    H            2.776019395467     0.054360825370    -1.420042935540

	Cleaning optimization helper files.


Properties will be evaluated at   0.000000,   0.000000,   0.000000 Bohr

Properties computed using the  density matrix

  Nuclear Dipole Moment: (a.u.)
     X:    -7.5209      Y:    -3.4101      Z:    -2.4455

  Electronic Dipole Moment: (a.u.)
     X:     7.2293      Y:     2.4544      Z:     1.8030

  Dipole Moment: (a.u.)
     X:    -0.2916      Y:    -0.9557      Z:    -0.6425     Total:     1.1879

  Dipole Moment: (Debye)
     X:    -0.7412      Y:    -2.4292      Z:    -1.6330     Total:     3.0195

  Quadrupole Moment: (Debye Ang)
    XX:   -41.2359     YY:   -47.4407     ZZ:   -41.1064
    XY:    -3.2763     XZ:    -4.2905     YZ:     0.8852

  Traceless Quadrupole Moment: (Debye Ang)
    XX:     2.0251     YY:    -4.1797     ZZ:     2.1546
    XY:    -3.2763     XZ:    -4.2905     YZ:     0.8852

  Mulliken Charges: (a.u.)
   Center  Symbol    Alpha    Beta     Spin     Total
       1     O     4.25455  4.25455  0.00000 -0.50909
       2     C     2.61325  2.61325  0.00000  0.77351
       3     C     3.20987  3.20987  0.00000 -0.41974
       4     O     4.31610  4.31610  0.00000 -0.63219
       5     C     3.15263  3.15263  0.00000 -0.30525
       6     H     0.40788  0.40788  0.00000  0.18423
       7     H     0.39790  0.39790  0.00000  0.20419
       8     C     3.24266  3.24266  0.00000 -0.48531
       9     H     0.41241  0.41241  0.00000  0.17518
      10     H     0.40891  0.40891  0.00000  0.18218
      11     H     0.42203  0.42203  0.00000  0.15595
      12     H     0.41461  0.41461  0.00000  0.17078
      13     H     0.42056  0.42056  0.00000  0.15888
      14     C     3.09335  3.09335  0.00000 -0.18670
      15     H     0.42260  0.42260  0.00000  0.15480
      16     H     0.40317  0.40317  0.00000  0.19366
      17     H     0.40753  0.40753  0.00000  0.18495

   Total alpha = 28.00000, Total beta = 28.00000, Total charge =  0.00000


*** PSI4 exiting successfully. Buy a developer a beer!
