    -----------------------------------------------------------------------
          Psi4: An Open-Source Ab Initio Electronic Structure Package
                              Psi4 1.0.54 Driver

                          Git: Rev {master} 8d4cec3 dirty

    J. M. Turney, A. C. Simmonett, R. M. Parrish, E. G. Hohenstein,
    F. A. Evangelista, J. T. Fermann, B. J. Mintz, L. A. Burns, J. J. Wilke,
    M. L. Abrams, N. J. Russ, M. L. Leininger, C. L. Janssen, E. T. Seidl,
    W. D. Allen, H. F. Schaefer, R. A. King, E. F. Valeev, C. D. Sherrill,
    and T. D. Crawford, WIREs Comput. Mol. Sci. 2, 556-565 (2012)
    (doi: 10.1002/wcms.93)

                         Additional Contributions by
    A. E. DePrince, U. Bozkaya, A. Yu. Sokolov, D. G. A. Smith, R. Di Remigio,
    R. M. Richard, J. F. Gonthier, H. R. McAlexander, M. Saitow, and
    B. P. Pritchard
    -----------------------------------------------------------------------


    Psi4 started on: Sat Sep 10 15:52:24 2016

    Process ID:   5676
    PSI4DATADIR: /export131/home/mjharvey/miniconda3/share/psi4
    Memory level set to 256.000 MB

  ==> Input File <==

--------------------------------------------------------------------------
set {
	reference rhf
	basis cc-pvtz
}


set_num_threads( 4 )
memory 2 gb

molecule MOL {
0 1

H	 3.273419	 0.176595	 -0.102789
N	 2.433987	 -0.362316	 -0.080024
C	 1.263552	 0.494993	 0.021953
H	 2.497638	 -0.973615	 0.707122
C	 -0.016533	 -0.325589	 -0.026925
H	 1.280915	 1.180773	 -0.818522
H	 1.263064	 1.106893	 0.925038
C	 -1.280353	 0.525521	 0.047747
H	 -0.016686	 -0.912532	 -0.939714
H	 -0.014099	 -1.037598	 0.796369
C	 -1.972659	 0.685365	 -1.301754
H	 -1.029156	 1.507240	 0.440294
H	 -1.974628	 0.082995	 0.756991
H	 -1.315270	 1.156396	 -2.024733
H	 -2.863415	 1.297118	 -1.216530
H	 -2.269768	 -0.276936	 -1.705341

	symmetry c1
}
set optking {
	frozen_dihedral = ("
		12 8 5 9
	")
}

ee,wfn = optimize('scf', return_wfn=True)
oeprop( wfn, 'DIPOLE', 'QUADRUPOLE', 'MULLIKEN_CHARGES')
f=open( 'psi4out.xyz', 'w' )
f.write( "16  " )
f.write( str(ee) + "\n" )
f.write( MOL.save_string_xyz() )
f.close()
--------------------------------------------------------------------------

  Memory set to   2.000 GiB by Python script.
gradient() will perform analytic gradient computation.

*** tstart() called on cx1-28-12-4
*** at Sat Sep 10 15:52:24 2016


         ---------------------------------------------------------
                                   SCF
            by Justin Turney, Rob Parrish, and Andy Simmonett
                              RHF Reference
                        4 Threads,   2000 MiB Core
         ---------------------------------------------------------

  ==> Geometry <==

    Molecular point group: c1
    Full point group: C1

    Geometry (in Angstrom), charge = 0, multiplicity = 1:

       Center              X                  Y                   Z               Mass       
    ------------   -----------------  -----------------  -----------------  -----------------
           H          3.152549368359    -0.026214190210     0.163119728852     1.007825032070
           N          2.313117368359    -0.565125190210     0.185884728852    14.003074004780
           C          1.142682368359     0.292183809790     0.287861728852    12.000000000000
           H          2.376768368359    -1.176424190210     0.973030728852     1.007825032070
           C         -0.137402631641    -0.528398190210     0.238983728852    12.000000000000
           H          1.160045368359     0.977963809790    -0.552613271148     1.007825032070
           H          1.142194368359     0.904083809790     1.190946728852     1.007825032070
           C         -1.401222631641     0.322711809790     0.313655728852    12.000000000000
           H         -0.137555631641    -1.115341190210    -0.673805271148     1.007825032070
           H         -0.134968631641    -1.240407190210     1.062277728852     1.007825032070
           C         -2.093528631641     0.482555809790    -1.035845271148    12.000000000000
           H         -1.150025631641     1.304430809790     0.706202728852     1.007825032070
           H         -2.095497631641    -0.119814190210     1.022899728852     1.007825032070
           H         -1.436139631641     0.953586809790    -1.758824271148     1.007825032070
           H         -2.984284631641     1.094308809790    -0.950621271148     1.007825032070
           H         -2.390637631641    -0.479745190210    -1.439432271148     1.007825032070

  Running in c1 symmetry.

  Rotational constants: A =      0.47030  B =      0.07059  C =      0.06920 [cm^-1]
  Rotational constants: A =  14099.15117  B =   2116.29783  C =   2074.44398 [MHz]
  Nuclear repulsion =  187.990912978048271

  Charge       = 0
  Multiplicity = 1
  Electrons    = 42
  Nalpha       = 21
  Nbeta        = 21

  ==> Algorithm <==

  SCF Algorithm Type is DF.
  DIIS enabled.
  MOM disabled.
  Fractional occupation disabled.
  Guess Type is SAD.
  Energy threshold   = 1.00e-08
  Density threshold  = 1.00e-08
  Integral threshold = 0.00e+00

  ==> Primary Basis <==

  Basis Set: CC-PVTZ
    Number of shells: 116
    Number of basis function: 304
    Number of Cartesian functions: 340
    Spherical Harmonics?: true
    Max angular momentum: 3

  ==> Pre-Iterations <==

   -------------------------------------------------------
    Irrep   Nso     Nmo     Nalpha   Nbeta   Ndocc  Nsocc
   -------------------------------------------------------
     A        304     304       0       0       0       0
   -------------------------------------------------------
    Total     304     304      21      21      21       0
   -------------------------------------------------------

  ==> Integral Setup <==

  ==> DFJK: Density-Fitted J/K Matrices <==

    J tasked:                  Yes
    K tasked:                  Yes
    wK tasked:                  No
    OpenMP threads:              4
    Integrals threads:           4
    Memory (MB):              1430
    Algorithm:                Core
    Integral Cache:           NONE
    Schwarz Cutoff:          1E-12
    Fitting Condition:       1E-12

   => Auxiliary Basis Set <=

  Basis Set: 
    Number of shells: 235
    Number of basis function: 725
    Number of Cartesian functions: 865
    Spherical Harmonics?: true
    Max angular momentum: 4

  Minimum eigenvalue in the overlap matrix is 4.4822305427E-04.
  Using Symmetric Orthogonalization.
  SCF Guess: Superposition of Atomic Densities via on-the-fly atomic UHF.

  ==> Iterations <==

                           Total Energy        Delta E     RMS |[F,P]|

   @DF-RHF iter   0:  -214.53669789907971   -2.14537e+02   1.46312e-02 
   @DF-RHF iter   1:  -212.28003711888326    2.25666e+00   1.31184e-03 
   @DF-RHF iter   2:  -212.38155993660794   -1.01523e-01   4.63774e-04 DIIS
   @DF-RHF iter   3:  -212.39334219553453   -1.17823e-02   1.69109e-04 DIIS
   @DF-RHF iter   4:  -212.39548527570096   -2.14308e-03   3.04129e-05 DIIS
   @DF-RHF iter   5:  -212.39557431863105   -8.90429e-05   8.06875e-06 DIIS
   @DF-RHF iter   6:  -212.39558042295184   -6.10432e-06   2.36560e-06 DIIS
   @DF-RHF iter   7:  -212.39558090455685   -4.81605e-07   6.86934e-07 DIIS
   @DF-RHF iter   8:  -212.39558094819833   -4.36415e-08   1.93807e-07 DIIS
   @DF-RHF iter   9:  -212.39558095205061   -3.85228e-09   6.57020e-08 DIIS
   @DF-RHF iter  10:  -212.39558095251917   -4.68560e-10   1.60342e-08 DIIS
   @DF-RHF iter  11:  -212.39558095255066   -3.14913e-11   3.64651e-09 DIIS

  ==> Post-Iterations <==

    Orbital Energies (a.u.)
    -----------------------

    Doubly Occupied:                                                      

       1A    -15.526459     2A    -11.238646     3A    -11.211605  
       4A    -11.206559     5A    -11.205347     6A     -1.178410  
       7A     -1.061032     8A     -0.957536     9A     -0.850197  
      10A     -0.788150    11A     -0.664405    12A     -0.624280  
      13A     -0.621364    14A     -0.587013    15A     -0.552365  
      16A     -0.526319    17A     -0.508523    18A     -0.471302  
      19A     -0.463793    20A     -0.453360    21A     -0.384379  

    Virtual:                                                              

      22A      0.143098    23A      0.151839    24A      0.168852  
      25A      0.176978    26A      0.199661    27A      0.211614  
      28A      0.227193    29A      0.239752    30A      0.240783  
      31A      0.258993    32A      0.274985    33A      0.314964  
      34A      0.339667    35A      0.363203    36A      0.387250  
      37A      0.400738    38A      0.413830    39A      0.440097  
      40A      0.456086    41A      0.471398    42A      0.482072  
      43A      0.518987    44A      0.556358    45A      0.565093  
      46A      0.581363    47A      0.596701    48A      0.607312  
      49A      0.614592    50A      0.616583    51A      0.633436  
      52A      0.649410    53A      0.662787    54A      0.669359  
      55A      0.682041    56A      0.687402    57A      0.692723  
      58A      0.698276    59A      0.718852    60A      0.728642  
      61A      0.739410    62A      0.747500    63A      0.770313  
      64A      0.822941    65A      0.839157    66A      0.849125  
      67A      0.885751    68A      0.924505    69A      0.947572  
      70A      1.005825    71A      1.018275    72A      1.030329  
      73A      1.060918    74A      1.082738    75A      1.090401  
      76A      1.129642    77A      1.145487    78A      1.177165  
      79A      1.188775    80A      1.215065    81A      1.218387  
      82A      1.236737    83A      1.246231    84A      1.270152  
      85A      1.284500    86A      1.292698    87A      1.308852  
      88A      1.319557    89A      1.350009    90A      1.365306  
      91A      1.379950    92A      1.391513    93A      1.398482  
      94A      1.404228    95A      1.422101    96A      1.436794  
      97A      1.443157    98A      1.469937    99A      1.473846  
     100A      1.505072   101A      1.513783   102A      1.533084  
     103A      1.555399   104A      1.567616   105A      1.595662  
     106A      1.628740   107A      1.632038   108A      1.640759  
     109A      1.664548   110A      1.700065   111A      1.707583  
     112A      1.734031   113A      1.746040   114A      1.754577  
     115A      1.796886   116A      1.824092   117A      1.837218  
     118A      1.850499   119A      1.863622   120A      1.908476  
     121A      1.972973   122A      1.982937   123A      2.036681  
     124A      2.083687   125A      2.137636   126A      2.513539  
     127A      2.559760   128A      2.579026   129A      2.615997  
     130A      2.673022   131A      2.697030   132A      2.718984  
     133A      2.740002   134A      2.771806   135A      2.789202  
     136A      2.818849   137A      2.841262   138A      2.846188  
     139A      2.881580   140A      2.898769   141A      2.912177  
     142A      2.945469   143A      2.982232   144A      2.996878  
     145A      3.032749   146A      3.049730   147A      3.084485  
     148A      3.096980   149A      3.117048   150A      3.141385  
     151A      3.155845   152A      3.178045   153A      3.190373  
     154A      3.207762   155A      3.241851   156A      3.254238  
     157A      3.280909   158A      3.300030   159A      3.310844  
     160A      3.339787   161A      3.345306   162A      3.367727  
     163A      3.382209   164A      3.400018   165A      3.424800  
     166A      3.436951   167A      3.440885   168A      3.449793  
     169A      3.456022   170A      3.469745   171A      3.503114  
     172A      3.518063   173A      3.532714   174A      3.552146  
     175A      3.576189   176A      3.590909   177A      3.607746  
     178A      3.617288   179A      3.639392   180A      3.666177  
     181A      3.683492   182A      3.701501   183A      3.738513  
     184A      3.761504   185A      3.776630   186A      3.784816  
     187A      3.789794   188A      3.805216   189A      3.806081  
     190A      3.843394   191A      3.859599   192A      3.871834  
     193A      3.885113   194A      3.914426   195A      3.924663  
     196A      3.950803   197A      3.961049   198A      3.967972  
     199A      4.002028   200A      4.020465   201A      4.078906  
     202A      4.084310   203A      4.100086   204A      4.110111  
     205A      4.130192   206A      4.155561   207A      4.157804  
     208A      4.170020   209A      4.185478   210A      4.194522  
     211A      4.220248   212A      4.234420   213A      4.246444  
     214A      4.268934   215A      4.282614   216A      4.294910  
     217A      4.309091   218A      4.344649   219A      4.354586  
     220A      4.364556   221A      4.377816   222A      4.415906  
     223A      4.430124   224A      4.441574   225A      4.454200  
     226A      4.477838   227A      4.483248   228A      4.500047  
     229A      4.519606   230A      4.537356   231A      4.555235  
     232A      4.566638   233A      4.604081   234A      4.620765  
     235A      4.629149   236A      4.658326   237A      4.677992  
     238A      4.699420   239A      4.724132   240A      4.727531  
     241A      4.782659   242A      4.797313   243A      4.822194  
     244A      4.837679   245A      4.858716   246A      4.864614  
     247A      4.879984   248A      4.970523   249A      4.993962  
     250A      5.049448   251A      5.084304   252A      5.106754  
     253A      5.112537   254A      5.189512   255A      5.226001  
     256A      5.244696   257A      5.257223   258A      5.270649  
     259A      5.283906   260A      5.325870   261A      5.350096  
     262A      5.386841   263A      5.395749   264A      5.415095  
     265A      5.464756   266A      5.470609   267A      5.499071  
     268A      5.536139   269A      5.571055   270A      5.603608  
     271A      5.616057   272A      5.645256   273A      5.708294  
     274A      5.726506   275A      5.753043   276A      5.764094  
     277A      5.781647   278A      5.799472   279A      5.810551  
     280A      5.865776   281A      5.906564   282A      5.911822  
     283A      5.936365   284A      5.985119   285A      6.008071  
     286A      6.034189   287A      6.131734   288A      6.156744  
     289A      6.270765   290A      6.305471   291A      6.333390  
     292A      6.344165   293A      6.382683   294A      6.412261  
     295A      6.471044   296A      6.491989   297A      6.610616  
     298A      6.722538   299A      7.370691   300A     12.687395  
     301A     13.172896   302A     13.709970   303A     14.169441  
     304A     14.343202  

    Final Occupation by Irrep:
              A 
    DOCC [    21 ]

  Energy converged.

  @DF-RHF Final Energy:  -212.39558095255066

   => Energetics <=

    Nuclear Repulsion Energy =            187.9909129780482715
    One-Electron Energy =                -658.6108983383913937
    Two-Electron Energy =                 258.2244044077924059
    DFT Exchange-Correlation Energy =       0.0000000000000000
    Empirical Dispersion Energy =           0.0000000000000000
    PCM Polarization Energy =               0.0000000000000000
    EFP Energy =                            0.0000000000000000
    Total Energy =                       -212.3955809525506879


  Saving occupied orbitals to File 180.

*** tstop() called on cx1-28-12-4 at Sat Sep 10 15:52:31 2016
Module time:
	user time   =      21.68 seconds =       0.36 minutes
	system time =       0.57 seconds =       0.01 minutes
	total time  =          7 seconds =       0.12 minutes
Total time:
	user time   =      21.68 seconds =       0.36 minutes
	system time =       0.57 seconds =       0.01 minutes
	total time  =          7 seconds =       0.12 minutes


Properties will be evaluated at   0.000000,   0.000000,   0.000000 Bohr

Properties computed using the SCF density matrix

  Nuclear Dipole Moment: (a.u.)
     X:    -2.3481      Y:     1.0108      Z:    -0.2413

  Electronic Dipole Moment: (a.u.)
     X:     2.4123      Y:    -0.7597      Z:     0.6752

  Dipole Moment: (a.u.)
     X:     0.0642      Y:     0.2510      Z:     0.4339     Total:     0.5054

  Dipole Moment: (Debye)
     X:     0.1632      Y:     0.6381      Z:     1.1030     Total:     1.2847


*** tstart() called on cx1-28-12-4
*** at Sat Sep 10 15:52:31 2016


         ------------------------------------------------------------
                                   SCF GRAD                          
                          Rob Parrish, Justin Turney,                
                       Andy Simmonett, and Alex Sokolov              
         ------------------------------------------------------------

  ==> Geometry <==

    Molecular point group: c1
    Full point group: C1

    Geometry (in Angstrom), charge = 0, multiplicity = 1:

       Center              X                  Y                   Z               Mass       
    ------------   -----------------  -----------------  -----------------  -----------------
           H          3.152549368359    -0.026214190210     0.163119728852     1.007825032070
           N          2.313117368359    -0.565125190210     0.185884728852    14.003074004780
           C          1.142682368359     0.292183809790     0.287861728852    12.000000000000
           H          2.376768368359    -1.176424190210     0.973030728852     1.007825032070
           C         -0.137402631641    -0.528398190210     0.238983728852    12.000000000000
           H          1.160045368359     0.977963809790    -0.552613271148     1.007825032070
           H          1.142194368359     0.904083809790     1.190946728852     1.007825032070
           C         -1.401222631641     0.322711809790     0.313655728852    12.000000000000
           H         -0.137555631641    -1.115341190210    -0.673805271148     1.007825032070
           H         -0.134968631641    -1.240407190210     1.062277728852     1.007825032070
           C         -2.093528631641     0.482555809790    -1.035845271148    12.000000000000
           H         -1.150025631641     1.304430809790     0.706202728852     1.007825032070
           H         -2.095497631641    -0.119814190210     1.022899728852     1.007825032070
           H         -1.436139631641     0.953586809790    -1.758824271148     1.007825032070
           H         -2.984284631641     1.094308809790    -0.950621271148     1.007825032070
           H         -2.390637631641    -0.479745190210    -1.439432271148     1.007825032070

  Nuclear repulsion =  187.990912978048271

  ==> Basis Set <==

  Basis Set: CC-PVTZ
    Number of shells: 116
    Number of basis function: 304
    Number of Cartesian functions: 340
    Spherical Harmonics?: true
    Max angular momentum: 3

  ==> DFJKGrad: Density-Fitted SCF Gradients <==

    Gradient:                    1
    J tasked:                  Yes
    K tasked:                  Yes
    wK tasked:                  No
    OpenMP threads:              4
    Integrals threads:           4
    Memory (MB):              1430
    Schwarz Cutoff:          0E+00
    Fitting Condition:       1E-12

   => Auxiliary Basis Set <=

  Basis Set: 
    Number of shells: 235
    Number of basis function: 725
    Number of Cartesian functions: 865
    Spherical Harmonics?: true
    Max angular momentum: 4


  -Total Gradient:
     Atom            X                  Y                   Z
    ------   -----------------  -----------------  -----------------
       1       -0.000113643511     0.000051429173     0.000035304814
       2        0.000111452438    -0.000631925310     0.000297213040
       3       -0.001737560238     0.001271979947     0.000841713319
       4        0.000143218569     0.000035133857    -0.000014700804
       5       -0.003380473992     0.004926791257    -0.001809416078
       6        0.000025021466    -0.000460640761     0.000092345921
       7        0.000287257087     0.000415347802     0.000036141525
       8        0.005048293889    -0.001985176852    -0.000582571068
       9       -0.001052499498     0.000688296117    -0.001396895618
      10       -0.002441146677    -0.000790099977     0.001029514361
      11        0.001247433071    -0.001732151750     0.000032773437
      12        0.001855741225     0.000218445788    -0.000575311547
      13        0.000201546128    -0.001466687269     0.001789050505
      14       -0.000082635219     0.000059365605     0.000378314950
      15        0.000135042746    -0.000436713264     0.000339578306
      16       -0.000247047483    -0.000163394363    -0.000493055060


*** tstop() called on cx1-28-12-4 at Sat Sep 10 15:52:36 2016
Module time:
	user time   =      20.52 seconds =       0.34 minutes
	system time =       0.46 seconds =       0.01 minutes
	total time  =          5 seconds =       0.08 minutes
Total time:
	user time   =      42.27 seconds =       0.70 minutes
	system time =       1.03 seconds =       0.02 minutes
	total time  =         12 seconds =       0.20 minutes

			-----------------------------------------
			 OPTKING 2.0: for geometry optimizations 
			  - R.A. King,  Bethel University        
			-----------------------------------------

	Internal coordinates to be generated automatically.
	Detected frag 1 with atoms:  1 2 3 4 5 6 7 8 9 10 11 12 13 14 15 16
	---Fragment 1 Bond Connectivity---
	 1 : 2
	 2 : 1 3 4
	 3 : 2 5 6 7
	 4 : 2
	 5 : 3 8 9 10
	 6 : 3
	 7 : 3
	 8 : 5 11 12 13
	 9 : 5
	 10 : 5
	 11 : 8 14 15 16
	 12 : 8
	 13 : 8
	 14 : 11
	 15 : 11
	 16 : 11

	Assuming in current code that numbering for constraints corresponds to unified fragment.
	Frozen dihedral atom list: 
	    12     8     5     9
	---Fragment 1 Geometry and Gradient---
	 H           5.9574549266       -0.0495376403        0.3082516144
	 N           4.3711583394       -1.0679318403        0.3512712298
	 C           2.1593567331        0.5521473810        0.5439798317
	 H           4.4914412975       -2.2231195356        1.8387615964
	 C          -0.2596533437       -0.9985278686        0.4516137977
	 H           2.1921680479        1.8480837684       -1.0442877399
	 H           2.1584345467        1.7084708017        2.2505631564
	 C          -2.6479270250        0.6098369404        0.5927234275
	 H          -0.2599424718       -2.1076893942       -1.2733074294
	 H          -0.2550537503       -2.3440298828        2.0074139846
	 C          -3.9561957652        0.9118983243       -1.9574638785
	 H          -2.1732334896        2.4650169898        1.3345297518
	 H          -3.9599166359       -0.2264160063        1.9330003489
	 H          -2.7139105924        1.8020179144       -3.3236961883
	 H          -5.6394806564        2.0679439553       -1.7964138586
	 H          -4.5176504068       -0.9065870231       -2.7201327793
	            -0.0001136435        0.0000514292        0.0000353048
	             0.0001114524       -0.0006319253        0.0002972130
	            -0.0017375602        0.0012719799        0.0008417133
	             0.0001432186        0.0000351339       -0.0000147008
	            -0.0033804740        0.0049267913       -0.0018094161
	             0.0000250215       -0.0004606408        0.0000923459
	             0.0002872571        0.0004153478        0.0000361415
	             0.0050482939       -0.0019851769       -0.0005825711
	            -0.0010524995        0.0006882961       -0.0013968956
	            -0.0024411467       -0.0007901000        0.0010295144
	             0.0012474331       -0.0017321518        0.0000327734
	             0.0018557412        0.0002184458       -0.0005753115
	             0.0002015461       -0.0014666873        0.0017890505
	            -0.0000826352        0.0000593656        0.0003783149
	             0.0001350427       -0.0004367133        0.0003395783
	            -0.0002470475       -0.0001633944       -0.0004930551

	Previous optimization step data not found.  Starting new optimization.

	---Fragment 1 Intrafragment Coordinates---
	 - Coordinate -           - BOHR/RAD -       - ANG/DEG -
	 R(1,2)           =         1.885554	       0.997792
	 R(2,3)           =         2.748429	       1.454406
	 R(2,4)           =         1.887208	       0.998667
	 R(3,5)           =         2.874845	       1.521303
	 R(3,6)           =         2.050152	       1.084894
	 R(3,7)           =         2.061434	       1.090864
	 R(5,8)           =         2.882811	       1.525518
	 R(5,9)           =         2.050754	       1.085212
	 R(5,10)          =         2.056918	       1.088474
	 R(8,11)          =         2.882059	       1.525120
	 R(8,12)          =         2.053607	       1.086722
	 R(8,13)          =         2.053528	       1.086680
	 R(11,14)         =         2.049921	       1.084771
	 R(11,15)         =         2.048372	       1.083952
	 R(11,16)         =         2.050313	       1.084979
	 B(1,2,3)         =         1.939344	     111.116224
	 B(1,2,4)         =         1.870218	     107.155609
	 B(2,3,5)         =         1.935795	     110.912867
	 B(2,3,6)         =         1.881162	     107.782644
	 B(2,3,7)         =         1.970398	     112.895467
	 B(3,2,4)         =         1.935681	     110.906345
	 B(3,5,8)         =         1.976412	     113.240064
	 B(3,5,9)         =         1.895341	     108.595038
	 B(3,5,10)        =         1.903557	     109.065785
	 B(5,3,6)         =         1.906609	     109.240652
	 B(5,3,7)         =         1.905813	     109.195063
	 B(5,8,11)        =         1.972759	     113.030793
	 B(5,8,12)        =         1.907302	     109.280367
	 B(5,8,13)        =         1.911387	     109.514394
	 B(6,3,7)         =         1.861664	     106.665487
	 B(8,5,9)         =         1.920699	     110.047937
	 B(8,5,10)        =         1.906868	     109.255488
	 B(8,11,14)       =         1.939227	     111.109538
	 B(8,11,15)       =         1.941863	     111.260570
	 B(8,11,16)       =         1.939591	     111.130375
	 B(9,5,10)        =         1.857098	     106.403866
	 B(11,8,12)       =         1.906966	     109.261081
	 B(11,8,13)       =         1.907288	     109.279580
	 B(12,8,13)       =         1.854385	     106.248422
	 B(14,11,15)      =         1.881094	     107.778764
	 B(14,11,16)      =         1.878803	     107.647469
	 B(15,11,16)      =         1.880498	     107.744580
	 D(1,2,3,5)       =         3.082843	     176.633877
	 D(1,2,3,6)       =         0.996472	      57.093663
	 D(1,2,3,7)       =        -1.055003	     -60.447245
	 D(2,3,5,8)       =        -3.121251	    -178.834537
	 D(2,3,5,9)       =        -0.982269	     -56.279872
	 D(2,3,5,10)      =         1.034718	      59.284990
	 D(3,5,8,11)      =         1.808944	     103.644855
	 D(3,5,8,12)      =        -0.318625	     -18.255849
	 D(3,5,8,13)      =        -2.343313	    -134.261928
	 D(4,2,3,5)       =        -1.122032	     -64.287707
	 D(4,2,3,6)       =         3.074783	     176.172079
	 D(4,2,3,7)       =         1.023307	      58.631171
	 D(5,8,11,14)     =        -1.041738	     -59.687206
	 D(5,8,11,15)     =        -3.137776	    -179.781326
	 D(5,8,11,16)     =         1.049882	      60.153798
	 D(6,3,5,8)       =        -1.050188	     -60.171365
	 D(6,3,5,9)       =         1.088794	      62.383301
	 D(6,3,5,10)      =         3.105781	     177.948162
	 D(7,3,5,8)       =         0.979710	      56.133264
	 D(7,3,5,9)       =         3.118693	     178.687930
	 D(7,3,5,10)      =        -1.147505	     -65.747209
	 D(9,5,8,11)      =        -0.315892	     -18.099265
	*D(9,5,8,12)      =        -2.443460	    -139.999969
	 D(9,5,8,13)      =         1.815037	     103.993952
	 D(10,5,8,11)     =        -2.348879	    -134.580870
	 D(10,5,8,12)     =         1.806737	     103.518426
	 D(10,5,8,13)     =        -0.217951	     -12.487653
	 D(12,8,11,14)    =         1.086019	      62.224328
	 D(12,8,11,15)    =        -1.010018	     -57.869792
	 D(12,8,11,16)    =        -3.105546	    -177.934668
	 D(13,8,11,14)    =         3.108223	     178.088079
	 D(13,8,11,15)    =         1.012186	      57.993959
	 D(13,8,11,16)    =        -1.083342	     -62.070917

	Current energy   :      -212.3955809526

	Generating empirical Hessian (Schlegel '84) for each fragment.
	Taking RFO optimization step.
	Going to follow RFO solution 1.
	Using RFO vector 1.
	Norm of target step-size    0.26150
	Projected energy change by RFO approximation:        -0.0038977802

	Back-transformation to cartesian coordinates...
	Successfully converged to displaced geometry.

	Back-transformation to cartesian coordinates to adjust frozen coordinates...
	Successfully converged to displaced geometry.

	--- Internal Coordinate Step in ANG or DEG, aJ/ANG or AJ/DEG ---
	 ---------------------------------------------------------------------------
	   Coordinate                Previous        Force       Change         New 
	   ----------                --------       ------       ------       ------
	    1 R(1,2)          =      0.997792     0.000565     0.000075     0.997868
	    2 R(2,3)          =      1.454406    -0.003400    -0.000578     1.453828
	    3 R(2,4)          =      0.998667     0.000197     0.000026     0.998694
	    4 R(3,5)          =      1.521303     0.005534     0.001172     1.522474
	    5 R(3,6)          =      1.084894     0.002985     0.000540     1.085434
	    6 R(3,7)          =      1.090864    -0.002165    -0.000399     1.090465
	    7 R(5,8)          =      1.525518     0.080636     0.017301     1.542819
	    8 R(5,9)          =      1.085212    -0.006614    -0.001198     1.084015
	    9 R(5,10)         =      1.088474    -0.010629    -0.001946     1.086528
	   10 R(8,11)         =      1.525120     0.007778     0.001667     1.526787
	   11 R(8,12)         =      1.086722    -0.003448    -0.000628     1.086095
	   12 R(8,13)         =      1.086680    -0.013480    -0.002453     1.084227
	   13 R(11,14)        =      1.084771     0.002278     0.000412     1.085183
	   14 R(11,15)        =      1.083952     0.002725     0.000491     1.084443
	   15 R(11,16)        =      1.084979    -0.003262    -0.000590     1.084389
	   16 B(1,2,3)        =    111.116224     0.000017     0.107338   111.223562
	   17 B(1,2,4)        =    107.155609     0.000002     0.023381   107.178990
	   18 B(2,3,5)        =    110.912867     0.000041     0.210657   111.123523
	   19 B(2,3,6)        =    107.782644    -0.000020    -0.033687   107.748957
	   20 B(2,3,7)        =    112.895467     0.000010     0.072278   112.967745
	   21 B(3,2,4)        =    110.906345    -0.000015    -0.056099   110.850246
	   22 B(3,5,8)        =    113.240064     0.000029    -0.106182   113.133882
	   23 B(3,5,9)        =    108.595038    -0.000068    -1.427718   107.167320
	   24 B(3,5,10)       =    109.065785    -0.000096    -0.492464   108.573321
	   25 B(5,3,6)        =    109.240652     0.000004     0.047472   109.288123
	   26 B(5,3,7)        =    109.195063    -0.000044    -0.305944   108.889119
	   27 B(5,8,11)       =    113.030793     0.000137     0.424539   113.455331
	   28 B(5,8,12)       =    109.280367     0.000023     0.316056   109.596423
	   29 B(5,8,13)       =    109.514394     0.000033     0.997612   110.512005
	   30 B(6,3,7)        =    106.665487     0.000007     0.006724   106.672211
	   31 B(8,5,9)        =    110.047937     0.000036     0.254228   110.302165
	   32 B(8,5,10)       =    109.255488     0.000118     1.560230   110.815719
	   33 B(8,11,14)      =    111.109538     0.000022     0.080553   111.190092
	   34 B(8,11,15)      =    111.260570     0.000041     0.202763   111.463333
	   35 B(8,11,16)      =    111.130375    -0.000056    -0.318133   110.812243
	   36 B(9,5,10)       =    106.403866    -0.000026     0.167130   106.570996
	   37 B(11,8,12)      =    109.261081    -0.000104    -1.422365   107.838716
	   38 B(11,8,13)      =    109.279580    -0.000083    -0.359054   108.920526
	   39 B(12,8,13)      =    106.248422    -0.000016    -0.016579   106.231844
	   40 B(14,11,15)     =    107.778764    -0.000025    -0.039762   107.739002
	   41 B(14,11,16)     =    107.647469     0.000006    -0.035331   107.612138
	   42 B(15,11,16)     =    107.744580     0.000012     0.110888   107.855468
	   43 D(1,2,3,5)      =    176.633877     0.000003     0.300811   176.934688
	   44 D(1,2,3,6)      =     57.093663    -0.000001     0.140186    57.233849
	   45 D(1,2,3,7)      =    -60.447245    -0.000002     0.111532   -60.335713
	   46 D(2,3,5,8)      =   -178.834537     0.000010     4.242090  -174.592447
	   47 D(2,3,5,9)      =    -56.279872     0.000014     3.482962   -52.796910
	   48 D(2,3,5,10)     =     59.284990    -0.000013     2.671199    61.956189
	   49 D(3,5,8,11)     =    103.644855    -0.000015    -3.032879   100.611976
	   50 D(3,5,8,12)     =    -18.255849    -0.000009    -1.724850   -19.980698
	   51 D(3,5,8,13)     =   -134.261928    -0.000012    -2.461753  -136.723680
	   52 D(4,2,3,5)      =    -64.287707     0.000004     0.363383   -63.924324
	   53 D(4,2,3,6)      =    176.172079    -0.000000     0.202758   176.374837
	   54 D(4,2,3,7)      =     58.631171    -0.000001     0.174104    58.805275
	   55 D(5,8,11,14)    =    -59.687206     0.000006     3.287695   -56.399511
	   56 D(5,8,11,15)    =   -179.781326     0.000004     3.146747  -176.634580
	   57 D(5,8,11,16)    =     60.153798     0.000003     3.085118    63.238916
	   58 D(6,3,5,8)      =    -60.171365     0.000011     4.358773   -55.812592
	   59 D(6,3,5,9)      =     62.383301     0.000015     3.599645    65.982946
	   60 D(6,3,5,10)     =    177.948162    -0.000012     2.787882   180.736044
	   61 D(7,3,5,8)      =     56.133264     0.000008     4.222013    60.355277
	   62 D(7,3,5,9)      =    178.687930     0.000012     3.462885   182.150815
	   63 D(7,3,5,10)     =    -65.747209    -0.000015     2.651122   -63.096087
	   64 D(9,5,8,11)     =    -18.099265    -0.000006    -1.308029   -19.407294
	   65 *D(9,5,8,12)    =   -139.999969     0.000000    -0.000000  -139.999969
	   66 D(9,5,8,13)     =    103.993952    -0.000003    -0.736903   103.257049
	   67 D(10,5,8,11)    =   -134.580870    -0.000019    -2.599977  -137.180847
	   68 D(10,5,8,12)    =    103.518426    -0.000013    -1.291948   102.226479
	   69 D(10,5,8,13)    =    -12.487653    -0.000016    -2.028851   -14.516504
	   70 D(12,8,11,14)   =     62.224328     0.000017     2.956668    65.180996
	   71 D(12,8,11,15)   =    -57.869792     0.000015     2.815720   -55.054072
	   72 D(12,8,11,16)   =   -177.934668     0.000014     2.754092  -175.180576
	   73 D(13,8,11,14)   =    178.088079    -0.000011     1.973184   180.061263
	   74 D(13,8,11,15)   =     57.993959    -0.000014     1.832236    59.826195
	   75 D(13,8,11,16)   =    -62.070917    -0.000015     1.770607   -60.300310
	 ---------------------------------------------------------------------------
	Successfully symmetrized geometry.

  ==> Convergence Check <==

  Measures of convergence in internal coordinates in au.
  Criteria marked as inactive (o), active & met (*), and active & unmet ( ).
  --------------------------------------------------------------------------------------------- ~
   Step     Total Energy     Delta E     MAX Force     RMS Force      MAX Disp      RMS Disp    ~
  --------------------------------------------------------------------------------------------- ~
    Convergence Criteria    1.00e-06 *    3.00e-04 *             o    1.20e-03 *             o  ~
  --------------------------------------------------------------------------------------------- ~
      1    -212.39558095   -2.12e+02      9.79e-03      1.32e-03 o    7.61e-02      3.02e-02 o  ~
  ---------------------------------------------------------------------------------------------

	Writing optimization data to binary file.
	Structure for next step:
	Cartesian Geometry (in Angstrom)
	    H     3.1465231811   0.0398585529   0.0318905533
	    N     2.3212460343  -0.5175833973   0.0944681769
	    C     1.1392869713   0.3100938318   0.2720569194
	    H     2.4413998351  -1.1365491186   0.8689576798
	    C    -0.1257013159  -0.5368659584   0.2918503470
	    H     1.0930868746   1.0041239639  -0.5612219378
	    H     1.1746010935   0.9131545830   1.1799024974
	    C    -1.4177717497   0.3045746898   0.3449711292
	    H    -0.1134087796  -1.1512496254  -0.6011608902
	    H    -0.0732226485  -1.2175961786   1.1370698419
	    C    -2.1067686357   0.4464046797  -1.0101099840
	    H    -1.1880839163   1.3022873453   0.7074828253
	    H    -2.1195512823  -0.1211651894   1.0533492409
	    H    -1.4346279284   0.8696272200  -1.7495235229
	    H    -2.9768503611   1.0906390539  -0.9473680065
	    H    -2.4340634787  -0.5193984958  -1.3788932081
			--------------------------
			 OPTKING Finished Execution 
			--------------------------

    Structure for next step:
    Molecular point group: c1
    Full point group: C1

    Geometry (in Angstrom), charge = 0, multiplicity = 1:

    H            3.148308850996     0.038150195391     0.033990452296
    N            2.323031704214    -0.519291754854     0.096568075830
    C            1.141072641146     0.308385474304     0.274156818388
    H            2.443185504956    -1.138257476090     0.871057578737
    C           -0.123915646042    -0.538574315941     0.293950245962
    H            1.094872544476     1.002415606393    -0.559122038833
    H            1.176386763431     0.911446225446     1.182002396362
    C           -1.415986079758     0.302866332261     0.347071028116
    H           -0.111623109659    -1.152957982893    -0.599060991266
    H           -0.071436978579    -1.219304536101     1.139169740839
    C           -2.104982965818     0.444696322207    -1.008010085048
    H           -1.186298246390     1.300578987754     0.709582724298
    H           -2.117765612418    -0.122873546914     1.055449139876
    H           -1.432842258492     0.867918862497    -1.747423623894
    H           -2.975064691170     1.088930696362    -0.945268107508
    H           -2.432277808807    -0.521106853269    -1.376793309191

gradient() will perform analytic gradient computation.

*** tstart() called on cx1-28-12-4
*** at Sat Sep 10 15:52:38 2016


         ---------------------------------------------------------
                                   SCF
            by Justin Turney, Rob Parrish, and Andy Simmonett
                              RHF Reference
                        4 Threads,   2000 MiB Core
         ---------------------------------------------------------

  ==> Geometry <==

    Molecular point group: c1
    Full point group: C1

    Geometry (in Angstrom), charge = 0, multiplicity = 1:

       Center              X                  Y                   Z               Mass       
    ------------   -----------------  -----------------  -----------------  -----------------
           H          3.148308850996     0.038150195391     0.033990452296     1.007825032070
           N          2.323031704214    -0.519291754854     0.096568075830    14.003074004780
           C          1.141072641146     0.308385474304     0.274156818388    12.000000000000
           H          2.443185504956    -1.138257476090     0.871057578737     1.007825032070
           C         -0.123915646042    -0.538574315941     0.293950245962    12.000000000000
           H          1.094872544476     1.002415606393    -0.559122038833     1.007825032070
           H          1.176386763431     0.911446225446     1.182002396362     1.007825032070
           C         -1.415986079758     0.302866332261     0.347071028116    12.000000000000
           H         -0.111623109659    -1.152957982893    -0.599060991266     1.007825032070
           H         -0.071436978579    -1.219304536101     1.139169740839     1.007825032070
           C         -2.104982965818     0.444696322207    -1.008010085048    12.000000000000
           H         -1.186298246390     1.300578987754     0.709582724298     1.007825032070
           H         -2.117765612418    -0.122873546914     1.055449139876     1.007825032070
           H         -1.432842258492     0.867918862497    -1.747423623894     1.007825032070
           H         -2.975064691170     1.088930696362    -0.945268107508     1.007825032070
           H         -2.432277808807    -0.521106853269    -1.376793309191     1.007825032070

  Running in c1 symmetry.

  Rotational constants: A =      0.45450  B =      0.07092  C =      0.06913 [cm^-1]
  Rotational constants: A =  13625.65532  B =   2126.05410  C =   2072.50844 [MHz]
  Nuclear repulsion =  187.654920091913482

  Charge       = 0
  Multiplicity = 1
  Electrons    = 42
  Nalpha       = 21
  Nbeta        = 21

  ==> Algorithm <==

  SCF Algorithm Type is DF.
  DIIS enabled.
  MOM disabled.
  Fractional occupation disabled.
  Guess Type is READ.
  Energy threshold   = 1.00e-08
  Density threshold  = 1.00e-08
  Integral threshold = 0.00e+00

  ==> Primary Basis <==

  Basis Set: CC-PVTZ
    Number of shells: 116
    Number of basis function: 304
    Number of Cartesian functions: 340
    Spherical Harmonics?: true
    Max angular momentum: 3

  ==> Pre-Iterations <==

   -------------------------------------------------------
    Irrep   Nso     Nmo     Nalpha   Nbeta   Ndocc  Nsocc
   -------------------------------------------------------
     A        304     304       0       0       0       0
   -------------------------------------------------------
    Total     304     304      21      21      21       0
   -------------------------------------------------------

  ==> Integral Setup <==

  ==> DFJK: Density-Fitted J/K Matrices <==

    J tasked:                  Yes
    K tasked:                  Yes
    wK tasked:                  No
    OpenMP threads:              4
    Integrals threads:           4
    Memory (MB):              1430
    Algorithm:                Core
    Integral Cache:           NONE
    Schwarz Cutoff:          1E-12
    Fitting Condition:       1E-12

   => Auxiliary Basis Set <=

  Basis Set: 
    Number of shells: 235
    Number of basis function: 725
    Number of Cartesian functions: 865
    Spherical Harmonics?: true
    Max angular momentum: 4

  Minimum eigenvalue in the overlap matrix is 4.6008921569E-04.
  Using Symmetric Orthogonalization.
  SCF Guess: Reading in previously saved MOs, projecting if necessary.

  Using orbitals from previous SCF, no projection.
  Recomputing DOCC and SOCC from number of alpha and beta electrons from previous calculation.
              A 
    DOCC [    21 ]

  ==> Iterations <==

                           Total Energy        Delta E     RMS |[F,P]|

   @DF-RHF iter   0:  -212.38275981741407   -2.12383e+02   3.46610e-04 
   @DF-RHF iter   1:  -212.39554040898105   -1.27806e-02   6.32829e-05 
   @DF-RHF iter   2:  -212.39584430594522   -3.03897e-04   2.20636e-05 DIIS
   @DF-RHF iter   3:  -212.39588254761838   -3.82417e-05   1.00626e-05 DIIS
   @DF-RHF iter   4:  -212.39588837278069   -5.82516e-06   1.30789e-06 DIIS
   @DF-RHF iter   5:  -212.39588857430459   -2.01524e-07   4.73647e-07 DIIS
   @DF-RHF iter   6:  -212.39588859905621   -2.47516e-08   1.56160e-07 DIIS
   @DF-RHF iter   7:  -212.39588860197188   -2.91567e-09   4.62128e-08 DIIS
   @DF-RHF iter   8:  -212.39588860229799   -3.26111e-10   1.17139e-08 DIIS
   @DF-RHF iter   9:  -212.39588860231902   -2.10321e-11   3.20120e-09 DIIS

  ==> Post-Iterations <==

    Orbital Energies (a.u.)
    -----------------------

    Doubly Occupied:                                                      

       1A    -15.526806     2A    -11.238439     3A    -11.213384  
       4A    -11.208254     5A    -11.205473     6A     -1.178635  
       7A     -1.057785     8A     -0.958273     9A     -0.848651  
      10A     -0.789095    11A     -0.663578    12A     -0.624494  
      13A     -0.621741    14A     -0.587191    15A     -0.551209  
      16A     -0.524783    17A     -0.507337    18A     -0.469040  
      19A     -0.464769    20A     -0.456179    21A     -0.384359  

    Virtual:                                                              

      22A      0.143003    23A      0.151784    24A      0.169251  
      25A      0.177366    26A      0.200221    27A      0.210919  
      28A      0.228813    29A      0.238325    30A      0.241203  
      31A      0.257398    32A      0.274065    33A      0.313437  
      34A      0.340151    35A      0.363961    36A      0.387195  
      37A      0.401367    38A      0.416872    39A      0.437533  
      40A      0.453016    41A      0.470529    42A      0.481503  
      43A      0.516628    44A      0.555995    45A      0.564003  
      46A      0.581922    47A      0.599769    48A      0.608516  
      49A      0.613929    50A      0.618348    51A      0.631826  
      52A      0.649375    53A      0.662805    54A      0.669712  
      55A      0.676121    56A      0.684254    57A      0.693579  
      58A      0.697404    59A      0.718954    60A      0.727613  
      61A      0.737109    62A      0.747241    63A      0.770638  
      64A      0.824173    65A      0.835953    66A      0.853749  
      67A      0.879213    68A      0.925702    69A      0.951767  
      70A      0.994954    71A      1.021738    72A      1.031245  
      73A      1.062181    74A      1.086227    75A      1.090771  
      76A      1.126111    77A      1.141317    78A      1.170605  
      79A      1.182700    80A      1.213523    81A      1.216342  
      82A      1.237100    83A      1.244956    84A      1.267788  
      85A      1.282449    86A      1.292855    87A      1.313616  
      88A      1.324135    89A      1.355460    90A      1.361324  
      91A      1.378736    92A      1.395198    93A      1.401250  
      94A      1.402539    95A      1.423425    96A      1.431464  
      97A      1.450209    98A      1.467163    99A      1.474389  
     100A      1.506382   101A      1.514888   102A      1.534187  
     103A      1.552410   104A      1.566260   105A      1.601931  
     106A      1.625577   107A      1.629594   108A      1.637329  
     109A      1.661343   110A      1.694105   111A      1.714292  
     112A      1.731630   113A      1.740439   114A      1.753153  
     115A      1.800625   116A      1.820425   117A      1.832909  
     118A      1.846846   119A      1.863732   120A      1.915240  
     121A      1.975067   122A      1.988193   123A      2.032738  
     124A      2.084664   125A      2.138729   126A      2.514302  
     127A      2.561825   128A      2.583661   129A      2.610155  
     130A      2.669810   131A      2.698630   132A      2.715858  
     133A      2.737614   134A      2.769341   135A      2.786818  
     136A      2.820315   137A      2.837112   138A      2.851407  
     139A      2.880403   140A      2.892671   141A      2.917119  
     142A      2.948308   143A      2.980129   144A      2.992414  
     145A      3.027809   146A      3.044304   147A      3.085941  
     148A      3.092744   149A      3.118320   150A      3.139316  
     151A      3.156859   152A      3.176914   153A      3.188368  
     154A      3.207856   155A      3.241058   156A      3.258672  
     157A      3.280993   158A      3.291417   159A      3.310752  
     160A      3.341282   161A      3.346446   162A      3.365060  
     163A      3.380974   164A      3.401457   165A      3.428950  
     166A      3.435158   167A      3.440456   168A      3.447887  
     169A      3.456940   170A      3.464453   171A      3.497138  
     172A      3.514126   173A      3.529892   174A      3.549665  
     175A      3.576263   176A      3.588395   177A      3.598458  
     178A      3.616538   179A      3.640458   180A      3.666808  
     181A      3.684819   182A      3.701837   183A      3.736073  
     184A      3.759750   185A      3.775911   186A      3.780040  
     187A      3.789901   188A      3.798098   189A      3.805559  
     190A      3.842359   191A      3.856678   192A      3.868060  
     193A      3.882187   194A      3.907630   195A      3.920042  
     196A      3.947783   197A      3.955545   198A      3.969484  
     199A      3.998687   200A      4.024228   201A      4.071031  
     202A      4.080060   203A      4.100625   204A      4.121160  
     205A      4.125628   206A      4.147034   207A      4.157803  
     208A      4.171907   209A      4.184491   210A      4.192862  
     211A      4.218198   212A      4.232910   213A      4.243602  
     214A      4.269843   215A      4.282714   216A      4.296220  
     217A      4.313529   218A      4.338856   219A      4.348161  
     220A      4.371738   221A      4.380075   222A      4.411937  
     223A      4.428109   224A      4.434184   225A      4.455798  
     226A      4.468288   227A      4.481959   228A      4.500837  
     229A      4.517420   230A      4.539874   231A      4.553125  
     232A      4.564994   233A      4.606655   234A      4.619260  
     235A      4.625483   236A      4.655736   237A      4.676792  
     238A      4.697750   239A      4.717465   240A      4.727639  
     241A      4.780280   242A      4.794783   243A      4.815857  
     244A      4.842186   245A      4.857380   246A      4.867848  
     247A      4.880332   248A      4.965454   249A      4.984447  
     250A      5.045985   251A      5.089249   252A      5.109022  
     253A      5.113318   254A      5.187899   255A      5.212724  
     256A      5.239959   257A      5.257445   258A      5.270267  
     259A      5.287282   260A      5.313344   261A      5.344994  
     262A      5.379546   263A      5.399380   264A      5.411840  
     265A      5.456893   266A      5.469725   267A      5.492750  
     268A      5.529219   269A      5.564910   270A      5.596762  
     271A      5.611200   272A      5.642979   273A      5.709839  
     274A      5.734722   275A      5.751960   276A      5.761331  
     277A      5.779674   278A      5.799633   279A      5.811568  
     280A      5.865028   281A      5.905953   282A      5.910380  
     283A      5.939694   284A      5.985691   285A      6.009104  
     286A      6.032399   287A      6.116603   288A      6.151807  
     289A      6.268244   290A      6.302939   291A      6.333762  
     292A      6.341897   293A      6.379850   294A      6.412220  
     295A      6.465482   296A      6.491429   297A      6.608535  
     298A      6.722068   299A      7.368143   300A     12.737800  
     301A     13.158079   302A     13.624796   303A     14.151363  
     304A     14.336206  

    Final Occupation by Irrep:
              A 
    DOCC [    21 ]

  Energy converged.

  @DF-RHF Final Energy:  -212.39588860231902

   => Energetics <=

    Nuclear Repulsion Energy =            187.6549200919134819
    One-Electron Energy =                -657.9426634764450910
    Two-Electron Energy =                 257.8918547822125333
    DFT Exchange-Correlation Energy =       0.0000000000000000
    Empirical Dispersion Energy =           0.0000000000000000
    PCM Polarization Energy =               0.0000000000000000
    EFP Energy =                            0.0000000000000000
    Total Energy =                       -212.3958886023190757


  Saving occupied orbitals to File 180.

*** tstop() called on cx1-28-12-4 at Sat Sep 10 15:52:42 2016
Module time:
	user time   =      15.06 seconds =       0.25 minutes
	system time =       0.39 seconds =       0.01 minutes
	total time  =          4 seconds =       0.07 minutes
Total time:
	user time   =      59.63 seconds =       0.99 minutes
	system time =       1.48 seconds =       0.02 minutes
	total time  =         18 seconds =       0.30 minutes


Properties will be evaluated at   0.000000,   0.000000,   0.000000 Bohr

Properties computed using the SCF density matrix

  Nuclear Dipole Moment: (a.u.)
     X:    -2.3172      Y:     0.9905      Z:    -0.2219

  Electronic Dipole Moment: (a.u.)
     X:     2.4001      Y:    -0.7425      Z:     0.6532

  Dipole Moment: (a.u.)
     X:     0.0829      Y:     0.2480      Z:     0.4312     Total:     0.5043

  Dipole Moment: (Debye)
     X:     0.2108      Y:     0.6303      Z:     1.0961     Total:     1.2819


*** tstart() called on cx1-28-12-4
*** at Sat Sep 10 15:52:42 2016


         ------------------------------------------------------------
                                   SCF GRAD                          
                          Rob Parrish, Justin Turney,                
                       Andy Simmonett, and Alex Sokolov              
         ------------------------------------------------------------

  ==> Geometry <==

    Molecular point group: c1
    Full point group: C1

    Geometry (in Angstrom), charge = 0, multiplicity = 1:

       Center              X                  Y                   Z               Mass       
    ------------   -----------------  -----------------  -----------------  -----------------
           H          3.148308850996     0.038150195391     0.033990452296     1.007825032070
           N          2.323031704214    -0.519291754854     0.096568075830    14.003074004780
           C          1.141072641146     0.308385474304     0.274156818388    12.000000000000
           H          2.443185504956    -1.138257476090     0.871057578737     1.007825032070
           C         -0.123915646042    -0.538574315941     0.293950245962    12.000000000000
           H          1.094872544476     1.002415606393    -0.559122038833     1.007825032070
           H          1.176386763431     0.911446225446     1.182002396362     1.007825032070
           C         -1.415986079758     0.302866332261     0.347071028116    12.000000000000
           H         -0.111623109659    -1.152957982893    -0.599060991266     1.007825032070
           H         -0.071436978579    -1.219304536101     1.139169740839     1.007825032070
           C         -2.104982965818     0.444696322207    -1.008010085048    12.000000000000
           H         -1.186298246390     1.300578987754     0.709582724298     1.007825032070
           H         -2.117765612418    -0.122873546914     1.055449139876     1.007825032070
           H         -1.432842258492     0.867918862497    -1.747423623894     1.007825032070
           H         -2.975064691170     1.088930696362    -0.945268107508     1.007825032070
           H         -2.432277808807    -0.521106853269    -1.376793309191     1.007825032070

  Nuclear repulsion =  187.654920091913510

  ==> Basis Set <==

  Basis Set: CC-PVTZ
    Number of shells: 116
    Number of basis function: 304
    Number of Cartesian functions: 340
    Spherical Harmonics?: true
    Max angular momentum: 3

  ==> DFJKGrad: Density-Fitted SCF Gradients <==

    Gradient:                    1
    J tasked:                  Yes
    K tasked:                  Yes
    wK tasked:                  No
    OpenMP threads:              4
    Integrals threads:           4
    Memory (MB):              1430
    Schwarz Cutoff:          0E+00
    Fitting Condition:       1E-12

   => Auxiliary Basis Set <=

  Basis Set: 
    Number of shells: 235
    Number of basis function: 725
    Number of Cartesian functions: 865
    Spherical Harmonics?: true
    Max angular momentum: 4


  -Total Gradient:
     Atom            X                  Y                   Z
    ------   -----------------  -----------------  -----------------
       1        0.000171831449    -0.000083718056    -0.000081264997
       2        0.000582658971     0.000293082922    -0.000199733203
       3       -0.000183206149    -0.001663509386     0.000075588918
       4       -0.000153890114     0.000123168991    -0.000003941911
       5        0.000151826169    -0.001211106457     0.001964898961
       6        0.000031093728     0.000012694100    -0.000124795895
       7       -0.000296623729    -0.000344309394    -0.000043937990
       8       -0.001305155179    -0.001085472043     0.001193237229
       9        0.001867796640     0.001790821359    -0.000809685605
      10        0.000974496133    -0.000766006795    -0.000255017261
      11       -0.000735282597     0.001331505293     0.000843800251
      12       -0.000587868808     0.000866115779    -0.002774697798
      13       -0.000558343288     0.000675650635     0.000113906183
      14        0.000125277470    -0.000021660138     0.000011741035
      15       -0.000250963030     0.000089979432    -0.000431046343
      16        0.000166352333    -0.000007236241     0.000520948426


*** tstop() called on cx1-28-12-4 at Sat Sep 10 15:52:48 2016
Module time:
	user time   =      20.09 seconds =       0.33 minutes
	system time =       0.45 seconds =       0.01 minutes
	total time  =          6 seconds =       0.10 minutes
Total time:
	user time   =      79.79 seconds =       1.33 minutes
	system time =       1.93 seconds =       0.03 minutes
	total time  =         24 seconds =       0.40 minutes

			-----------------------------------------
			 OPTKING 2.0: for geometry optimizations 
			  - R.A. King,  Bethel University        
			-----------------------------------------

	Previous internal coordinate definitions found.
	---Fragment 1 Geometry and Gradient---
	 H           5.9494415101        0.0720934212        0.0642326460
	 N           4.3898937190       -0.9813191997        0.1824872165
	 C           2.1563147895        0.5827640898        0.5180813042
	 H           4.6169514962       -2.1509948985        1.6460602698
	 C          -0.2341666346       -1.0177579593        0.5554854616
	 H           2.0690092595        1.8942909674       -1.0565875283
	 H           2.2230488092        1.7223837509        2.2336608175
	 C          -2.6758258987        0.5723344228        0.6558691918
	 H          -0.2109371074       -2.1787748304       -1.1320612104
	 H          -0.1349963253       -2.3041516458        2.1527188291
	 C          -3.9778413198        0.8403542613       -1.9048629999
	 H          -2.2417787976        2.4577381010        1.3409170175
	 H          -4.0019970211       -0.2321973526        1.9945098216
	 H          -2.7076794602        1.6401289557       -3.3021520873
	 H          -5.6220574939        2.0577807938       -1.7862978453
	 H          -4.5963389377       -0.9847492386       -2.6017622960
	             0.0001718314       -0.0000837181       -0.0000812650
	             0.0005826590        0.0002930829       -0.0001997332
	            -0.0001832061       -0.0016635094        0.0000755889
	            -0.0001538901        0.0001231690       -0.0000039419
	             0.0001518262       -0.0012111065        0.0019648990
	             0.0000310937        0.0000126941       -0.0001247959
	            -0.0002966237       -0.0003443094       -0.0000439380
	            -0.0013051552       -0.0010854720        0.0011932372
	             0.0018677966        0.0017908214       -0.0008096856
	             0.0009744961       -0.0007660068       -0.0002550173
	            -0.0007352826        0.0013315053        0.0008438003
	            -0.0005878688        0.0008661158       -0.0027746978
	            -0.0005583433        0.0006756506        0.0001139062
	             0.0001252775       -0.0000216601        0.0000117410
	            -0.0002509630        0.0000899794       -0.0004310463
	             0.0001663523       -0.0000072362        0.0005209484

	---Fragment 1 Intrafragment Coordinates---
	 - Coordinate -           - BOHR/RAD -       - ANG/DEG -
	 R(1,2)           =         1.885697	       0.997868
	 R(2,3)           =         2.747336	       1.453828
	 R(2,4)           =         1.887258	       0.998694
	 R(3,5)           =         2.877059	       1.522474
	 R(3,6)           =         2.051172	       1.085434
	 R(3,7)           =         2.060679	       1.090465
	 R(5,8)           =         2.915505	       1.542819
	 R(5,9)           =         2.048491	       1.084015
	 R(5,10)          =         2.053241	       1.086528
	 R(8,11)          =         2.885209	       1.526787
	 R(8,12)          =         2.052422	       1.086095
	 R(8,13)          =         2.048892	       1.084227
	 R(11,14)         =         2.050699	       1.085183
	 R(11,15)         =         2.049300	       1.084443
	 R(11,16)         =         2.049198	       1.084389
	 B(1,2,3)         =         1.941217	     111.223562
	 B(1,2,4)         =         1.870626	     107.178990
	 B(2,3,5)         =         1.939471	     111.123523
	 B(2,3,6)         =         1.880574	     107.748957
	 B(2,3,7)         =         1.971659	     112.967745
	 B(3,2,4)         =         1.934702	     110.850246
	 B(3,5,8)         =         1.974559	     113.133882
	 B(3,5,9)         =         1.870423	     107.167320
	 B(3,5,10)        =         1.894962	     108.573321
	 B(5,3,6)         =         1.907438	     109.288123
	 B(5,3,7)         =         1.900474	     108.889119
	 B(5,8,11)        =         1.980169	     113.455331
	 B(5,8,12)        =         1.912818	     109.596423
	 B(5,8,13)        =         1.928798	     110.512005
	 B(6,3,7)         =         1.861781	     106.672211
	 B(8,5,9)         =         1.925136	     110.302165
	 B(8,5,10)        =         1.934099	     110.815719
	 B(8,11,14)       =         1.940633	     111.190092
	 B(8,11,15)       =         1.945402	     111.463333
	 B(8,11,16)       =         1.934038	     110.812243
	 B(9,5,10)        =         1.860015	     106.570996
	 B(11,8,12)       =         1.882141	     107.838716
	 B(11,8,13)       =         1.901022	     108.920526
	 B(12,8,13)       =         1.854095	     106.231844
	 B(14,11,15)      =         1.880400	     107.739002
	 B(14,11,16)      =         1.878186	     107.612138
	 B(15,11,16)      =         1.882433	     107.855468
	 D(1,2,3,5)       =         3.088093	     176.934688
	 D(1,2,3,6)       =         0.998919	      57.233849
	 D(1,2,3,7)       =        -1.053057	     -60.335713
	 D(2,3,5,8)       =        -3.047213	    -174.592447
	 D(2,3,5,9)       =        -0.921480	     -52.796910
	 D(2,3,5,10)      =         1.081339	      61.956189
	 D(3,5,8,11)      =         1.756010	     100.611976
	 D(3,5,8,12)      =        -0.348729	     -19.980698
	 D(3,5,8,13)      =        -2.386278	    -136.723680
	 D(4,2,3,5)       =        -1.115690	     -63.924324
	 D(4,2,3,6)       =         3.078322	     176.374837
	 D(4,2,3,7)       =         1.026346	      58.805275
	 D(5,8,11,14)     =        -0.984357	     -56.399511
	 D(5,8,11,15)     =        -3.082855	    -176.634580
	 D(5,8,11,16)     =         1.103727	      63.238916
	 D(6,3,5,8)       =        -0.974113	     -55.812592
	 D(6,3,5,9)       =         1.151620	      65.982946
	 D(6,3,5,10)      =        -3.128746	    -179.263956
	 D(7,3,5,8)       =         1.053398	      60.355277
	 D(7,3,5,9)       =        -3.104054	    -177.849185
	 D(7,3,5,10)      =        -1.101234	     -63.096087
	 D(9,5,8,11)      =        -0.338721	     -19.407294
	*D(9,5,8,12)      =        -2.443460	    -139.999969
	 D(9,5,8,13)      =         1.802175	     103.257049
	 D(10,5,8,11)     =        -2.394257	    -137.180847
	 D(10,5,8,12)     =         1.784189	     102.226479
	 D(10,5,8,13)     =        -0.253361	     -14.516504
	 D(12,8,11,14)    =         1.137623	      65.180996
	 D(12,8,11,15)    =        -0.960875	     -55.054072
	 D(12,8,11,16)    =        -3.057478	    -175.180576
	 D(13,8,11,14)    =        -3.140523	    -179.938737
	 D(13,8,11,15)    =         1.044164	      59.826195
	 D(13,8,11,16)    =        -1.052439	     -60.300310

	Current energy   :      -212.3958886023

	Energy change for the previous step:
		Projected    :        -0.0038977802
		Actual       :        -0.0003076498
	Energy ratio indicates iffy step: Trust radius decreased to 1.250e-01.


	Performing BFGS update.
	Previous computed or guess Hessian on step 1.
	Steps to be used in Hessian update: 1
	Taking RFO optimization step.
	Going to follow RFO solution 1.
	Using RFO vector 1.
	Norm of target step-size    0.04195
	Projected energy change by RFO approximation:        -0.0000360870

	Back-transformation to cartesian coordinates...
	Could not converge backtransformation.
	Using first guess instead.

	Back-transformation to cartesian coordinates to adjust frozen coordinates...
	Successfully converged to displaced geometry.

	--- Internal Coordinate Step in ANG or DEG, aJ/ANG or AJ/DEG ---
	 ---------------------------------------------------------------------------
	   Coordinate                Previous        Force       Change         New 
	   ----------                --------       ------       ------       ------
	    1 R(1,2)          =      0.997868    -0.000827    -0.000078     0.997790
	    2 R(2,3)          =      1.453828    -0.002750    -0.000356     1.453472
	    3 R(2,4)          =      0.998694     0.000807     0.000087     0.998781
	    4 R(3,5)          =      1.522474     0.006540     0.001083     1.523557
	    5 R(3,6)          =      1.085434    -0.000845    -0.000084     1.085350
	    6 R(3,7)          =      1.090465     0.001949     0.000268     1.090733
	    7 R(5,8)          =      1.542819    -0.029866    -0.004146     1.538673
	    8 R(5,9)          =      1.084015     0.002692     0.000342     1.084356
	    9 R(5,10)         =      1.086528    -0.002707    -0.000431     1.086097
	   10 R(8,11)         =      1.526787     0.003265     0.000588     1.527374
	   11 R(8,12)         =      1.086095     0.002099     0.000289     1.086384
	   12 R(8,13)         =      1.084227    -0.001405    -0.000270     1.083957
	   13 R(11,14)        =      1.085183    -0.000504    -0.000029     1.085155
	   14 R(11,15)        =      1.084443    -0.001894    -0.000222     1.084221
	   15 R(11,16)        =      1.084389     0.001820     0.000246     1.084635
	   16 B(1,2,3)        =    111.223562    -0.000025    -0.094318   111.129244
	   17 B(1,2,4)        =    107.178990    -0.000001    -0.010044   107.168947
	   18 B(2,3,5)        =    111.123523    -0.000075    -0.202727   110.920796
	   19 B(2,3,6)        =    107.748957     0.000029     0.069615   107.818572
	   20 B(2,3,7)        =    112.967745     0.000006    -0.024432   112.943313
	   21 B(3,2,4)        =    110.850246     0.000024     0.077021   110.927267
	   22 B(3,5,8)        =    113.133882    -0.000087    -0.286093   112.847789
	   23 B(3,5,9)        =    107.167320     0.000046     0.234118   107.401438
	   24 B(3,5,10)       =    108.573321     0.000064     0.177754   108.751075
	   25 B(5,3,6)        =    109.288123     0.000014     0.035100   109.323223
	   26 B(5,3,7)        =    108.889119     0.000047     0.167928   109.057047
	   27 B(5,8,11)       =    113.455331    -0.000120    -0.374122   113.081210
	   28 B(5,8,12)       =    109.596423    -0.000009    -0.155119   109.441304
	   29 B(5,8,13)       =    110.512005     0.000001    -0.210394   110.301611
	   30 B(6,3,7)        =    106.672211    -0.000018    -0.038526   106.633685
	   31 B(8,5,9)        =    110.302165     0.000004    -0.062054   110.240111
	   32 B(8,5,10)       =    110.815719    -0.000036    -0.355948   110.459771
	   33 B(8,11,14)      =    111.190092     0.000010     0.036565   111.226656
	   34 B(8,11,15)      =    111.463333    -0.000062    -0.239157   111.224176
	   35 B(8,11,16)      =    110.812243     0.000063     0.254058   111.066301
	   36 B(9,5,10)       =    106.570996     0.000017     0.348423   106.919419
	   37 B(11,8,12)      =    107.838716     0.000077     0.350288   108.189004
	   38 B(11,8,13)      =    108.920526     0.000054     0.142349   109.062875
	   39 B(12,8,13)      =    106.231844     0.000007     0.302055   106.533898
	   40 B(14,11,15)     =    107.739002     0.000015    -0.024320   107.714682
	   41 B(14,11,16)     =    107.612138    -0.000026    -0.028994   107.583144
	   42 B(15,11,16)     =    107.855468    -0.000000    -0.000101   107.855367
	   43 D(1,2,3,5)      =    176.934688    -0.000001     0.156775   177.091462
	   44 D(1,2,3,6)      =     57.233849     0.000001     0.189611    57.423460
	   45 D(1,2,3,7)      =    -60.335713     0.000001     0.206422   -60.129292
	   46 D(2,3,5,8)      =   -174.592447    -0.000005    -0.526539  -175.118986
	   47 D(2,3,5,9)      =    -52.796910    -0.000009    -0.622323   -53.419233
	   48 D(2,3,5,10)     =     61.956189     0.000009    -0.004675    61.951513
	   49 D(3,5,8,11)     =    100.611976     0.000004     0.150716   100.762692
	   50 D(3,5,8,12)     =    -19.980698     0.000001     0.063092   -19.917606
	   51 D(3,5,8,13)     =   -136.723680     0.000000    -0.088888  -136.812569
	   52 D(4,2,3,5)      =    -63.924324    -0.000001     0.133135   -63.791189
	   53 D(4,2,3,6)      =    176.374837     0.000001     0.165971   176.540808
	   54 D(4,2,3,7)      =     58.805275     0.000001     0.182782    58.988057
	   55 D(5,8,11,14)    =    -56.399511    -0.000004    -0.595787   -56.995299
	   56 D(5,8,11,15)    =   -176.634580     0.000000    -0.428092  -177.062672
	   57 D(5,8,11,16)    =     63.238916    -0.000000    -0.439124    62.799793
	   58 D(6,3,5,8)      =    -55.812592    -0.000005    -0.542354   -56.354946
	   59 D(6,3,5,9)      =     65.982946    -0.000009    -0.638138    65.344808
	   60 D(6,3,5,10)     =   -179.263956     0.000008    -0.020491  -179.284446
	   61 D(7,3,5,8)      =     60.355277    -0.000002    -0.474972    59.880305
	   62 D(7,3,5,9)      =   -177.849185    -0.000006    -0.570756  -178.419941
	   63 D(7,3,5,10)     =    -63.096087     0.000011     0.046891   -63.049195
	   64 D(9,5,8,11)     =    -19.407294     0.000003     0.087624   -19.319671
	   65 *D(9,5,8,12)    =   -139.999969     0.000000    -0.000000  -139.999969
	   66 D(9,5,8,13)     =    103.257049    -0.000001    -0.151981   103.105069
	   67 D(10,5,8,11)    =   -137.180847     0.000002    -0.084162  -137.265009
	   68 D(10,5,8,12)    =    102.226479    -0.000000    -0.171786   102.054693
	   69 D(10,5,8,13)    =    -14.516504    -0.000001    -0.323767   -14.840270
	   70 D(12,8,11,14)   =     65.180996    -0.000012    -0.786829    64.394167
	   71 D(12,8,11,15)   =    -55.054072    -0.000008    -0.619133   -55.673206
	   72 D(12,8,11,16)   =   -175.180576    -0.000008    -0.630165  -175.810741
	   73 D(13,8,11,14)   =   -179.938737     0.000006    -0.169693  -180.108430
	   74 D(13,8,11,15)   =     59.826195     0.000010    -0.001998    59.824197
	   75 D(13,8,11,16)   =    -60.300310     0.000010    -0.013029   -60.313339
	 ---------------------------------------------------------------------------
	Successfully symmetrized geometry.

  ==> Convergence Check <==

  Measures of convergence in internal coordinates in au.
  Criteria marked as inactive (o), active & met (*), and active & unmet ( ).
  ---------------------------------------------------------------------------------------------
   Step     Total Energy     Delta E     MAX Force     RMS Force      MAX Disp      RMS Disp   
  ---------------------------------------------------------------------------------------------
    Convergence Criteria    1.00e-06 *    3.00e-04 *             o    1.20e-03 *             o
  ---------------------------------------------------------------------------------------------
      2    -212.39588860   -3.08e-04      3.63e-03      6.11e-04 o    1.37e-02      4.84e-03 o  ~
  ---------------------------------------------------------------------------------------------

	Writing optimization data to binary file.
	Structure for next step:
	Cartesian Geometry (in Angstrom)
	    H     3.1441471457   0.0378909508   0.0380486860
	    N     2.3186923009  -0.5193456424   0.0988399143
	    C     1.1377870037   0.3105092821   0.2702560396
	    H     2.4364020855  -1.1369759475   0.8748811272
	    C    -0.1263041755  -0.5397136639   0.2907797088
	    H     1.0927406547   1.0008548715  -0.5660321468
	    H     1.1729288629   0.9182833111   1.1752832776
	    C    -1.4122667321   0.3030711336   0.3501827434
	    H    -0.1199695117  -1.1518535850  -0.6042472279
	    H    -0.0772982649  -1.2177580879   1.1378100979
	    C    -2.0998741816   0.4427120005  -1.0064926860
	    H    -1.1755165622   1.2988010284   0.7144650623
	    H    -2.1110963917  -0.1265468092   1.0587230640
	    H    -1.4300076831   0.8726046561  -1.7440776676
	    H    -2.9723270454   1.0830071725  -0.9402933751
	    H    -2.4233728929  -0.5225184341  -1.3808065727
			--------------------------
			 OPTKING Finished Execution 
			--------------------------

    Structure for next step:
    Molecular point group: c1
    Full point group: C1

    Geometry (in Angstrom), charge = 0, multiplicity = 1:

    H            3.144444353859     0.038020104347     0.038012045800
    N            2.318989509059    -0.519216488831     0.098803274161
    C            1.138084211829     0.310638435689     0.270219399408
    H            2.436699293615    -1.136846793895     0.874844487037
    C           -0.126006967330    -0.539584510338     0.290743068610
    H            1.093037862872     1.000984025098    -0.566068786956
    H            1.173226071029     0.918412464669     1.175246637396
    C           -1.411969523930     0.303200287238     0.350146103184
    H           -0.119672303516    -1.151724431421    -0.604283868116
    H           -0.077001056716    -1.217628934320     1.137773457765
    C           -2.099576973431     0.442841154136    -1.006529326132
    H           -1.175219354067     1.298930181958     0.714428422091
    H           -2.110799183576    -0.126417655564     1.058686423836
    H           -1.429710474979     0.872733809745    -1.744114307821
    H           -2.972029837224     1.083136326073    -0.940330015229
    H           -2.423075684763    -0.522389280504    -1.380843212827

gradient() will perform analytic gradient computation.

*** tstart() called on cx1-28-12-4
*** at Sat Sep 10 15:52:48 2016


         ---------------------------------------------------------
                                   SCF
            by Justin Turney, Rob Parrish, and Andy Simmonett
                              RHF Reference
                        4 Threads,   2000 MiB Core
         ---------------------------------------------------------

  ==> Geometry <==

    Molecular point group: c1
    Full point group: C1

    Geometry (in Angstrom), charge = 0, multiplicity = 1:

       Center              X                  Y                   Z               Mass       
    ------------   -----------------  -----------------  -----------------  -----------------
           H          3.144444353859     0.038020104347     0.038012045800     1.007825032070
           N          2.318989509059    -0.519216488831     0.098803274161    14.003074004780
           C          1.138084211829     0.310638435689     0.270219399408    12.000000000000
           H          2.436699293615    -1.136846793895     0.874844487037     1.007825032070
           C         -0.126006967330    -0.539584510338     0.290743068610    12.000000000000
           H          1.093037862872     1.000984025098    -0.566068786956     1.007825032070
           H          1.173226071029     0.918412464669     1.175246637396     1.007825032070
           C         -1.411969523930     0.303200287238     0.350146103184    12.000000000000
           H         -0.119672303516    -1.151724431421    -0.604283868116     1.007825032070
           H         -0.077001056716    -1.217628934320     1.137773457765     1.007825032070
           C         -2.099576973431     0.442841154136    -1.006529326132    12.000000000000
           H         -1.175219354067     1.298930181958     0.714428422091     1.007825032070
           H         -2.110799183576    -0.126417655564     1.058686423836     1.007825032070
           H         -1.429710474979     0.872733809745    -1.744114307821     1.007825032070
           H         -2.972029837224     1.083136326073    -0.940330015229     1.007825032070
           H         -2.423075684763    -0.522389280504    -1.380843212827     1.007825032070

  Running in c1 symmetry.

  Rotational constants: A =      0.45407  B =      0.07121  C =      0.06943 [cm^-1]
  Rotational constants: A =  13612.73945  B =   2134.74540  C =   2081.31525 [MHz]
  Nuclear repulsion =  187.831886478659698

  Charge       = 0
  Multiplicity = 1
  Electrons    = 42
  Nalpha       = 21
  Nbeta        = 21

  ==> Algorithm <==

  SCF Algorithm Type is DF.
  DIIS enabled.
  MOM disabled.
  Fractional occupation disabled.
  Guess Type is READ.
  Energy threshold   = 1.00e-08
  Density threshold  = 1.00e-08
  Integral threshold = 0.00e+00

  ==> Primary Basis <==

  Basis Set: CC-PVTZ
    Number of shells: 116
    Number of basis function: 304
    Number of Cartesian functions: 340
    Spherical Harmonics?: true
    Max angular momentum: 3

  ==> Pre-Iterations <==

   -------------------------------------------------------
    Irrep   Nso     Nmo     Nalpha   Nbeta   Ndocc  Nsocc
   -------------------------------------------------------
     A        304     304       0       0       0       0
   -------------------------------------------------------
    Total     304     304      21      21      21       0
   -------------------------------------------------------

  ==> Integral Setup <==

  ==> DFJK: Density-Fitted J/K Matrices <==

    J tasked:                  Yes
    K tasked:                  Yes
    wK tasked:                  No
    OpenMP threads:              4
    Integrals threads:           4
    Memory (MB):              1430
    Algorithm:                Core
    Integral Cache:           NONE
    Schwarz Cutoff:          1E-12
    Fitting Condition:       1E-12

   => Auxiliary Basis Set <=

  Basis Set: 
    Number of shells: 235
    Number of basis function: 725
    Number of Cartesian functions: 865
    Spherical Harmonics?: true
    Max angular momentum: 4

  Minimum eigenvalue in the overlap matrix is 4.5614576631E-04.
  Using Symmetric Orthogonalization.
  SCF Guess: Reading in previously saved MOs, projecting if necessary.

  Using orbitals from previous SCF, no projection.
  Recomputing DOCC and SOCC from number of alpha and beta electrons from previous calculation.
              A 
    DOCC [    21 ]

  ==> Iterations <==

                           Total Energy        Delta E     RMS |[F,P]|

   @DF-RHF iter   0:  -212.39668465591851   -2.12397e+02   4.39208e-05 
   @DF-RHF iter   1:  -212.39594754138651    7.37115e-04   6.06950e-06 
   @DF-RHF iter   2:  -212.39595030999723   -2.76861e-06   1.94839e-06 DIIS
   @DF-RHF iter   3:  -212.39595064901019   -3.39013e-07   6.71742e-07 DIIS
   @DF-RHF iter   4:  -212.39595068491408   -3.59039e-08   1.45504e-07 DIIS
   @DF-RHF iter   5:  -212.39595068695641   -2.04233e-09   4.01841e-08 DIIS
   @DF-RHF iter   6:  -212.39595068718168   -2.25270e-10   1.19811e-08 DIIS
   @DF-RHF iter   7:  -212.39595068719919   -1.75078e-11   4.54583e-09 DIIS

  ==> Post-Iterations <==

    Orbital Energies (a.u.)
    -----------------------

    Doubly Occupied:                                                      

       1A    -15.526590     2A    -11.238467     3A    -11.212874  
       4A    -11.207752     5A    -11.205413     6A     -1.178651  
       7A     -1.058496     8A     -0.957571     9A     -0.848954  
      10A     -0.788930    11A     -0.663547    12A     -0.624408  
      13A     -0.622190    14A     -0.587058    15A     -0.550973  
      16A     -0.525315    17A     -0.507794    18A     -0.469795  
      19A     -0.463761    20A     -0.455953    21A     -0.384272  

    Virtual:                                                              

      22A      0.143109    23A      0.151867    24A      0.169122  
      25A      0.177286    26A      0.200365    27A      0.211070  
      28A      0.228570    29A      0.238710    30A      0.241131  
      31A      0.257716    32A      0.274436    33A      0.313355  
      34A      0.339723    35A      0.364283    36A      0.386945  
      37A      0.401665    38A      0.416499    39A      0.438368  
[...]

			-----------------------------------------
			 OPTKING 2.0: for geometry optimizations 
			  - R.A. King,  Bethel University        
			-----------------------------------------

	Previous internal coordinate definitions found.
	---Fragment 1 Geometry and Gradient---
	 H           5.9444613712        0.0716275410        0.0772840312
	 N           4.3837365244       -0.9807636821        0.1880042956
	 C           2.1506882409        0.5864231902        0.5082446876
	 H           4.6026322949       -2.1488928969        1.6542029050
	 C          -0.2388597820       -1.0204155459        0.5484700233
	 H           2.0648716468        1.8873822911       -1.0747995249
	 H           2.2151208633        1.7383650611        2.2162810414
	 C          -2.6680692601        0.5726367001        0.6624677992
	 H          -0.2278318140       -2.1767252379       -1.1426852205
	 H          -0.1456029390       -2.2996081050        2.1504333839
	 C          -3.9683912872        0.8380667786       -1.9010107684
	 H          -2.2201769697        2.4536938509        1.3508502733
	 H          -3.9887605827       -0.2408547109        2.0001530640
	 H          -2.7030640837        1.6537736111       -3.2931692990
	 H          -5.6193794044        2.0451501894       -1.7757806089
	 H          -4.5760562670       -0.9863694801       -2.6099696579
	             0.0000057137       -0.0000024993       -0.0000043201
	             0.0000143396       -0.0000011096       -0.0000098596
	            -0.0000112508       -0.0000061929        0.0000249124
	            -0.0000029807        0.0000072161        0.0000001631
	            -0.0014749298       -0.0023099677        0.0010858084
	             0.0000018590       -0.0000061877        0.0000029251
	             0.0000026164        0.0000059017        0.0000042783
	            -0.0002046094       -0.0005405458        0.0028162568
	             0.0012465186        0.0020177673       -0.0013624296
	            -0.0000024879        0.0000153449        0.0000002597
	            -0.0000039640       -0.0000012874        0.0000109209
	             0.0004295869        0.0008261891       -0.0025598936
	             0.0000060677       -0.0000096945       -0.0000072399
	             0.0000007194       -0.0000035260        0.0000041032
	            -0.0000084162        0.0000053243       -0.0000083660
	             0.0000012176        0.0000032673        0.0000024809

	---Fragment 1 Intrafragment Coordinates---
	 - Coordinate -           - BOHR/RAD -       - ANG/DEG -
	 R(1,2)           =         1.885643	       0.997839
	 R(2,3)           =         2.746841	       1.453565
	 R(2,4)           =         1.887374	       0.998755
	 R(3,5)           =         2.879842	       1.523947
	 R(3,6)           =         2.050826	       1.085250
	 R(3,7)           =         2.061191	       1.090735
	 R(5,8)           =         2.907210	       1.538429
	 R(5,9)           =         2.048702	       1.084126
	 R(5,10)          =         2.052149	       1.085951
	 R(8,11)          =         2.886644	       1.527546
	 R(8,12)          =         2.052524	       1.086149
	 R(8,13)          =         2.048267	       1.083896
	 R(11,14)         =         2.050497	       1.085076
	 R(11,15)         =         2.049023	       1.084296
	 R(11,16)         =         2.049499	       1.084548
	 B(1,2,3)         =         1.940450	     111.179608
	 B(1,2,4)         =         1.870296	     107.160092
	 B(2,3,5)         =         1.936745	     110.967292
	 B(2,3,6)         =         1.881736	     107.815520
	 B(2,3,7)         =         1.971490	     112.958030
	 B(3,2,4)         =         1.935674	     110.905957
	 B(3,5,8)         =         1.969395	     112.838027
	 B(3,5,9)         =         1.874360	     107.392897
	 B(3,5,10)        =         1.897579	     108.723280
	 B(5,3,6)         =         1.907109	     109.269279
	 B(5,3,7)         =         1.903069	     109.037794
	 B(5,8,11)        =         1.973558	     113.076572
	 B(5,8,12)        =         1.910284	     109.451189
	 B(5,8,13)        =         1.924898	     110.288539
	 B(6,3,7)         =         1.861299	     106.644572
	 B(8,5,9)         =         1.924255	     110.251676
	 B(8,5,10)        =         1.927228	     110.422029
	 B(8,11,14)       =         1.940711	     111.194537
	 B(8,11,15)       =         1.942121	     111.275356
	 B(8,11,16)       =         1.937883	     111.032510
	 B(9,5,10)        =         1.867452	     106.997093
	 B(11,8,12)       =         1.887951	     108.171642
	 B(11,8,13)       =         1.902904	     109.028382
	 B(12,8,13)       =         1.860483	     106.597799
	 B(14,11,15)      =         1.880058	     107.719397
	 B(14,11,16)      =         1.877827	     107.591565
	 B(15,11,16)      =         1.882471	     107.857666
	 D(1,2,3,5)       =         3.093744	     177.258500
	 D(1,2,3,6)       =         1.005850	      57.630964
	 D(1,2,3,7)       =        -1.046182	     -59.941828
	 D(2,3,5,8)       =        -3.058472	    -175.237542
	 D(2,3,5,9)       =        -0.934367	     -53.535305
	 D(2,3,5,10)      =         1.080496	      61.907861
	 D(3,5,8,11)      =         1.758160	     100.735139
	 D(3,5,8,12)      =        -0.347791	     -19.926942
	 D(3,5,8,13)      =        -2.389318	    -136.897823
	 D(4,2,3,5)       =        -1.110315	     -63.616354
	 D(4,2,3,6)       =         3.084976	     176.756110
	 D(4,2,3,7)       =         1.032944	      59.183318
	 D(5,8,11,14)     =        -0.996502	     -57.095374
	 D(5,8,11,15)     =        -3.092401	    -177.181546
	 D(5,8,11,16)     =         1.093735	      62.666422
	 D(6,3,5,8)       =        -0.985812	     -56.482843
	 D(6,3,5,9)       =         1.138293	      65.219395
	 D(6,3,5,10)      =        -3.130029	    -179.337439
	 D(7,3,5,8)       =         1.042391	      59.724589
	 D(7,3,5,9)       =        -3.116690	    -178.573173
	 D(7,3,5,10)      =        -1.101826	     -63.130007
	 D(9,5,8,11)      =        -0.337510	     -19.337888
	*D(9,5,8,12)      =        -2.443460	    -139.999969
	 D(9,5,8,13)      =         1.798198	     103.029150
	 D(10,5,8,11)     =        -2.397434	    -137.362836
	 D(10,5,8,12)     =         1.779801	     101.975084
	 D(10,5,8,13)     =        -0.261726	     -14.995798
	 D(12,8,11,14)    =         1.122097	      64.291450
	 D(12,8,11,15)    =        -0.973802	     -55.794723
	 D(12,8,11,16)    =        -3.070850	    -175.946755
	 D(13,8,11,14)    =         3.138745	     179.836824
	 D(13,8,11,15)    =         1.042846	      59.750652
	 D(13,8,11,16)    =        -1.054203	     -60.401380

	Current energy   :      -212.3959519012

	Energy change for the previous step:
		Projected    :        -0.0000004570
		Actual       :        -0.0000001860

	Performing BFGS update.
	Previous computed or guess Hessian on step 1.
	Steps to be used in Hessian update: 4 3
	Taking RFO optimization step.
	Going to follow RFO solution 1.
	Rejecting RFO root 1 because normalization gives large value.
	Using RFO vector 2.
	Norm of target step-size    0.00157
	Projected energy change by RFO approximation:         0.0000000897

	Back-transformation to cartesian coordinates...
	Successfully converged to displaced geometry.

	Back-transformation to cartesian coordinates to adjust frozen coordinates...
	Successfully converged to displaced geometry.

	--- Internal Coordinate Step in ANG or DEG, aJ/ANG or AJ/DEG ---
	 ---------------------------------------------------------------------------
	   Coordinate                Previous        Force       Change         New 
	   ----------                --------       ------       ------       ------
	    1 R(1,2)          =      0.997839    -0.000030    -0.000005     0.997834
	    2 R(2,3)          =      1.453565    -0.000111    -0.000024     1.453541
	    3 R(2,4)          =      0.998755     0.000039     0.000005     0.998760
	    4 R(3,5)          =      1.523947    -0.000055    -0.000019     1.523928
	    5 R(3,6)          =      1.085250     0.000052     0.000010     1.085261
	    6 R(3,7)          =      1.090735    -0.000057    -0.000011     1.090725
	    7 R(5,8)          =      1.538429     0.000172     0.000039     1.538468
	    8 R(5,9)          =      1.084126     0.000062     0.000013     1.084140
	    9 R(5,10)         =      1.085951     0.000078     0.000016     1.085967
	   10 R(8,11)         =      1.527546     0.000025     0.000004     1.527550
	   11 R(8,12)         =      1.086149     0.000063     0.000013     1.086162
	   12 R(8,13)         =      1.083896     0.000039     0.000008     1.083904
	   13 R(11,14)        =      1.085076     0.000031     0.000006     1.085082
	   14 R(11,15)        =      1.084296    -0.000077    -0.000014     1.084282
	   15 R(11,16)        =      1.084548     0.000034     0.000006     1.084555
	   16 B(1,2,3)        =    111.179608    -0.000001    -0.005097   111.174512
	   17 B(1,2,4)        =    107.160092     0.000000     0.000426   107.160517
	   18 B(2,3,5)        =    110.967292    -0.000001    -0.005218   110.962074
	   19 B(2,3,6)        =    107.815520     0.000001     0.005357   107.820877
	   20 B(2,3,7)        =    112.958030     0.000000    -0.002494   112.955536
	   21 B(3,2,4)        =    110.905957     0.000001     0.003320   110.909276
	   22 B(3,5,8)        =    112.838027    -0.000001    -0.001656   112.836370
	   23 B(3,5,9)        =    107.392897    -0.000000    -0.000032   107.392865
	   24 B(3,5,10)       =    108.723280     0.000000     0.000810   108.724090
	   25 B(5,3,6)        =    109.269279     0.000000     0.005463   109.274742
	   26 B(5,3,7)        =    109.037794    -0.000000    -0.003437   109.034356
	   27 B(5,8,11)       =    113.076572    -0.000001    -0.002291   113.074280
	   28 B(5,8,12)       =    109.451189     0.000000     0.001729   109.452918
	   29 B(5,8,13)       =    110.288539     0.000001     0.002733   110.291272
	   30 B(6,3,7)        =    106.644572    -0.000000     0.001039   106.645611
	   31 B(8,5,9)        =    110.251676     0.000001     0.001970   110.253645
	   32 B(8,5,10)       =    110.422029     0.000000     0.003382   110.425411
	   33 B(8,11,14)      =    111.194537     0.000001     0.003489   111.198025
	   34 B(8,11,15)      =    111.275356    -0.000001    -0.006301   111.269054
	   35 B(8,11,16)      =    111.032510     0.000000     0.001776   111.034286
	   36 B(9,5,10)       =    106.997093    -0.000000    -0.004770   106.992323
	   37 B(11,8,12)      =    108.171642     0.000000     0.003455   108.175096
	   38 B(11,8,13)      =    109.028382     0.000000    -0.000316   109.028066
	   39 B(12,8,13)      =    106.597799    -0.000001    -0.005518   106.592281
	   40 B(14,11,15)     =    107.719397     0.000000     0.000013   107.719410
	   41 B(14,11,16)     =    107.591565    -0.000000     0.000986   107.592551
	   42 B(15,11,16)     =    107.857666     0.000000     0.000125   107.857791
	   43 D(1,2,3,5)      =    177.258500     0.000000     0.025080   177.283580
	   44 D(1,2,3,6)      =     57.630964     0.000000     0.018133    57.649097
	   45 D(1,2,3,7)      =    -59.941828    -0.000000     0.014849   -59.926979
	   46 D(2,3,5,8)      =   -175.237542    -0.000000    -0.023416  -175.260958
	   47 D(2,3,5,9)      =    -53.535305    -0.000000    -0.022009   -53.557314
	   48 D(2,3,5,10)     =     61.907861    -0.000000    -0.027204    61.880658
	   49 D(3,5,8,11)     =    100.735139    -0.000000     0.004325   100.739464
	   50 D(3,5,8,12)     =    -19.926942    -0.000000     0.000228   -19.926714
	   51 D(3,5,8,13)     =   -136.897823    -0.000000     0.004312  -136.893512
	   52 D(4,2,3,5)      =    -63.616354     0.000000     0.024465   -63.591890
	   53 D(4,2,3,6)      =    176.756110     0.000000     0.017518   176.773627
	   54 D(4,2,3,7)      =     59.183318    -0.000000     0.014234    59.197552
	   55 D(5,8,11,14)    =    -57.095374    -0.000000    -0.017065   -57.112439
	   56 D(5,8,11,15)    =   -177.181546     0.000000    -0.015189  -177.196735
	   57 D(5,8,11,16)    =     62.666422     0.000000    -0.012317    62.654105
	   58 D(6,3,5,8)      =    -56.482843     0.000000    -0.016559   -56.499401
	   59 D(6,3,5,9)      =     65.219395     0.000000    -0.015152    65.204243
	   60 D(6,3,5,10)     =   -179.337439    -0.000000    -0.020347  -179.357786
	   61 D(7,3,5,8)      =     59.724589     0.000000    -0.014198    59.710392
	   62 D(7,3,5,9)      =   -178.573173     0.000000    -0.012791  -178.585964
	   63 D(7,3,5,10)     =    -63.130007    -0.000000    -0.017985   -63.147993
	   64 D(9,5,8,11)     =    -19.337888    -0.000000     0.004097   -19.333791
	   65 *D(9,5,8,12)    =   -139.999969    -0.000000     0.000000  -139.999969
	   66 D(9,5,8,13)     =    103.029150     0.000000     0.004084   103.033233
	   67 D(10,5,8,11)    =   -137.362836    -0.000000     0.006673  -137.356162
	   68 D(10,5,8,12)    =    101.975084    -0.000000     0.002576   101.977660
	   69 D(10,5,8,13)    =    -14.995798     0.000000     0.006660   -14.989138
	   70 D(12,8,11,14)   =     64.291450    -0.000000    -0.013941    64.277508
	   71 D(12,8,11,15)   =    -55.794723     0.000000    -0.012066   -55.806788
	   72 D(12,8,11,16)   =   -175.946755     0.000000    -0.009194  -175.955948
	   73 D(13,8,11,14)   =    179.836824    -0.000000    -0.018771   179.818053
	   74 D(13,8,11,15)   =     59.750652    -0.000000    -0.016895    59.733757
	   75 D(13,8,11,16)   =    -60.401380    -0.000000    -0.014023   -60.415403
	 ---------------------------------------------------------------------------
	Successfully symmetrized geometry.

  ==> Convergence Check <==

  Measures of convergence in internal coordinates in au.
  Criteria marked as inactive (o), active & met (*), and active & unmet ( ).
  ---------------------------------------------------------------------------------------------
   Step     Total Energy     Delta E     MAX Force     RMS Force      MAX Disp      RMS Disp   
  ---------------------------------------------------------------------------------------------
    Convergence Criteria    1.00e-06 *    3.00e-04 *             o    1.20e-03 *             o
  ---------------------------------------------------------------------------------------------
      5    -212.39595190   -1.86e-07 *    2.09e-05 *    6.31e-06 o    4.75e-04 *    1.81e-04 o  ~
  ---------------------------------------------------------------------------------------------


  **** Optimization is complete! (in 5 steps) ****

  ==> Optimization Summary <==

  Measures of convergence in internal coordinates in au.
  --------------------------------------------------------------------------------------------------------------- ~
   Step         Total Energy             Delta E       MAX Force       RMS Force        MAX Disp        RMS Disp  ~
  --------------------------------------------------------------------------------------------------------------- ~
      1    -212.395580952551   -212.395580952551      0.00978738      0.00131668      0.07607494      0.03018623  ~
      2    -212.395888602319     -0.000307649768      0.00362507      0.00061121      0.01373275      0.00484360  ~
      3    -212.395950687199     -0.000062084880      0.00024408      0.00006694      0.00510404      0.00218423  ~
      4    -212.395951715233     -0.000001028034      0.00011406      0.00002653      0.00258030      0.00103101  ~
      5    -212.395951901220     -0.000000185987      0.00002092      0.00000631      0.00047479      0.00018145  ~
  --------------------------------------------------------------------------------------------------------------- ~

	Writing optimization data to binary file.
	Final energy is   -212.3959519012199
	Final (previous) structure:
	Cartesian Geometry (in Angstrom)
	    H     3.1456734750   0.0379036622   0.0408969479
	    N     2.3197734572  -0.5189977876   0.0994875883
	    C     1.1380951999   0.3103217868   0.2689515051
	    H     2.4356081100  -1.1371451448   0.8753664757
	    C    -0.1263991527  -0.5399806502   0.2902378359
	    H     1.0926830141   0.9987596923  -0.5687594124
	    H     1.1721914752   0.9199031705   1.1728054149
	    C    -1.4118814434   0.3030262905   0.3505628608
	    H    -0.1205634034  -1.1518733852  -0.6046829753
	    H    -0.0770497568  -1.2169001979   1.1379603354
	    C    -2.0999822239   0.4434858385  -1.0059715719
	    H    -1.1748670514   1.2984388628   0.7148391768
	    H    -2.1107611909  -0.1274548236   1.0584354151
	    H    -1.4303999064   0.8751393031  -1.7426701370
	    H    -2.9736475072   1.0822468684  -0.9397026257
	    H    -2.4215446817  -0.5219642481  -1.3811364581
	Saving final (previous) structure.
			--------------------------
			 OPTKING Finished Execution 
			--------------------------

    Final optimized geometry and variables:
    Molecular point group: c1
    Full point group: C1

    Geometry (in Angstrom), charge = 0, multiplicity = 1:

    H            3.145673474960     0.037903662224     0.040896947914
    N            2.319773457180    -0.518997787556     0.099487588331
    C            1.138095199878     0.310321786845     0.268951505055
    H            2.435608110006    -1.137145144761     0.875366475721
    C           -0.126399152691    -0.539980650176     0.290237835903
    H            1.092683014135     0.998759692323    -0.568759412383
    H            1.172191475151     0.919903170537     1.172805414913
    C           -1.411881443402     0.303026290506     0.350562860767
    H           -0.120563403386    -1.151873385239    -0.604682975289
    H           -0.077049756820    -1.216900197855     1.137960335358
    C           -2.099982223930     0.443485838498    -1.005971571926
    H           -1.174867051404     1.298438862759     0.714839176848
    H           -2.110761190881    -0.127454823574     1.058435415145
    H           -1.430399906431     0.875139303143    -1.742670137047
    H           -2.973647507249     1.082246868399    -0.939702625689
    H           -2.421544681746    -0.521964248133    -1.381136458084

	Cleaning optimization helper files.


Properties will be evaluated at   0.000000,   0.000000,   0.000000 Bohr

Properties computed using the  density matrix

  Nuclear Dipole Moment: (a.u.)
     X:    -2.3154      Y:     0.9925      Z:    -0.2221

  Electronic Dipole Moment: (a.u.)
     X:     2.3960      Y:    -0.7445      Z:     0.6542

  Dipole Moment: (a.u.)
     X:     0.0806      Y:     0.2479      Z:     0.4321     Total:     0.5046

  Dipole Moment: (Debye)
     X:     0.2049      Y:     0.6302      Z:     1.0982     Total:     1.2827

  Quadrupole Moment: (Debye Ang)
    XX:   -32.3932     YY:   -34.5524     ZZ:   -34.3448
    XY:     1.8159     XZ:     2.4117     YZ:    -1.8117

  Traceless Quadrupole Moment: (Debye Ang)
    XX:     1.3703     YY:    -0.7889     ZZ:    -0.5814
    XY:     1.8159     XZ:     2.4117     YZ:    -1.8117

  Mulliken Charges: (a.u.)
   Center  Symbol    Alpha    Beta     Spin     Total
       1     H     0.43019  0.43019  0.00000  0.13961
       2     N     3.68979  3.68979  0.00000 -0.37959
       3     C     3.02430  3.02430  0.00000 -0.04860
       4     H     0.43087  0.43087  0.00000  0.13826
       5     C     3.08880  3.08880  0.00000 -0.17760
       6     H     0.45698  0.45698  0.00000  0.08604
       7     H     0.46841  0.46841  0.00000  0.06318
       8     C     3.09503  3.09503  0.00000 -0.19005
       9     H     0.45034  0.45034  0.00000  0.09933
      10     H     0.45398  0.45398  0.00000  0.09203
      11     C     3.14661  3.14661  0.00000 -0.29323
      12     H     0.45692  0.45692  0.00000  0.08616
      13     H     0.44854  0.44854  0.00000  0.10292
      14     H     0.45481  0.45481  0.00000  0.09037
      15     H     0.45017  0.45017  0.00000  0.09966
      16     H     0.45426  0.45426  0.00000  0.09149

   Total alpha = 21.00000, Total beta = 21.00000, Total charge = -0.00000


*** Psi4 exiting successfully. Buy a developer a beer!
