    -----------------------------------------------------------------------
          Psi4: An Open-Source Ab Initio Electronic Structure Package
                              Psi4 (no tag) Driver

                          Git: Rev {detached?}  

    J. M. Turney, A. C. Simmonett, R. M. Parrish, E. G. Hohenstein,
    F. A. Evangelista, J. T. Fermann, B. J. Mintz, L. A. Burns, J. J. Wilke,
    M. L. Abrams, N. J. Russ, M. L. Leininger, C. L. Janssen, E. T. Seidl,
    W. D. Allen, H. F. Schaefer, R. A. King, E. F. Valeev, C. D. Sherrill,
    and T. D. Crawford, WIREs Comput. Mol. Sci. 2, 556-565 (2012)
    (doi: 10.1002/wcms.93)

                         Additional Contributions by
    A. E. DePrince, M. Saitow, U. Bozkaya, A. Yu. Sokolov
    -----------------------------------------------------------------------


    Psi4 started on: Thu Sep  1 22:10:31 2016

    Process ID:  21949
    PSI4DATADIR: /export131/home/mjharvey/miniconda3/share
    Memory level set to 256.000 MB

  ==> Input File <==

--------------------------------------------------------------------------
set {
	reference rhf
	basis 6-31G*
}


set_num_threads( 1 )
memory 2 gb

molecule MOL {
0 1

O	 -0.682937	 1.318834	 -0.186099
C	 -0.860635	 0.152188	 -0.042321
C	 -2.173363	 -0.477127	 0.338347
O	 0.083258	 -0.765189	 -0.202595
H	 -2.477673	 -1.180929	 -0.427595
H	 -2.923125	 0.290956	 0.455536
H	 -2.058825	 -1.029004	 1.264191
C	 1.128560	 -0.506622	 -1.137092
C	 2.231918	 0.332472	 -0.519705
H	 0.713179	 -0.027323	 -2.010518
H	 1.494272	 -1.485418	 -1.412253
H	 3.045790	 0.448109	 -1.228909
H	 1.866808	 1.317558	 -0.257655
H	 2.622202	 -0.146729	 0.371620

	symmetry c1
}
set optking {
	frozen_dihedral = ("
		10 8 4 2
	")
}

ee = energy('scf')
oeprop('DIPOLE', 'QUADRUPOLE', 'MULLIKEN_CHARGES')
f=open( 'psi4out.xyz', 'w' )
f.write( "14  " )
f.write( str(ee) + "\n" )
f.write( MOL.save_string_xyz() )
f.close()
--------------------------------------------------------------------------

  Memory set to   2.000 GiB by Python script.

*** tstart() called on cx1-3-1-3.cx1.hpc.ic.ac.uk
*** at Thu Sep  1 22:10:31 2016


         ---------------------------------------------------------
                                   SCF
            by Justin Turney, Rob Parrish, and Andy Simmonett
                              RHF Reference
                        1 Threads,   2000 MiB Core
         ---------------------------------------------------------

  ==> Geometry <==

    Molecular point group: c1
    Full point group: C1

    Geometry (in Angstrom), charge = 0, multiplicity = 1:

       Center              X                  Y                   Z               Mass       
    ------------   -----------------  -----------------  -----------------  -----------------
           O         -0.644623863314     1.307028857895     0.107105392906    15.994914619560
           C         -0.822321863314     0.140382857895     0.250883392906    12.000000000000
           C         -2.135049863314    -0.488932142105     0.631551392906    12.000000000000
           O          0.121571136686    -0.776994142105     0.090609392906    15.994914619560
           H         -2.439359863314    -1.192734142105    -0.134390607094     1.007825032070
           H         -2.884811863314     0.279150857895     0.748740392906     1.007825032070
           H         -2.020511863314    -1.040809142105     1.557395392906     1.007825032070
           C          1.166873136686    -0.518427142105    -0.843887607094    12.000000000000
           C          2.270231136686     0.320666857895    -0.226500607094    12.000000000000
           H          0.751492136686    -0.039128142105    -1.717313607094     1.007825032070
           H          1.532585136686    -1.497223142105    -1.119048607094     1.007825032070
           H          3.084103136686     0.436303857895    -0.935704607094     1.007825032070
           H          1.905121136686     1.305752857895     0.035549392906     1.007825032070
           H          2.660515136686    -0.158534142105     0.664824392906     1.007825032070

  Running in c1 symmetry.

  Rotational constants: A =      0.26886  B =      0.07910  C =      0.06651 [cm^-1]
  Rotational constants: A =   8060.18925  B =   2371.21217  C =   1993.81614 [MHz]
  Nuclear repulsion =  248.946328154657550

  Charge       = 0
  Multiplicity = 1
  Electrons    = 48
  Nalpha       = 24
  Nbeta        = 24

  ==> Algorithm <==

  SCF Algorithm Type is DF.
  DIIS enabled.
  MOM disabled.
  Fractional occupation disabled.
  Guess Type is CORE.
  Energy threshold   = 1.00e-06
  Density threshold  = 1.00e-06
  Integral threshold = 0.00e+00

  ==> Primary Basis <==

  Basis Set: 6-31G*
    Number of shells: 52
    Number of basis function: 106
    Number of Cartesian functions: 106
    Spherical Harmonics?: false
    Max angular momentum: 2

  ==> Pre-Iterations <==

   -------------------------------------------------------
    Irrep   Nso     Nmo     Nalpha   Nbeta   Ndocc  Nsocc
   -------------------------------------------------------
     A        106     106       0       0       0       0
   -------------------------------------------------------
    Total     106     106      24      24      24       0
   -------------------------------------------------------

 OEINTS: Overlap, kinetic, potential, dipole, and quadrupole integrals
         stored in file 35.

  ==> Integral Setup <==

  ==> DFJK: Density-Fitted J/K Matrices <==

    J tasked:                  Yes
    K tasked:                  Yes
    wK tasked:                  No
    OpenMP threads:              1
    Integrals threads:           1
    Memory (MB):              1430
    Algorithm:                Core
    Integral Cache:           NONE
    Schwarz Cutoff:          1E-12
    Fitting Condition:       1E-12

   => Auxiliary Basis Set <=

  Basis Set: 
    Number of shells: 216
    Number of basis function: 686
    Number of Cartesian functions: 686
    Spherical Harmonics?: false
    Max angular momentum: 3

  Minimum eigenvalue in the overlap matrix is 3.9243608682E-03.
  Using Symmetric Orthogonalization.
  SCF Guess: Core (One-Electron) Hamiltonian.

  ==> Iterations <==

                           Total Energy        Delta E     RMS |[F,P]|

   @DF-RHF iter   1:  -235.04517433892690   -2.35045e+02   8.43407e-02 
   @DF-RHF iter   2:  -216.82854245066139    1.82166e+01   6.53603e-02 DIIS
   @DF-RHF iter   3:  -280.03356055310246   -6.32050e+01   5.26644e-02 DIIS
   @DF-RHF iter   4:  -303.03642664416793   -2.30029e+01   1.93964e-02 DIIS
   @DF-RHF iter   5:  -305.54827614855935   -2.51185e+00   7.05852e-03 DIIS
   @DF-RHF iter   6:  -305.83740361139201   -2.89127e-01   2.16554e-03 DIIS
   @DF-RHF iter   7:  -305.86785526063773   -3.04516e-02   4.80404e-04 DIIS
   @DF-RHF iter   8:  -305.86958685303807   -1.73159e-03   1.94155e-04 DIIS
   @DF-RHF iter   9:  -305.86994239699936   -3.55544e-04   8.29048e-05 DIIS
   @DF-RHF iter  10:  -305.87001244172336   -7.00447e-05   2.82898e-05 DIIS
   @DF-RHF iter  11:  -305.87002501651341   -1.25748e-05   1.49713e-05 DIIS
   @DF-RHF iter  12:  -305.87002734150838   -2.32499e-06   4.13875e-06 DIIS
   @DF-RHF iter  13:  -305.87002764738384   -3.05875e-07   1.22992e-06 DIIS
   @DF-RHF iter  14:  -305.87002767357990   -2.61961e-08   4.22351e-07 DIIS

  ==> Post-Iterations <==

    Orbital Energies (a.u.)
    -----------------------

    Doubly Occupied:                                                      

       1A    -20.597414     2A    -20.547281     3A    -11.376555  
       4A    -11.289189     5A    -11.233458     6A    -11.213050  
       7A     -1.466705     8A     -1.363840     9A     -1.053839  
      10A     -0.997621    11A     -0.882078    12A     -0.767850  
      13A     -0.698482    14A     -0.681740    15A     -0.656054  
      16A     -0.608796    17A     -0.585806    18A     -0.571123  
      19A     -0.560539    20A     -0.531673    21A     -0.506184  
      22A     -0.498776    23A     -0.449350    24A     -0.436738  

    Virtual:                                                              

      25A      0.190683    26A      0.247752    27A      0.262161  
      28A      0.294265    29A      0.299991    30A      0.304986  
      31A      0.320836    32A      0.334993    33A      0.343902  
      34A      0.363439    35A      0.406332    36A      0.417826  
      37A      0.509106    38A      0.555870    39A      0.705692  
      40A      0.727458    41A      0.743295    42A      0.758906  
      43A      0.778183    44A      0.801872    45A      0.825730  
      46A      0.860055    47A      0.891372    48A      0.918704  
      49A      0.975527    50A      1.007181    51A      1.068065  
      52A      1.097209    53A      1.126795    54A      1.132403  
      55A      1.168407    56A      1.176544    57A      1.191257  
      58A      1.203598    59A      1.215107    60A      1.244376  
      61A      1.262576    62A      1.308478    63A      1.341019  
      64A      1.384073    65A      1.421565    66A      1.461603  
      67A      1.591666    68A      1.641736    69A      1.725000  
      70A      1.752193    71A      1.794628    72A      1.860738  
      73A      1.915469    74A      2.000117    75A      2.039445  
      76A      2.091699    77A      2.100593    78A      2.141810  
      79A      2.191508    80A      2.236357    81A      2.288893  
      82A      2.293508    83A      2.370071    84A      2.419177  
      85A      2.435933    86A      2.545898    87A      2.565502  
      88A      2.575831    89A      2.664800    90A      2.688756  
      91A      2.725820    92A      2.789807    93A      2.843233  
      94A      2.883636    95A      3.000188    96A      3.122668  
      97A      3.158459    98A      3.349711    99A      3.394138  
     100A      3.534554   101A      4.395934   102A      4.522576  
     103A      4.619004   104A      4.647805   105A      4.834911  
     106A      4.894297  

    Final Occupation by Irrep:
              A 
    DOCC [    24 ]

  Energy converged.

  @DF-RHF Final Energy:  -305.87002767357990

   => Energetics <=

    Nuclear Repulsion Energy =            248.9463281546575502
    One-Electron Energy =                -910.4844153157863502
    Two-Electron Energy =                 355.6680594875490442
    DFT Exchange-Correlation Energy =       0.0000000000000000
    Empirical Dispersion Energy =           0.0000000000000000
    PCM Polarization Energy =               0.0000000000000000
    EFP Energy =                            0.0000000000000000
    Total Energy =                       -305.8700276735797843

    Alert: EFP and PCM quantities not currently incorporated into SCF psivars.

Properties will be evaluated at   0.000000,   0.000000,   0.000000 Bohr
  ==> Properties <==


Properties computed using the SCF density matrix

  Nuclear Dipole Moment: (a.u.)
     X:     2.4247      Y:    -1.7854      Z:    -0.8427

  Electronic Dipole Moment: (a.u.)
     X:    -2.4048      Y:     0.9763      Z:     0.5950

  Dipole Moment: (a.u.)
     X:     0.0199      Y:    -0.8091      Z:    -0.2477     Total:     0.8464

  Dipole Moment: (Debye)
     X:     0.0506      Y:    -2.0566      Z:    -0.6296     Total:     2.1514


  Saving occupied orbitals to File 180.

*** tstop() called on cx1-3-1-3.cx1.hpc.ic.ac.uk at Thu Sep  1 22:10:39 2016
Module time:
	user time   =       7.08 seconds =       0.12 minutes
	system time =       0.05 seconds =       0.00 minutes
	total time  =          8 seconds =       0.13 minutes
Total time:
	user time   =       7.08 seconds =       0.12 minutes
	system time =       0.05 seconds =       0.00 minutes
	total time  =          8 seconds =       0.13 minutes


Properties will be evaluated at   0.000000,   0.000000,   0.000000 Bohr

Properties computed using the  density matrix

  Nuclear Dipole Moment: (a.u.)
     X:     2.4247      Y:    -1.7854      Z:    -0.8427

  Electronic Dipole Moment: (a.u.)
     X:    -2.4048      Y:     0.9763      Z:     0.5950

  Dipole Moment: (a.u.)
     X:     0.0199      Y:    -0.8091      Z:    -0.2477     Total:     0.8464

  Dipole Moment: (Debye)
     X:     0.0506      Y:    -2.0566      Z:    -0.6296     Total:     2.1514

  Quadrupole Moment: (Debye Ang)
    XX:   -32.0620     YY:   -41.3676     ZZ:   -34.5210
    XY:     1.7512     XZ:    -2.0052     YZ:     0.4302

  Traceless Quadrupole Moment: (Debye Ang)
    XX:     3.9215     YY:    -5.3840     ZZ:     1.4625
    XY:     1.7512     XZ:    -2.0052     YZ:     0.4302

  Mulliken Charges: (a.u.)
   Center  Symbol    Alpha    Beta     Spin     Total
       1     O     4.27868  4.27868  0.00000 -0.55736
       2     C     2.62176  2.62176  0.00000  0.75648
       3     C     3.28160  3.28160  0.00000 -0.56321
       4     O     4.30779  4.30779  0.00000 -0.61558
       5     H     0.40219  0.40219  0.00000  0.19562
       6     H     0.39784  0.39784  0.00000  0.20432
       7     H     0.39942  0.39942  0.00000  0.20117
       8     C     3.00567  3.00567  0.00000 -0.01134
       9     C     3.25372  3.25372  0.00000 -0.50745
      10     H     0.41170  0.41170  0.00000  0.17660
      11     H     0.40890  0.40890  0.00000  0.18220
      12     H     0.42145  0.42145  0.00000  0.15709
      13     H     0.39455  0.39455  0.00000  0.21089
      14     H     0.41472  0.41472  0.00000  0.17056

   Total alpha = 24.00000, Total beta = 24.00000, Total charge = -0.00000


*** PSI4 exiting successfully. Buy a developer a beer!
