    -----------------------------------------------------------------------
          Psi4: An Open-Source Ab Initio Electronic Structure Package
                              Psi4 1.0.54 Driver

                          Git: Rev {master} 8d4cec3 dirty

    J. M. Turney, A. C. Simmonett, R. M. Parrish, E. G. Hohenstein,
    F. A. Evangelista, J. T. Fermann, B. J. Mintz, L. A. Burns, J. J. Wilke,
    M. L. Abrams, N. J. Russ, M. L. Leininger, C. L. Janssen, E. T. Seidl,
    W. D. Allen, H. F. Schaefer, R. A. King, E. F. Valeev, C. D. Sherrill,
    and T. D. Crawford, WIREs Comput. Mol. Sci. 2, 556-565 (2012)
    (doi: 10.1002/wcms.93)

                         Additional Contributions by
    A. E. DePrince, U. Bozkaya, A. Yu. Sokolov, D. G. A. Smith, R. Di Remigio,
    R. M. Richard, J. F. Gonthier, H. R. McAlexander, M. Saitow, and
    B. P. Pritchard
    -----------------------------------------------------------------------


    Psi4 started on: Sat Sep 10 18:09:07 2016

    Process ID:  35832
    PSI4DATADIR: /export131/home/mjharvey/miniconda3/share/psi4
    Memory level set to 256.000 MB

  ==> Input File <==

--------------------------------------------------------------------------
set {
	reference rhf
	basis cc-pvtz
}


set_num_threads( 4 )
memory 2 gb

molecule MOL {
0 1

H	 -3.941973	 0.934228	 -0.390224
C	 -3.240162	 0.342701	 0.161016
C	 -2.105997	 -0.000418	 -0.398703
H	 -3.485368	 0.047206	 1.162193
O	 -0.915392	 0.169341	 0.220544
H	 -2.060232	 -0.446581	 -1.375417
C	 0.242963	 -0.118630	 -0.478317
C	 0.775087	 1.093003	 -1.215761
H	 0.102645	 -0.913290	 -1.201227
H	 0.996482	 -0.423184	 0.232243
F	 1.893911	 0.773551	 -1.834845
F	 -0.073328	 1.527426	 -2.122942
F	 1.034525	 2.089267	 -0.404216

	symmetry c1
}
set optking {
	frozen_dihedral = ("
		6 3 2 1
	")
}

ee,wfn = optimize('scf', return_wfn=True)
oeprop( wfn, 'DIPOLE', 'QUADRUPOLE', 'MULLIKEN_CHARGES')
f=open( 'psi4out.xyz', 'w' )
f.write( "13  " )
f.write( str(ee) + "\n" )
f.write( MOL.save_string_xyz() )
f.close()
--------------------------------------------------------------------------

  Memory set to   2.000 GiB by Python script.
gradient() will perform analytic gradient computation.

*** tstart() called on cx1-27-4-2
*** at Sat Sep 10 18:09:07 2016


         ---------------------------------------------------------
                                   SCF
            by Justin Turney, Rob Parrish, and Andy Simmonett
                              RHF Reference
                        4 Threads,   2000 MiB Core
         ---------------------------------------------------------

  ==> Geometry <==

    Molecular point group: c1
    Full point group: C1

    Geometry (in Angstrom), charge = 0, multiplicity = 1:

       Center              X                  Y                   Z               Mass       
    ------------   -----------------  -----------------  -----------------  -----------------
           H         -3.777007186106     0.131968212451     0.435849520171     1.007825032070
           C         -3.075196186106    -0.459558787549     0.987089520171    12.000000000000
           C         -1.941031186106    -0.802677787549     0.427370520171    12.000000000000
           H         -3.320402186106    -0.755053787549     1.988266520171     1.007825032070
           O         -0.750426186106    -0.632918787549     1.046617520171    15.994914619560
           H         -1.895266186106    -1.248840787549    -0.549343479829     1.007825032070
           C          0.407928813894    -0.920889787549     0.347756520171    12.000000000000
           C          0.940052813894     0.290743212451    -0.389687479829    12.000000000000
           H          0.267610813894    -1.715549787549    -0.375153479829     1.007825032070
           H          1.161447813894    -1.225443787549     1.058316520171     1.007825032070
           F          2.058876813894    -0.028708787549    -1.008771479829    18.998403224000
           F          0.091637813894     0.725166212451    -1.296868479829    18.998403224000
           F          1.199490813894     1.287007212451     0.421857520171    18.998403224000

  Running in c1 symmetry.

  Rotational constants: A =      0.15157  B =      0.03928  C =      0.03835 [cm^-1]
  Rotational constants: A =   4544.10225  B =   1177.67488  C =   1149.77111 [MHz]
  Nuclear repulsion =  413.487292814866407

  Charge       = 0
  Multiplicity = 1
  Electrons    = 64
  Nalpha       = 32
  Nbeta        = 32

  ==> Algorithm <==

  SCF Algorithm Type is DF.
  DIIS enabled.
  MOM disabled.
  Fractional occupation disabled.
  Guess Type is SAD.
  Energy threshold   = 1.00e-08
  Density threshold  = 1.00e-08
  Integral threshold = 0.00e+00

  ==> Primary Basis <==

  Basis Set: CC-PVTZ
    Number of shells: 110
    Number of basis function: 310
    Number of Cartesian functions: 355
    Spherical Harmonics?: true
    Max angular momentum: 3

  ==> Pre-Iterations <==

   -------------------------------------------------------
    Irrep   Nso     Nmo     Nalpha   Nbeta   Ndocc  Nsocc
   -------------------------------------------------------
     A        310     310       0       0       0       0
   -------------------------------------------------------
    Total     310     310      32      32      32       0
   -------------------------------------------------------

  ==> Integral Setup <==

  ==> DFJK: Density-Fitted J/K Matrices <==

    J tasked:                  Yes
    K tasked:                  Yes
    wK tasked:                  No
    OpenMP threads:              4
    Integrals threads:           4
    Memory (MB):              1430
    Algorithm:                Core
    Integral Cache:           NONE
    Schwarz Cutoff:          1E-12
    Fitting Condition:       1E-12

   => Auxiliary Basis Set <=

  Basis Set: 
    Number of shells: 250
    Number of basis function: 782
    Number of Cartesian functions: 943
    Spherical Harmonics?: true
    Max angular momentum: 4

  Minimum eigenvalue in the overlap matrix is 4.0259495779E-04.
  Using Symmetric Orthogonalization.
  SCF Guess: Superposition of Atomic Densities via on-the-fly atomic UHF.

  ==> Iterations <==

                           Total Energy        Delta E     RMS |[F,P]|

   @DF-RHF iter   0:  -530.69542790427681   -5.30695e+02   1.66008e-02 
   @DF-RHF iter   1:  -527.42125789284023    3.27417e+00   2.30903e-03 
   @DF-RHF iter   2:  -527.62589248799941   -2.04635e-01   1.25511e-03 DIIS
   @DF-RHF iter   3:  -527.68040732573604   -5.45148e-02   2.79451e-04 DIIS
   @DF-RHF iter   4:  -527.68693181103163   -6.52449e-03   8.89533e-05 DIIS
   @DF-RHF iter   5:  -527.68762489715687   -6.93086e-04   3.01244e-05 DIIS
   @DF-RHF iter   6:  -527.68776524912687   -1.40352e-04   1.43437e-05 DIIS
   @DF-RHF iter   7:  -527.68779286711424   -2.76180e-05   6.20504e-06 DIIS
   @DF-RHF iter   8:  -527.68780156559524   -8.69848e-06   2.40804e-06 DIIS
   @DF-RHF iter   9:  -527.68780291329449   -1.34770e-06   6.30223e-07 DIIS
   @DF-RHF iter  10:  -527.68780300167214   -8.83776e-08   3.18992e-07 DIIS
   @DF-RHF iter  11:  -527.68780301370566   -1.20335e-08   7.77804e-08 DIIS
   @DF-RHF iter  12:  -527.68780301457468   -8.69022e-10   2.37824e-08 DIIS
   @DF-RHF iter  13:  -527.68780301465313   -7.84439e-11   6.73092e-09 DIIS

  ==> Post-Iterations <==

    Orbital Energies (a.u.)
    -----------------------

    Doubly Occupied:                                                      

       1A    -26.343851     2A    -26.341595     3A    -26.339454  
       4A    -20.610623     5A    -11.500363     6A    -11.322691  
       7A    -11.311278     8A    -11.204317     9A     -1.752010  
      10A     -1.648574    11A     -1.646713    12A     -1.450198  
      13A     -1.090769    14A     -1.021901    15A     -0.934040  
      16A     -0.845735    17A     -0.841127    18A     -0.829528  
      19A     -0.800138    20A     -0.730104    21A     -0.720435  
      22A     -0.704468    23A     -0.682678    24A     -0.669036  
      25A     -0.662877    26A     -0.652316    27A     -0.644053  
      28A     -0.591701    29A     -0.578971    30A     -0.531518  
      31A     -0.515783    32A     -0.321357  

    Virtual:                                                              

      33A      0.113329    34A      0.151484    35A      0.170346  
      36A      0.179191    37A      0.207321    38A      0.227927  
      39A      0.256201    40A      0.298560    41A      0.334709  
      42A      0.339676    43A      0.350753    44A      0.386055  
      45A      0.403507    46A      0.431673    47A      0.464275  
      48A      0.501031    49A      0.501386    50A      0.509359  
      51A      0.514064    52A      0.530024    53A      0.541798  
      54A      0.554504    55A      0.565282    56A      0.580856  
      57A      0.602577    58A      0.613376    59A      0.620609  
      60A      0.640064    61A      0.649965    62A      0.665386  
      63A      0.694446    64A      0.710593    65A      0.736560  
      66A      0.767210    67A      0.784889    68A      0.811931  
      69A      0.854266    70A      0.858099    71A      0.888389  
      72A      0.908873    73A      0.940405    74A      0.966373  
      75A      1.001911    76A      1.035011    77A      1.042599  
      78A      1.057759    79A      1.066377    80A      1.091649  
      81A      1.097385    82A      1.108169    83A      1.122621  
      84A      1.139530    85A      1.141710    86A      1.170454  
      87A      1.180000    88A      1.186353    89A      1.218378  
      90A      1.242604    91A      1.276596    92A      1.295576  
      93A      1.320509    94A      1.328146    95A      1.335352  
      96A      1.366291    97A      1.387442    98A      1.398937  
      99A      1.434406   100A      1.466357   101A      1.473843  
     102A      1.489431   103A      1.517744   104A      1.542989  
     105A      1.552396   106A      1.595773   107A      1.610027  
     108A      1.645338   109A      1.682533   110A      1.708151  
     111A      1.742445   112A      1.806475   113A      1.897098  
     114A      1.912354   115A      1.985253   116A      2.004488  
     117A      2.097658   118A      2.159282   119A      2.180360  
     120A      2.194491   121A      2.236424   122A      2.241211  
     123A      2.260718   124A      2.275904   125A      2.339900  
     126A      2.359387   127A      2.376938   128A      2.449501  
     129A      2.454584   130A      2.462733   131A      2.511151  
     132A      2.554141   133A      2.562273   134A      2.586970  
     135A      2.617836   136A      2.677839   137A      2.682204  
     138A      2.708874   139A      2.720693   140A      2.764066  
     141A      2.764346   142A      2.806358   143A      2.827787  
     144A      2.839345   145A      2.871882   146A      2.892521  
     147A      2.939743   148A      2.942872   149A      3.007940  
     150A      3.036370   151A      3.046244   152A      3.078228  
     153A      3.102747   154A      3.135908   155A      3.154587  
     156A      3.179647   157A      3.196504   158A      3.234019  
     159A      3.245069   160A      3.252550   161A      3.271556  
     162A      3.272493   163A      3.289384   164A      3.326309  
     165A      3.342955   166A      3.357984   167A      3.368930  
     168A      3.377921   169A      3.423492   170A      3.443090  
     171A      3.453600   172A      3.483352   173A      3.500485  
     174A      3.502348   175A      3.535693   176A      3.569168  
     177A      3.589738   178A      3.600370   179A      3.637779  
     180A      3.661409   181A      3.686545   182A      3.696614  
     183A      3.713636   184A      3.741961   185A      3.765236  
     186A      3.776100   187A      3.804978   188A      3.820769  
     189A      3.860532   190A      3.886150   191A      3.900803  
     192A      3.929203   193A      3.959546   194A      3.967428  
     195A      3.994084   196A      4.022963   197A      4.039131  
     198A      4.068873   199A      4.093726   200A      4.126078  
     201A      4.139373   202A      4.171009   203A      4.193098  
     204A      4.208508   205A      4.241163   206A      4.251466  
     207A      4.299043   208A      4.355404   209A      4.366999  
     210A      4.403691   211A      4.419399   212A      4.454522  
     213A      4.467183   214A      4.511821   215A      4.529836  
     216A      4.551636   217A      4.575365   218A      4.643311  
     219A      4.717433   220A      4.726349   221A      4.849756  
     222A      4.881870   223A      4.949518   224A      4.975546  
     225A      5.044791   226A      5.075776   227A      5.166099  
     228A      5.194707   229A      5.229061   230A      5.240559  
     231A      5.287377   232A      5.325600   233A      5.353395  
     234A      5.364774   235A      5.379101   236A      5.411046  
     237A      5.432977   238A      5.471022   239A      5.489270  
     240A      5.519888   241A      5.544621   242A      5.567063  
     243A      5.603420   244A      5.662320   245A      5.722718  
     246A      5.758397   247A      5.876614   248A      5.946357  
     249A      6.020848   250A      6.074261   251A      6.125873  
     252A      6.165111   253A      6.266248   254A      6.412856  
     255A      6.469156   256A      6.514235   257A      6.563553  
     258A      6.587051   259A      6.752852   260A      6.913879  
     261A      7.169246   262A      7.201270   263A      7.278102  
     264A      7.310443   265A      7.351838   266A      7.354549  
     267A      7.357167   268A      7.360901   269A      7.362418  
     270A      7.364101   271A      7.374218   272A      7.375050  
     273A      7.443116   274A      7.514141   275A      7.522906  
     276A      7.545406   277A      7.599020   278A      7.629630  
     279A      7.632333   280A      7.801085   281A      7.869690  
     282A      7.915403   283A      7.954834   284A      7.962877  
     285A      8.103669   286A      8.171129   287A      8.177142  
     288A      8.899436   289A      8.908897   290A      8.930039  
     291A      9.030760   292A      9.035053   293A      9.095811  
     294A      9.206994   295A      9.322298   296A      9.397203  
     297A      9.404301   298A      9.523651   299A      9.677961  
     300A      9.681495   301A      9.734875   302A      9.743995  
     303A     11.158369   304A     11.314596   305A     12.332914  
     306A     12.498328   307A     12.574883   308A     12.998710  
     309A     13.874675   310A     15.218479  

    Final Occupation by Irrep:
              A 
    DOCC [    32 ]

  Energy converged.

  @DF-RHF Final Energy:  -527.68780301465313

   => Energetics <=

    Nuclear Repulsion Energy =            413.4872928148664073
    One-Electron Energy =               -1550.6697837693805013
    Two-Electron Energy =                 609.4946879398615920
    DFT Exchange-Correlation Energy =       0.0000000000000000
    Empirical Dispersion Energy =           0.0000000000000000
    PCM Polarization Energy =               0.0000000000000000
    EFP Energy =                            0.0000000000000000
    Total Energy =                       -527.6878030146525589


  Saving occupied orbitals to File 180.

*** tstop() called on cx1-27-4-2 at Sat Sep 10 18:09:14 2016
Module time:
	user time   =      23.58 seconds =       0.39 minutes
	system time =       0.72 seconds =       0.01 minutes
	total time  =          7 seconds =       0.12 minutes
Total time:
	user time   =      23.58 seconds =       0.39 minutes
	system time =       0.72 seconds =       0.01 minutes
	total time  =          7 seconds =       0.12 minutes


Properties will be evaluated at   0.000000,   0.000000,   0.000000 Bohr

Properties computed using the SCF density matrix

  Nuclear Dipole Moment: (a.u.)
     X:   -10.2545      Y:    -6.3861      Z:     4.1801

  Electronic Dipole Moment: (a.u.)
     X:    10.2784      Y:     5.4913      Z:    -4.3154

  Dipole Moment: (a.u.)
     X:     0.0239      Y:    -0.8948      Z:    -0.1353     Total:     0.9053

  Dipole Moment: (Debye)
     X:     0.0608      Y:    -2.2744      Z:    -0.3440     Total:     2.3011


*** tstart() called on cx1-27-4-2
*** at Sat Sep 10 18:09:14 2016


         ------------------------------------------------------------
                                   SCF GRAD                          
                          Rob Parrish, Justin Turney,                
                       Andy Simmonett, and Alex Sokolov              
         ------------------------------------------------------------

  ==> Geometry <==

    Molecular point group: c1
    Full point group: C1

    Geometry (in Angstrom), charge = 0, multiplicity = 1:

       Center              X                  Y                   Z               Mass       
    ------------   -----------------  -----------------  -----------------  -----------------
           H         -3.777007186106     0.131968212451     0.435849520171     1.007825032070
           C         -3.075196186106    -0.459558787549     0.987089520171    12.000000000000
           C         -1.941031186106    -0.802677787549     0.427370520171    12.000000000000
           H         -3.320402186106    -0.755053787549     1.988266520171     1.007825032070
           O         -0.750426186106    -0.632918787549     1.046617520171    15.994914619560
           H         -1.895266186106    -1.248840787549    -0.549343479829     1.007825032070
           C          0.407928813894    -0.920889787549     0.347756520171    12.000000000000
           C          0.940052813894     0.290743212451    -0.389687479829    12.000000000000
           H          0.267610813894    -1.715549787549    -0.375153479829     1.007825032070
           H          1.161447813894    -1.225443787549     1.058316520171     1.007825032070
           F          2.058876813894    -0.028708787549    -1.008771479829    18.998403224000
           F          0.091637813894     0.725166212451    -1.296868479829    18.998403224000
           F          1.199490813894     1.287007212451     0.421857520171    18.998403224000

  Nuclear repulsion =  413.487292814866407

  ==> Basis Set <==

  Basis Set: CC-PVTZ
    Number of shells: 110
    Number of basis function: 310
    Number of Cartesian functions: 355
    Spherical Harmonics?: true
    Max angular momentum: 3

  ==> DFJKGrad: Density-Fitted SCF Gradients <==

    Gradient:                    1
    J tasked:                  Yes
    K tasked:                  Yes
    wK tasked:                  No
    OpenMP threads:              4
    Integrals threads:           4
    Memory (MB):              1430
    Schwarz Cutoff:          0E+00
    Fitting Condition:       1E-12

   => Auxiliary Basis Set <=

  Basis Set: 
    Number of shells: 250
    Number of basis function: 782
    Number of Cartesian functions: 943
    Spherical Harmonics?: true
    Max angular momentum: 4


  -Total Gradient:
     Atom            X                  Y                   Z
    ------   -----------------  -----------------  -----------------
       1        0.017277141167     0.027493427234     0.012139990671
       2        0.020846155694     0.003327898708    -0.014144629216
       3       -0.021864305774    -0.008330019358     0.011023671627
       4       -0.012438556756    -0.028844188633    -0.013805929201
       5        0.005386772538     0.024821787424    -0.008661757606
       6       -0.006268156769    -0.024748408739     0.013905537197
       7       -0.002643876142     0.007658940827    -0.000375244384
       8        0.001252098181    -0.001809330840     0.000060655450
       9       -0.001114905465    -0.000367066619    -0.000097775033
      10       -0.000586296886     0.000277384079     0.000632206568
      11        0.000783631486     0.000473522708    -0.000652727368
      12       -0.000616603569    -0.000164078841    -0.000030678235
      13       -0.000013097696     0.000210132049     0.000006679538


*** tstop() called on cx1-27-4-2 at Sat Sep 10 18:09:21 2016
Module time:
	user time   =      22.80 seconds =       0.38 minutes
	system time =       0.56 seconds =       0.01 minutes
	total time  =          7 seconds =       0.12 minutes
Total time:
	user time   =      46.44 seconds =       0.77 minutes
	system time =       1.29 seconds =       0.02 minutes
	total time  =         14 seconds =       0.23 minutes

			-----------------------------------------
			 OPTKING 2.0: for geometry optimizations 
			  - R.A. King,  Bethel University        
			-----------------------------------------

	Internal coordinates to be generated automatically.
	Detected frag 1 with atoms:  1 2 3 4 5 6 7 8 9 10 11 12 13
	---Fragment 1 Bond Connectivity---
	 1 : 2
	 2 : 1 3 4
	 3 : 2 5 6
	 4 : 2
	 5 : 3 7
	 6 : 3
	 7 : 5 8 9 10
	 8 : 7 11 12 13
	 9 : 7
	 10 : 7
	 11 : 8
	 12 : 8
	 13 : 8

	Assuming in current code that numbering for constraints corresponds to unified fragment.
	Frozen dihedral atom list: 
	     6     3     2     1
	---Fragment 1 Geometry and Gradient---
	 H          -7.1375091837        0.2493837798        0.8236362283
	 C          -5.8112785966       -0.8684402504        1.8653288618
	 C          -3.6680173571       -1.5168411914        0.8076132404
	 H          -6.2746507828       -1.4268448741        3.7572792023
	 O          -1.4180999747       -1.1960431728        1.9778204790
	 H          -3.5815340407       -2.3599670720       -1.0381087298
	 C           0.7708737400       -1.7402294970        0.6571645840
	 C           1.7764423687        0.5494250465       -0.7364026143
	 H           0.5057111485       -3.2419192658       -0.7089373347
	 H           2.1948182859       -2.3157531497        1.9999283850
	 F           3.8907133196       -0.0542517461       -1.9063018275
	 F           0.1731703717        1.3703655424       -2.4507262572
	 F           2.2667091372        2.4320911626        0.7971951802
	             0.0172771412        0.0274934272        0.0121399907
	             0.0208461557        0.0033278987       -0.0141446292
	            -0.0218643058       -0.0083300194        0.0110236716
	            -0.0124385568       -0.0288441886       -0.0138059292
	             0.0053867725        0.0248217874       -0.0086617576
	            -0.0062681568       -0.0247484087        0.0139055372
	            -0.0026438761        0.0076589408       -0.0003752444
	             0.0012520982       -0.0018093308        0.0000606555
	            -0.0011149055       -0.0003670666       -0.0000977750
	            -0.0005862969        0.0002773841        0.0006322066
	             0.0007836315        0.0004735227       -0.0006527274
	            -0.0006166036       -0.0001640788       -0.0000306782
	            -0.0000130977        0.0002101320        0.0000066795

	Previous optimization step data not found.  Starting new optimization.

	---Fragment 1 Intrafragment Coordinates---
	 - Coordinate -           - BOHR/RAD -       - ANG/DEG -
	 R(1,2)           =         2.023250	       1.070658
	 R(2,3)           =         2.476440	       1.310476
	 R(2,4)           =         2.026328	       1.072287
	 R(3,5)           =         2.556252	       1.352710
	 R(3,6)           =         2.031017	       1.074768
	 R(5,7)           =         2.613786	       1.383156
	 R(7,8)           =         2.862816	       1.514937
	 R(7,9)           =         2.047344	       1.083408
	 R(7,10)          =         2.040064	       1.079555
	 R(8,11)          =         2.490629	       1.317984
	 R(8,12)          =         2.486630	       1.315868
	 R(8,13)          =         2.477239	       1.310899
	 B(1,2,3)         =         2.085250	     119.476021
	 B(1,2,4)         =         2.074958	     118.886342
	 B(2,3,5)         =         2.133369	     122.233014
	 B(2,3,6)         =         2.133753	     122.255016
	 B(3,2,4)         =         2.122976	     121.637541
	 B(3,5,7)         =         2.071089	     118.664653
	 B(5,3,6)         =         2.015993	     115.507901
	 B(5,7,8)         =         1.953686	     111.937957
	 B(5,7,9)         =         1.962091	     112.419532
	 B(5,7,10)        =         1.886745	     108.102527
	 B(7,8,11)        =         1.910251	     109.449310
	 B(7,8,12)        =         1.953218	     111.911129
	 B(7,8,13)        =         1.956262	     112.085549
	 B(8,7,9)         =         1.883168	     107.897595
	 B(8,7,10)        =         1.876388	     107.509131
	 B(9,7,10)        =         1.899338	     108.824055
	 B(11,8,12)       =         1.879175	     107.668817
	 B(11,8,13)       =         1.882830	     107.878193
	 B(12,8,13)       =         1.879161	     107.667978
	 D(1,2,3,5)       =         2.282315	     130.766993
	*D(1,2,3,6)       =        -0.872665	     -50.000020
	 D(2,3,5,7)       =        -3.052481	    -174.894252
	 D(3,5,7,8)       =         1.579984	      90.526427
	 D(3,5,7,9)       =        -0.543016	     -31.112552
	 D(3,5,7,10)      =        -2.639827	    -151.250961
	 D(4,2,3,5)       =        -0.857297	     -49.119495
	 D(4,2,3,6)       =         2.270909	     130.113493
	 D(5,7,8,11)      =         3.113794	     178.407280
	 D(5,7,8,12)      =        -1.087676	     -62.319255
	 D(5,7,8,13)      =         1.025579	      58.761357
	 D(6,3,5,7)       =         0.101656	       5.824448
	 D(9,7,8,11)      =        -1.001625	     -57.388911
	 D(9,7,8,12)      =         1.080089	      61.884554
	 D(9,7,8,13)      =        -3.089841	    -177.034835
	 D(10,7,8,11)     =         1.044268	      59.832170
	 D(10,7,8,12)     =         3.125983	     179.105635
	 D(10,7,8,13)     =        -1.043947	     -59.813754
	 R(3,12)          =         5.805813	       3.072304

	Current energy   :      -527.6878030147

	Generating empirical Hessian (Schlegel '84) for each fragment.
	Taking RFO optimization step.
	Going to follow RFO solution 1.
	Using RFO vector 1.

	Determining step-restricting scale parameter for RS-RFO.
	Maximum step size allowed    0.50000

	 Iter      |step|        alpha        rfo_root  
	------------------------------------------------
	    0     0.76221       1.00000           1
	    1     0.58996       1.90774           1
	    2     0.51705       2.61258           1
	    3     0.50083       2.81482           1
	    4     0.50000       2.82572           1
	------------------------------------------------
	Norm of target step-size    0.50000
	Projected energy change by RFO approximation:        -0.0197143576

	Back-transformation to cartesian coordinates...
	Successfully converged to displaced geometry.

	Back-transformation to cartesian coordinates to adjust frozen coordinates...
	Successfully converged to displaced geometry.

	--- Internal Coordinate Step in ANG or DEG, aJ/ANG or AJ/DEG ---
	 ---------------------------------------------------------------------------
	   Coordinate                Previous        Force       Change         New 
	   ----------                --------       ------       ------       ------
	    1 R(1,2)          =      1.070658     0.019655     0.002804     1.073461
	    2 R(2,3)          =      1.310476     0.234510     0.020848     1.331324
	    3 R(2,4)          =      1.072287     0.017279     0.002476     1.074762
	    4 R(3,5)          =      1.352710    -0.015717    -0.001630     1.351081
	    5 R(3,6)          =      1.074768     0.021669     0.003126     1.077894
	    6 R(5,7)          =      1.383156     0.028765     0.003251     1.386407
	    7 R(7,8)          =      1.514937     0.001488     0.000193     1.515130
	    8 R(7,9)          =      1.083408    -0.003945    -0.000583     1.082825
	    9 R(7,10)         =      1.079555     0.000588     0.000086     1.079641
	   10 R(8,11)         =      1.317984    -0.007061    -0.000645     1.317339
	   11 R(8,12)         =      1.315868    -0.003068    -0.000281     1.315587
	   12 R(8,13)         =      1.310899    -0.001328    -0.000118     1.310780
	   13 B(1,2,3)        =    119.476021     0.000068     1.190018   120.666039
	   14 B(1,2,4)        =    118.886342    -0.000179     0.676190   119.562532
	   15 B(2,3,5)        =    122.233014     0.000194     0.391733   122.624747
	   16 B(2,3,6)        =    122.255016     0.000215    -0.575881   121.679135
	   17 B(3,2,4)        =    121.637541     0.000108    -2.514575   119.122966
	   18 B(3,5,7)        =    118.664653     0.000138     0.280633   118.945286
	   19 B(5,3,6)        =    115.507901    -0.000428    -1.065976   114.441925
	   20 B(5,7,8)        =    111.937957    -0.000249    -0.644530   111.293427
	   21 B(5,7,9)        =    112.419532     0.000129     0.418027   112.837559
	   22 B(5,7,10)       =    108.102527     0.000107     0.308093   108.410620
	   23 B(7,8,11)       =    109.449310    -0.000110    -0.280700   109.168610
	   24 B(7,8,12)       =    111.911129     0.000082     0.197962   112.109091
	   25 B(7,8,13)       =    112.085549    -0.000008     0.004370   112.089919
	   26 B(8,7,9)        =    107.897595     0.000044     0.085428   107.983024
	   27 B(8,7,10)       =    107.509131     0.000007    -0.068378   107.440753
	   28 B(9,7,10)       =    108.824055    -0.000040    -0.113161   108.710895
	   29 B(11,8,12)      =    107.668817     0.000012     0.027254   107.696071
	   30 B(11,8,13)      =    107.878193     0.000041     0.044291   107.922485
	   31 B(12,8,13)      =    107.667978    -0.000015     0.007744   107.675722
	   32 D(1,2,3,5)      =    130.766993     0.000406    12.741205   143.508197
	   33 *D(1,2,3,6)     =    -50.000020     0.000000    -0.000000   -50.000020
	   34 D(2,3,5,7)      =   -174.894252    -0.000264    -8.654864  -183.549115
	   35 D(3,5,7,8)      =     90.526427     0.000011     0.351518    90.877945
	   36 D(3,5,7,9)      =    -31.112552     0.000018     0.411217   -30.701335
	   37 D(3,5,7,10)     =   -151.250961    -0.000005     0.083094  -151.167867
	   38 D(4,2,3,5)      =    -49.119495     0.000718    21.897378   -27.222117
	   39 D(4,2,3,6)      =    130.113493     0.000312     9.156174   139.269666
	   40 D(5,7,8,11)     =    178.407280    -0.000005    -0.101390   178.305890
	   41 D(5,7,8,12)     =    -62.319255    -0.000006    -0.128199   -62.447454
	   42 D(5,7,8,13)     =     58.761357     0.000002     0.027235    58.788591
	   43 D(6,3,5,7)      =      5.824448     0.000115     3.238544     9.062992
	   44 D(9,7,8,11)     =    -57.388911     0.000002     0.059744   -57.329167
	   45 D(9,7,8,12)     =     61.884554     0.000001     0.032935    61.917489
	   46 D(9,7,8,13)     =   -177.034835     0.000008     0.188369  -176.846466
	   47 D(10,7,8,11)    =     59.832170    -0.000003    -0.064465    59.767705
	   48 D(10,7,8,12)    =    179.105635    -0.000004    -0.091274   179.014361
	   49 D(10,7,8,13)    =    -59.813754     0.000004     0.064160   -59.749594
	   50 R(3,12)         =      3.072304     0.000522     0.000672     3.072976
	 ---------------------------------------------------------------------------
	Successfully symmetrized geometry.

  ==> Convergence Check <==

  Measures of convergence in internal coordinates in au.
  Criteria marked as inactive (o), active & met (*), and active & unmet ( ).
  --------------------------------------------------------------------------------------------- ~
   Step     Total Energy     Delta E     MAX Force     RMS Force      MAX Disp      RMS Disp    ~
  --------------------------------------------------------------------------------------------- ~
    Convergence Criteria    1.00e-06 *    3.00e-04 *             o    1.20e-03 *             o  ~
  --------------------------------------------------------------------------------------------- ~
      1    -527.68780301   -5.28e+02      4.11e-02      8.66e-03 o    3.82e-01      7.10e-02 o  ~
  ---------------------------------------------------------------------------------------------

	Writing optimization data to binary file.
	Structure for next step:
	Cartesian Geometry (in Angstrom)
	    H    -3.9411215076  -0.2301052078   0.5417352170
	    C    -3.0872520852  -0.6233507735   1.0599865214
	    C    -1.9286881449  -0.7953585255   0.4270838738
	    H    -3.1221013542  -0.7390662389   2.1279330661
	    O    -0.7347812719  -0.5809547649   1.0220933527
	    H    -1.8703103936  -1.3146889979  -0.5156483711
	    C     0.4260095400  -0.8548755138   0.3152287795
	    C     0.9083523793   0.3642048871  -0.4442504086
	    H     0.3051784920  -1.6642928465  -0.3938220938
	    H     1.1987067639  -1.1239429358   1.0196199145
	    F     2.0294917499   0.0686175122  -1.0695956674
	    F     0.0386610895   0.7604558923  -1.3483480469
	    F     1.1455713235   1.3786002748   0.3512836250
			--------------------------
			 OPTKING Finished Execution 
			--------------------------

    Structure for next step:
    Molecular point group: c1
    Full point group: C1

    Geometry (in Angstrom), charge = 0, multiplicity = 1:

    H           -3.922365058696    -0.266807864215     0.572020176461
    C           -3.068495636356    -0.660053429863     1.090271480774
    C           -1.909931696019    -0.832061181907     0.457368833190
    H           -3.103344905303    -0.775768895248     2.158218025538
    O           -0.716024822993    -0.617657421272     1.052378312108
    H           -1.851553944712    -1.351391654293    -0.485363411684
    C            0.444765988888    -0.891578170212     0.345513738955
    C            0.927108828148     0.327502230778    -0.413965449190
    H            0.323934940836    -1.700995502865    -0.363537134404
    H            1.217463212771    -1.160645592116     1.049904873906
    F            2.048248198772     0.031914855870    -1.039310708025
    F            0.057417538371     0.723753235978    -1.318063087440
    F            1.164327772350     1.341897618474     0.381568584447

gradient() will perform analytic gradient computation.

*** tstart() called on cx1-27-4-2
*** at Sat Sep 10 18:09:21 2016


         ---------------------------------------------------------
                                   SCF
            by Justin Turney, Rob Parrish, and Andy Simmonett
                              RHF Reference
                        4 Threads,   2000 MiB Core
         ---------------------------------------------------------

  ==> Geometry <==

    Molecular point group: c1
    Full point group: C1

    Geometry (in Angstrom), charge = 0, multiplicity = 1:

       Center              X                  Y                   Z               Mass       
    ------------   -----------------  -----------------  -----------------  -----------------
           H         -3.922365058696    -0.266807864215     0.572020176461     1.007825032070
           C         -3.068495636356    -0.660053429863     1.090271480774    12.000000000000
           C         -1.909931696019    -0.832061181907     0.457368833190    12.000000000000
           H         -3.103344905303    -0.775768895248     2.158218025538     1.007825032070
           O         -0.716024822993    -0.617657421272     1.052378312108    15.994914619560
           H         -1.851553944712    -1.351391654293    -0.485363411684     1.007825032070
           C          0.444765988888    -0.891578170212     0.345513738955    12.000000000000
           C          0.927108828148     0.327502230778    -0.413965449190    12.000000000000
           H          0.323934940836    -1.700995502865    -0.363537134404     1.007825032070
           H          1.217463212771    -1.160645592116     1.049904873906     1.007825032070
           F          2.048248198772     0.031914855870    -1.039310708025    18.998403224000
           F          0.057417538371     0.723753235978    -1.318063087440    18.998403224000
           F          1.164327772350     1.341897618474     0.381568584447    18.998403224000

  Running in c1 symmetry.

  Rotational constants: A =      0.15375  B =      0.03865  C =      0.03784 [cm^-1]
  Rotational constants: A =   4609.36319  B =   1158.68446  C =   1134.40973 [MHz]
  Nuclear repulsion =  412.672157607985639

  Charge       = 0
  Multiplicity = 1
  Electrons    = 64
  Nalpha       = 32
  Nbeta        = 32

  ==> Algorithm <==

  SCF Algorithm Type is DF.
  DIIS enabled.
  MOM disabled.
  Fractional occupation disabled.
  Guess Type is READ.
  Energy threshold   = 1.00e-08
  Density threshold  = 1.00e-08
  Integral threshold = 0.00e+00

  ==> Primary Basis <==

  Basis Set: CC-PVTZ
    Number of shells: 110
    Number of basis function: 310
    Number of Cartesian functions: 355
    Spherical Harmonics?: true
    Max angular momentum: 3

  ==> Pre-Iterations <==

   -------------------------------------------------------
    Irrep   Nso     Nmo     Nalpha   Nbeta   Ndocc  Nsocc
   -------------------------------------------------------
     A        310     310       0       0       0       0
   -------------------------------------------------------
    Total     310     310      32      32      32       0
   -------------------------------------------------------

  ==> Integral Setup <==

  ==> DFJK: Density-Fitted J/K Matrices <==

    J tasked:                  Yes
    K tasked:                  Yes
    wK tasked:                  No
    OpenMP threads:              4
    Integrals threads:           4
    Memory (MB):              1430
    Algorithm:                Core
    Integral Cache:           NONE
    Schwarz Cutoff:          1E-12
    Fitting Condition:       1E-12

   => Auxiliary Basis Set <=

  Basis Set: 
    Number of shells: 250
    Number of basis function: 782
    Number of Cartesian functions: 943
    Spherical Harmonics?: true
    Max angular momentum: 4

  Minimum eigenvalue in the overlap matrix is 4.2886518792E-04.
  Using Symmetric Orthogonalization.
  SCF Guess: Reading in previously saved MOs, projecting if necessary.

  Using orbitals from previous SCF, no projection.
  Recomputing DOCC and SOCC from number of alpha and beta electrons from previous calculation.
              A 
    DOCC [    32 ]

  ==> Iterations <==

                           Total Energy        Delta E     RMS |[F,P]|

   @DF-RHF iter   0:  -527.67259634232278   -5.27673e+02   1.00733e-03 
   @DF-RHF iter   1:  -527.70632644168859   -3.37301e-02   1.75543e-04 
   @DF-RHF iter   2:  -527.70884387889578   -2.51744e-03   7.50564e-05 DIIS
   @DF-RHF iter   3:  -527.70931301060750   -4.69132e-04   3.53414e-05 DIIS
   @DF-RHF iter   4:  -527.70946643907791   -1.53428e-04   9.12240e-06 DIIS
   @DF-RHF iter   5:  -527.70948082725454   -1.43882e-05   4.83363e-06 DIIS
   @DF-RHF iter   6:  -527.70948396228596   -3.13503e-06   1.34251e-06 DIIS
   @DF-RHF iter   7:  -527.70948423442746   -2.72142e-07   6.48084e-07 DIIS
   @DF-RHF iter   8:  -527.70948428774591   -5.33184e-08   2.55526e-07 DIIS
   @DF-RHF iter   9:  -527.70948429737064   -9.62473e-09   7.48966e-08 DIIS
   @DF-RHF iter  10:  -527.70948429828923   -9.18590e-10   2.38284e-08 DIIS
   @DF-RHF iter  11:  -527.70948429836494   -7.57154e-11   7.11376e-09 DIIS

  ==> Post-Iterations <==

    Orbital Energies (a.u.)
    -----------------------

    Doubly Occupied:                                                      

       1A    -26.343143     2A    -26.341412     3A    -26.339098  
       4A    -20.608938     5A    -11.499557     6A    -11.322772  
       7A    -11.309390     8A    -11.213501     9A     -1.751787  
      10A     -1.648322    11A     -1.646426    12A     -1.448094  
      13A     -1.088331    14A     -1.017494    15A     -0.933523  
      16A     -0.845488    17A     -0.840852    18A     -0.829108  
      19A     -0.799874    20A     -0.729596    21A     -0.720059  
      22A     -0.703722    23A     -0.682026    24A     -0.668601  
      25A     -0.661820    26A     -0.651954    27A     -0.641347  
      28A     -0.590372    29A     -0.575088    30A     -0.528045  
      31A     -0.517752    32A     -0.332933  

    Virtual:                                                              

      33A      0.124637    34A      0.153808    35A      0.170203  
      36A      0.179938    37A      0.209326    38A      0.227272  
      39A      0.251828    40A      0.297220    41A      0.335439  
      42A      0.340163    43A      0.349149    44A      0.383232  
      45A      0.396407    46A      0.434856    47A      0.463696  
      48A      0.497984    49A      0.504497    50A      0.509160  
      51A      0.517671    52A      0.535402    53A      0.547719  
      54A      0.552834    55A      0.568611    56A      0.579069  
      57A      0.600596    58A      0.614505    59A      0.625021  
      60A      0.630374    61A      0.652380    62A      0.665179  
      63A      0.688178    64A      0.714077    65A      0.732355  
      66A      0.763852    67A      0.783446    68A      0.806823  
      69A      0.844964    70A      0.877811    71A      0.883219  
      72A      0.910698    73A      0.937929    74A      0.967900  
      75A      0.999407    76A      1.036113    77A      1.041406  
      78A      1.051703    79A      1.063095    80A      1.082553  
      81A      1.088680    82A      1.112384    83A      1.126014  
      84A      1.142610    85A      1.146994    86A      1.154694  
      87A      1.174048    88A      1.193811    89A      1.219383  
      90A      1.249330    91A      1.270627    92A      1.287712  
      93A      1.317234    94A      1.333575    95A      1.338192  
      96A      1.357521    97A      1.379720    98A      1.397157  
      99A      1.424629   100A      1.463688   101A      1.475975  
     102A      1.491519   103A      1.508412   104A      1.537628  
     105A      1.550016   106A      1.592056   107A      1.619257  
     108A      1.647309   109A      1.693365   110A      1.726854  
     111A      1.733052   112A      1.803787   113A      1.876582  
     114A      1.938100   115A      1.983055   116A      2.008098  
     117A      2.095922   118A      2.149407   119A      2.180009  
     120A      2.195338   121A      2.240765   122A      2.241982  
     123A      2.263440   124A      2.274502   125A      2.340619  
     126A      2.361192   127A      2.374710   128A      2.433453  
     129A      2.463167   130A      2.470632   131A      2.506680  
     132A      2.526824   133A      2.553799   134A      2.575218  
     135A      2.626202   136A      2.678056   137A      2.685531  
     138A      2.706540   139A      2.725269   140A      2.735066  
     141A      2.765877   142A      2.814589   143A      2.823595  
     144A      2.854240   145A      2.865155   146A      2.885687  
     147A      2.913861   148A      2.948289   149A      2.983732  
     150A      3.040253   151A      3.067011   152A      3.079636  
     153A      3.105512   154A      3.136486   155A      3.149087  
     156A      3.175275   157A      3.188795   158A      3.217221  
     159A      3.239870   160A      3.253826   161A      3.271869  
     162A      3.280609   163A      3.299011   164A      3.321641  
     165A      3.342111   166A      3.349644   167A      3.375100  
     168A      3.375709   169A      3.424982   170A      3.427721  
     171A      3.458068   172A      3.475436   173A      3.496305  
     174A      3.509558   175A      3.538860   176A      3.562002  
     177A      3.589799   178A      3.598645   179A      3.641537  
     180A      3.648892   181A      3.693867   182A      3.700341  
     183A      3.716698   184A      3.743247   185A      3.767724  
     186A      3.775652   187A      3.788812   188A      3.824099  
     189A      3.859570   190A      3.883416   191A      3.901114  
     192A      3.929804   193A      3.937600   194A      3.955812  
     195A      3.983825   196A      4.016667   197A      4.046789  
     198A      4.052643   199A      4.058851   200A      4.120888  
     201A      4.131922   202A      4.167623   203A      4.196258  
     204A      4.202677   205A      4.244285   206A      4.246684  
     207A      4.294669   208A      4.347389   209A      4.360007  
     210A      4.395045   211A      4.413983   212A      4.443200  
     213A      4.467417   214A      4.500683   215A      4.533675  
     216A      4.551255   217A      4.571662   218A      4.649137  
     219A      4.698405   220A      4.709500   221A      4.813352  
     222A      4.864779   223A      4.919316   224A      4.961526  
     225A      5.045531   226A      5.075022   227A      5.151635  
     228A      5.174099   229A      5.208366   230A      5.236149  
     231A      5.284315   232A      5.315523   233A      5.319421  
     234A      5.361121   235A      5.375158   236A      5.412429  
     237A      5.443282   238A      5.468200   239A      5.483752  
     240A      5.520282   241A      5.537742   242A      5.557689  
     243A      5.602683   244A      5.657036   245A      5.685834  
     246A      5.753660   247A      5.886403   248A      5.943971  
     249A      6.006982   250A      6.058129   251A      6.113969  
     252A      6.158495   253A      6.262841   254A      6.385099  
     255A      6.446129   256A      6.516062   257A      6.563181  
     258A      6.587479   259A      6.745075   260A      6.941899  
     261A      7.183049   262A      7.189288   263A      7.279662  
     264A      7.310740   265A      7.352275   266A      7.354909  
     267A      7.357582   268A      7.361571   269A      7.362552  
     270A      7.364726   271A      7.374452   272A      7.375245  
     273A      7.445971   274A      7.515139   275A      7.523348  
     276A      7.545906   277A      7.600109   278A      7.630266  
     279A      7.632917   280A      7.799724   281A      7.869898  
     282A      7.917772   283A      7.957155   284A      7.963428  
     285A      8.105732   286A      8.171924   287A      8.178437  
     288A      8.899984   289A      8.908792   290A      8.930580  
     291A      9.030289   292A      9.036069   293A      9.096397  
     294A      9.208305   295A      9.323297   296A      9.398446  
     297A      9.405019   298A      9.524410   299A      9.678459  
     300A      9.681978   301A      9.735496   302A      9.742423  
     303A     11.161866   304A     11.339625   305A     12.219831  
     306A     12.501630   307A     12.569707   308A     12.993926  
     309A     13.877573   310A     14.888063  

    Final Occupation by Irrep:
              A 
    DOCC [    32 ]

  Energy converged.

  @DF-RHF Final Energy:  -527.70948429836494

   => Energetics <=

    Nuclear Repulsion Energy =            412.6721576079856391
    One-Electron Energy =               -1549.1024336987998140
    Two-Electron Energy =                 608.7207917924488356
    DFT Exchange-Correlation Energy =       0.0000000000000000
    Empirical Dispersion Energy =           0.0000000000000000
    PCM Polarization Energy =               0.0000000000000000
    EFP Energy =                            0.0000000000000000
    Total Energy =                       -527.7094842983653962


  Saving occupied orbitals to File 180.

*** tstop() called on cx1-27-4-2 at Sat Sep 10 18:09:27 2016
Module time:
	user time   =      20.53 seconds =       0.34 minutes
	system time =       0.57 seconds =       0.01 minutes
	total time  =          6 seconds =       0.10 minutes
Total time:
	user time   =      68.72 seconds =       1.15 minutes
	system time =       1.94 seconds =       0.03 minutes
	total time  =         20 seconds =       0.33 minutes


Properties will be evaluated at   0.000000,   0.000000,   0.000000 Bohr

Properties computed using the SCF density matrix

  Nuclear Dipole Moment: (a.u.)
     X:    -9.9654      Y:    -6.9087      Z:     4.6169

  Electronic Dipole Moment: (a.u.)
     X:     9.9849      Y:     6.0433      Z:    -4.7116

  Dipole Moment: (a.u.)
     X:     0.0196      Y:    -0.8654      Z:    -0.0947     Total:     0.8707

  Dipole Moment: (Debye)
     X:     0.0497      Y:    -2.1995      Z:    -0.2406     Total:     2.2132


*** tstart() called on cx1-27-4-2
*** at Sat Sep 10 18:09:27 2016


         ------------------------------------------------------------
                                   SCF GRAD                          
                          Rob Parrish, Justin Turney,                
                       Andy Simmonett, and Alex Sokolov              
         ------------------------------------------------------------

  ==> Geometry <==

    Molecular point group: c1
    Full point group: C1

    Geometry (in Angstrom), charge = 0, multiplicity = 1:

       Center              X                  Y                   Z               Mass       
    ------------   -----------------  -----------------  -----------------  -----------------
           H         -3.922365058696    -0.266807864215     0.572020176461     1.007825032070
           C         -3.068495636356    -0.660053429863     1.090271480774    12.000000000000
           C         -1.909931696019    -0.832061181907     0.457368833190    12.000000000000
           H         -3.103344905303    -0.775768895248     2.158218025538     1.007825032070
           O         -0.716024822993    -0.617657421272     1.052378312108    15.994914619560
           H         -1.851553944712    -1.351391654293    -0.485363411684     1.007825032070
           C          0.444765988888    -0.891578170212     0.345513738955    12.000000000000
           C          0.927108828148     0.327502230778    -0.413965449190    12.000000000000
           H          0.323934940836    -1.700995502865    -0.363537134404     1.007825032070
           H          1.217463212771    -1.160645592116     1.049904873906     1.007825032070
           F          2.048248198772     0.031914855870    -1.039310708025    18.998403224000
           F          0.057417538371     0.723753235978    -1.318063087440    18.998403224000
           F          1.164327772350     1.341897618474     0.381568584447    18.998403224000

  Nuclear repulsion =  412.672157607985639

  ==> Basis Set <==

  Basis Set: CC-PVTZ
    Number of shells: 110
    Number of basis function: 310
    Number of Cartesian functions: 355
    Spherical Harmonics?: true
    Max angular momentum: 3

  ==> DFJKGrad: Density-Fitted SCF Gradients <==

    Gradient:                    1
    J tasked:                  Yes
    K tasked:                  Yes
    wK tasked:                  No
    OpenMP threads:              4
    Integrals threads:           4
    Memory (MB):              1430
    Schwarz Cutoff:          0E+00
    Fitting Condition:       1E-12

   => Auxiliary Basis Set <=

  Basis Set: 
    Number of shells: 250
    Number of basis function: 782
    Number of Cartesian functions: 943
    Spherical Harmonics?: true
    Max angular momentum: 4


  -Total Gradient:
     Atom            X                  Y                   Z
    ------   -----------------  -----------------  -----------------
       1        0.007163138427     0.026122426457     0.004769144488
       2       -0.015366925335    -0.004593155000    -0.003357080834
       3        0.006647669688     0.010959037287    -0.004462425170
       4       -0.002693167353    -0.023269490824    -0.002825768172
       5        0.003092024549     0.014662947471    -0.007052028440
       6        0.000591880836    -0.025648533168     0.013663575682
       7        0.000587014359     0.001708672170    -0.000592421859
       8        0.000133003944    -0.000224658487     0.000020721521
       9        0.000251646104    -0.000050292956    -0.000058876643
      10        0.000394115339     0.000086420732    -0.000160075943
      11       -0.000547235660    -0.000103894660     0.000396468176
      12       -0.000294186762     0.000182156929    -0.000348741653
      13        0.000041021870     0.000168364045     0.000007508854


*** tstop() called on cx1-27-4-2 at Sat Sep 10 18:09:34 2016
Module time:
	user time   =      22.96 seconds =       0.38 minutes
	system time =       0.47 seconds =       0.01 minutes
	total time  =          7 seconds =       0.12 minutes
Total time:
	user time   =      91.78 seconds =       1.53 minutes
	system time =       2.41 seconds =       0.04 minutes
	total time  =         27 seconds =       0.45 minutes

			-----------------------------------------
			 OPTKING 2.0: for geometry optimizations 
			  - R.A. King,  Bethel University        
			-----------------------------------------

	Previous internal coordinate definitions found.
	---Fragment 1 Geometry and Gradient---
	 H          -7.4121957541       -0.5041937935        1.0809614760
	 C          -5.7986163927       -1.2473202155        2.0603145092
	 C          -3.6092478380       -1.5723677596        0.8643018364
	 H          -5.8644719669       -1.4659907544        4.0784410033
	 O          -1.3530908198       -1.1672033701        1.9887067981
	 H          -3.4989298758       -2.5537601249       -0.9172039230
	 C           0.8404859122       -1.6848385678        0.6529263418
	 C           1.7519817806        0.6188895241       -0.7822813274
	 H           0.6121483231       -3.2144156537       -0.6869856232
	 H           2.3006720490       -2.1933023064        1.9840326773
	 F           3.8706281479        0.0603103372       -1.9640126051
	 F           0.1085034227        1.3676954038       -2.4907782611
	 F           2.2002606187        2.5358189973        0.7210601255
	             0.0071631384        0.0261224265        0.0047691445
	            -0.0153669253       -0.0045931550       -0.0033570808
	             0.0066476697        0.0109590373       -0.0044624252
	            -0.0026931674       -0.0232694908       -0.0028257682
	             0.0030920245        0.0146629475       -0.0070520284
	             0.0005918808       -0.0256485332        0.0136635757
	             0.0005870144        0.0017086722       -0.0005924219
	             0.0001330039       -0.0002246585        0.0000207215
	             0.0002516461       -0.0000502930       -0.0000588766
	             0.0003941153        0.0000864207       -0.0001600759
	            -0.0005472357       -0.0001038947        0.0003964682
	            -0.0002941868        0.0001821569       -0.0003487417
	             0.0000410219        0.0001683640        0.0000075089

	---Fragment 1 Intrafragment Coordinates---
	 - Coordinate -           - BOHR/RAD -       - ANG/DEG -
	 R(1,2)           =         2.028548	       1.073461
	 R(2,3)           =         2.515837	       1.331324
	 R(2,4)           =         2.031007	       1.074762
	 R(3,5)           =         2.553172	       1.351081
	 R(3,6)           =         2.036925	       1.077894
	 R(5,7)           =         2.619930	       1.386407
	 R(7,8)           =         2.863182	       1.515130
	 R(7,9)           =         2.046242	       1.082825
	 R(7,10)          =         2.040226	       1.079641
	 R(8,11)          =         2.489410	       1.317339
	 R(8,12)          =         2.486100	       1.315587
	 R(8,13)          =         2.477016	       1.310780
	 B(1,2,3)         =         2.106020	     120.666039
	 B(1,2,4)         =         2.086760	     119.562532
	 B(2,3,5)         =         2.140206	     122.624747
	 B(2,3,6)         =         2.123702	     121.679135
	 B(3,2,4)         =         2.079088	     119.122966
	 B(3,5,7)         =         2.075987	     118.945286
	 B(5,3,6)         =         1.997388	     114.441925
	 B(5,7,8)         =         1.942437	     111.293427
	 B(5,7,9)         =         1.969387	     112.837559
	 B(5,7,10)        =         1.892122	     108.410620
	 B(7,8,11)        =         1.905352	     109.168610
	 B(7,8,12)        =         1.956673	     112.109091
	 B(7,8,13)        =         1.956338	     112.089919
	 B(8,7,9)         =         1.884659	     107.983024
	 B(8,7,10)        =         1.875195	     107.440753
	 B(9,7,10)        =         1.897363	     108.710895
	 B(11,8,12)       =         1.879651	     107.696071
	 B(11,8,13)       =         1.883603	     107.922485
	 B(12,8,13)       =         1.879296	     107.675722
	 D(1,2,3,5)       =         2.504691	     143.508197
	*D(1,2,3,6)       =        -0.872665	     -50.000020
	 D(2,3,5,7)       =         3.079649	     176.450885
	 D(3,5,7,8)       =         1.586119	      90.877945
	 D(3,5,7,9)       =        -0.535839	     -30.701335
	 D(3,5,7,10)      =        -2.638377	    -151.167867
	 D(4,2,3,5)       =        -0.475116	     -27.222117
	 D(4,2,3,6)       =         2.430714	     139.269666
	 D(5,7,8,11)      =         3.112025	     178.305890
	 D(5,7,8,12)      =        -1.089914	     -62.447454
	 D(5,7,8,13)      =         1.026054	      58.788591
	 D(6,3,5,7)       =         0.158179	       9.062992
	 D(9,7,8,11)      =        -1.000583	     -57.329167
	 D(9,7,8,12)      =         1.080664	      61.917489
	 D(9,7,8,13)      =        -3.086553	    -176.846466
	 D(10,7,8,11)     =         1.043143	      59.767705
	 D(10,7,8,12)     =         3.124390	     179.014361
	 D(10,7,8,13)     =        -1.042827	     -59.749594
	 R(3,12)          =         5.807083	       3.072976

	Current energy   :      -527.7094842984

	Energy change for the previous step:
		Projected    :        -0.0197143576
		Actual       :        -0.0216812837
	Energy ratio indicates good step: Trust radius increased to 1.000e+00.


	Performing BFGS update.
	Previous computed or guess Hessian on step 1.
	Steps to be used in Hessian update: 1
	Taking RFO optimization step.
	Going to follow RFO solution 1.
	Using RFO vector 1.
	Norm of target step-size    0.63549
	Projected energy change by RFO approximation:        -0.0122592024

	Back-transformation to cartesian coordinates...
	Could not converge backtransformation.
	Using first guess instead.

	Back-transformation to cartesian coordinates to adjust frozen coordinates...
	Successfully converged to displaced geometry.

	--- Internal Coordinate Step in ANG or DEG, aJ/ANG or AJ/DEG ---
	 ---------------------------------------------------------------------------
	   Coordinate                Previous        Force       Change         New 
	   ----------                --------       ------       ------       ------
	    1 R(1,2)          =      1.073461    -0.012929     0.886472     1.959933
	    2 R(2,3)          =      1.331324    -0.070738     0.927593     2.258916
	    3 R(2,4)          =      1.074762     0.001773     0.122592     1.197355
	    4 R(3,5)          =      1.351081    -0.020126     0.906662     2.257743
	    5 R(3,6)          =      1.077894    -0.003619     0.062127     1.140021
	    6 R(5,7)          =      1.386407    -0.004624     0.962659     2.349067
	    7 R(7,8)          =      1.515130     0.001289     1.290140     2.805270
	    8 R(7,9)          =      1.082825    -0.000396     0.262180     1.345005
	    9 R(7,10)         =      1.079641    -0.001286     0.695373     1.775014
	   10 R(8,11)         =      1.317339     0.005196     0.938656     2.255995
	   11 R(8,12)         =      1.315587    -0.004117     0.839396     2.154984
	   12 R(8,13)         =      1.310780    -0.001172     0.382430     1.693211
	   13 B(1,2,3)        =    120.666039     0.000003    12.471103   133.137142
	   14 B(1,2,4)        =    119.562532    -0.000250     8.527047   128.089579
	   15 B(2,3,5)        =    122.624747    -0.000768    25.096359   147.721107
	   16 B(2,3,6)        =    121.679135     0.000586   -20.385661   101.293473
	   17 B(3,2,4)        =    119.122966     0.000090   -22.835144    96.287822
	   18 B(3,5,7)        =    118.945286    -0.000026    24.550408   143.495694
	   19 B(5,3,6)        =    114.441925     0.000019    -6.100209   108.341716
	   20 B(5,7,8)        =    111.293427     0.000052    -0.508227   110.785200
	   21 B(5,7,9)        =    112.837559    -0.000029   -16.679015    96.158544
	   22 B(5,7,10)       =    108.410620    -0.000033    20.857514   129.268134
	   23 B(7,8,11)       =    109.168610     0.000042    -1.214882   107.953728
	   24 B(7,8,12)       =    112.109091    -0.000021    -1.454865   110.654226
	   25 B(7,8,13)       =    112.089919    -0.000017    21.569715   133.659634
	   26 B(8,7,9)        =    107.983024     0.000009    20.624822   128.607846
	   27 B(8,7,10)       =    107.440753    -0.000003    -1.658136   105.782618
	   28 B(9,7,10)       =    108.710895     0.000005   -21.633380    87.077514
	   29 B(11,8,12)      =    107.696071    -0.000007    20.464802   128.160872
	   30 B(11,8,13)      =    107.922485    -0.000009   -16.423809    91.498675
	   31 B(12,8,13)      =    107.675722     0.000012   -21.611090    86.064632
	   32 D(1,2,3,5)      =    143.508197     0.000196     9.994820   153.503018
	   33 *D(1,2,3,6)     =    -50.000020    -0.000000    -0.000000   -50.000020
	   34 D(2,3,5,7)      =    176.450885    -0.000126    -8.748319   167.702566
	   35 D(3,5,7,8)      =     90.877945     0.000009    -0.282876    90.595070
	   36 D(3,5,7,9)      =    -30.701335     0.000002   -14.122282   -44.823617
	   37 D(3,5,7,10)     =   -151.167867     0.000010    15.084825  -136.083043
	   38 D(4,2,3,5)      =    -27.222117     0.000458    18.219917    -9.002200
	   39 D(4,2,3,6)      =    139.269666     0.000262     8.225097   147.494763
	   40 D(5,7,8,11)     =    178.305890    -0.000001     0.735263   179.041153
	   41 D(5,7,8,12)     =    -62.447454     0.000000    26.200304   -36.247150
	   42 D(5,7,8,13)     =     58.788591    -0.000002     9.935657    68.724249
	   43 D(6,3,5,7)      =      9.062992     0.000039     2.970554    12.033546
	   44 D(9,7,8,11)     =    -57.329167    -0.000000    -6.890248   -64.219415
	   45 D(9,7,8,12)     =     61.917489     0.000001    18.574793    80.492282
	   46 D(9,7,8,13)     =   -176.846466    -0.000002     2.310147  -174.536319
	   47 D(10,7,8,11)    =     59.767705     0.000002   -24.902459    34.865246
	   48 D(10,7,8,12)    =    179.014361     0.000003     0.562582   179.576943
	   49 D(10,7,8,13)    =    -59.749594     0.000001   -15.702064   -75.451659
	   50 R(3,12)         =      3.072976     0.000699     2.467923     5.540899
	 ---------------------------------------------------------------------------
	Successfully symmetrized geometry.

  ==> Convergence Check <==

  Measures of convergence in internal coordinates in au.
  Criteria marked as inactive (o), active & met (*), and active & unmet ( ).
  ---------------------------------------------------------------------------------------------
   Step     Total Energy     Delta E     MAX Force     RMS Force      MAX Disp      RMS Disp   
  ---------------------------------------------------------------------------------------------
    Convergence Criteria    1.00e-06 *    3.00e-04 *             o    1.20e-03 *             o
  ---------------------------------------------------------------------------------------------
      2    -527.70948430   -2.17e-02      2.62e-02      5.21e-03 o    4.66e+00      1.01e+00 o  ~
  ---------------------------------------------------------------------------------------------

	Writing optimization data to binary file.
	Structure for next step:
	Cartesian Geometry (in Angstrom)
	    H    -4.2171713406   4.2306342018  -1.7256911765
	    C    -3.9353565916   2.8463664607  -0.3671179252
	    C    -2.5668597819   1.0529825442  -0.2500950516
	    H    -4.1835970330   2.8984753305   0.8030615875
	    O    -1.4316540534  -0.4000801950   1.0527172268
	    H    -2.7682010250   0.5525974627  -1.2544481844
	    C    -0.2569561550  -2.4342372911   1.0326126220
	    C     2.4726331207  -2.0027756789   0.5501965646
	    H    -1.1461188869  -3.1069115472   0.2803239761
	    H    -0.3367834467  -3.7890686060   2.1766124717
	    F     3.5103012234  -4.0056369525   0.5863534052
	    F     2.7514347592  -0.3837194723  -0.8443936818
	    F     3.7198796267  -1.2905180280   1.4468724004
			--------------------------
			 OPTKING Finished Execution 
			--------------------------

    Structure for next step:
    Molecular point group: c1
    Full point group: C1

    Geometry (in Angstrom), charge = 0, multiplicity = 1:

    H           -5.030841407988     5.182539307951    -2.132685882333
    C           -4.749026658968     3.798271566817    -0.774112631024
    C           -3.380529849289     2.004887650335    -0.657089757450
    H           -4.997267100412     3.850380436677     0.396066881610
    O           -2.245324120770     0.551824911169     0.645722520923
    H           -3.581871092457     1.504502568866    -1.661442890208
    C           -1.070626222464    -1.482332184916     0.625617916181
    C            1.658963053310    -1.050870572721     0.143201858708
    H           -1.959788954334    -2.155006441019    -0.126670729779
    H           -1.150453514108    -2.837163499875     1.769617765831
    F            2.696631155949    -3.053731846364     0.179358699348
    F            1.937764691820     0.568185633868    -1.251388387663
    F            2.906209559328    -0.338612921875     1.039877694541

gradient() will perform analytic gradient computation.

*** tstart() called on cx1-27-4-2
*** at Sat Sep 10 18:09:34 2016


         ---------------------------------------------------------
                                   SCF
            by Justin Turney, Rob Parrish, and Andy Simmonett
                              RHF Reference
                        4 Threads,   2000 MiB Core
         ---------------------------------------------------------

  ==> Geometry <==

    Molecular point group: c1
    Full point group: C1

    Geometry (in Angstrom), charge = 0, multiplicity = 1:

       Center              X                  Y                   Z               Mass       
    ------------   -----------------  -----------------  -----------------  -----------------
           H         -5.030841407988     5.182539307951    -2.132685882333     1.007825032070
           C         -4.749026658968     3.798271566817    -0.774112631024    12.000000000000
           C         -3.380529849289     2.004887650335    -0.657089757450    12.000000000000
           H         -4.997267100412     3.850380436677     0.396066881610     1.007825032070
           O         -2.245324120770     0.551824911169     0.645722520923    15.994914619560
           H         -3.581871092457     1.504502568866    -1.661442890208     1.007825032070
           C         -1.070626222464    -1.482332184916     0.625617916181    12.000000000000
           C          1.658963053310    -1.050870572721     0.143201858708    12.000000000000
           H         -1.959788954334    -2.155006441019    -0.126670729779     1.007825032070
           H         -1.150453514108    -2.837163499875     1.769617765831     1.007825032070
           F          2.696631155949    -3.053731846364     0.179358699348    18.998403224000
           F          1.937764691820     0.568185633868    -1.251388387663    18.998403224000
           F          2.906209559328    -0.338612921875     1.039877694541    18.998403224000

  Running in c1 symmetry.

  Rotational constants: A =      0.06808  B =      0.01226  C =      0.01114 [cm^-1]
  Rotational constants: A =   2040.93770  B =    367.51051  C =    333.99329 [MHz]
  Nuclear repulsion =  251.089275136320538

  Charge       = 0
  Multiplicity = 1
  Electrons    = 64
  Nalpha       = 32
  Nbeta        = 32

  ==> Algorithm <==

  SCF Algorithm Type is DF.
  DIIS enabled.
  MOM disabled.
  Fractional occupation disabled.
  Guess Type is READ.
  Energy threshold   = 1.00e-08
  Density threshold  = 1.00e-08
  Integral threshold = 0.00e+00

  ==> Primary Basis <==

  Basis Set: CC-PVTZ
    Number of shells: 110
    Number of basis function: 310
    Number of Cartesian functions: 355
    Spherical Harmonics?: true
    Max angular momentum: 3

  ==> Pre-Iterations <==

   -------------------------------------------------------
    Irrep   Nso     Nmo     Nalpha   Nbeta   Ndocc  Nsocc
   -------------------------------------------------------
     A        310     310       0       0       0       0
   -------------------------------------------------------
    Total     310     310      32      32      32       0
   -------------------------------------------------------

  ==> Integral Setup <==

  ==> DFJK: Density-Fitted J/K Matrices <==

    J tasked:                  Yes
    K tasked:                  Yes
    wK tasked:                  No
    OpenMP threads:              4
    Integrals threads:           4
    Memory (MB):              1430
    Algorithm:                Core
    Integral Cache:           NONE
    Schwarz Cutoff:          1E-12
    Fitting Condition:       1E-12

   => Auxiliary Basis Set <=

  Basis Set: 
    Number of shells: 250
    Number of basis function: 782
    Number of Cartesian functions: 943
    Spherical Harmonics?: true
    Max angular momentum: 4

  Minimum eigenvalue in the overlap matrix is 2.5383896605E-03.
  Using Symmetric Orthogonalization.
  SCF Guess: Reading in previously saved MOs, projecting if necessary.

  Using orbitals from previous SCF, no projection.
  Recomputing DOCC and SOCC from number of alpha and beta electrons from previous calculation.
              A 
    DOCC [    32 ]

  ==> Iterations <==

                           Total Energy        Delta E     RMS |[F,P]|

   @DF-RHF iter   0:  -518.64324721439471   -5.18643e+02   7.17716e-03 
   @DF-RHF iter   1:  -519.27752920526200   -6.34282e-01   8.27792e-03 
   @DF-RHF iter   2:  -382.32008584586595    1.36957e+02   2.77233e-02 DIIS
   @DF-RHF iter   3:  -517.66281753243516   -1.35343e+02   8.98633e-03 DIIS
   @DF-RHF iter   4:  -524.67731355296291   -7.01450e+00   3.95664e-03 DIIS
   @DF-RHF iter   5:  -524.66904722617346    8.26633e-03   4.47488e-03 DIIS
   @DF-RHF iter   6:  -525.73763944303107   -1.06859e+00   2.36877e-03 DIIS
   @DF-RHF iter   7:  -526.10255092955697   -3.64911e-01   1.20176e-03 DIIS
   @DF-RHF iter   8:  -526.20685991500204   -1.04309e-01   5.03739e-04 DIIS
   @DF-RHF iter   9:  -526.24539224396585   -3.85323e-02   3.05270e-04 DIIS
   @DF-RHF iter  10:  -526.26533137123647   -1.99391e-02   1.41510e-04 DIIS
   @DF-RHF iter  11:  -526.27153486308339   -6.20349e-03   7.80621e-05 DIIS
   @DF-RHF iter  12:  -526.27341499375166   -1.88013e-03   5.29421e-05 DIIS
   @DF-RHF iter  13:  -526.27462245164793   -1.20746e-03   4.00283e-05 DIIS
   @DF-RHF iter  14:  -526.27567269379324   -1.05024e-03   3.26102e-05 DIIS
   @DF-RHF iter  15:  -526.27627161669000   -5.98923e-04   2.80568e-05 DIIS
   @DF-RHF iter  16:  -526.27696719705853   -6.95580e-04   2.43323e-05 DIIS
   @DF-RHF iter  17:  -526.27760944615329   -6.42249e-04   2.05296e-05 DIIS
   @DF-RHF iter  18:  -526.27833912030474   -7.29674e-04   1.63105e-05 DIIS
   @DF-RHF iter  19:  -526.27872348934443   -3.84369e-04   1.21674e-05 DIIS
   @DF-RHF iter  20:  -526.27901196028904   -2.88471e-04   8.56214e-06 DIIS
   @DF-RHF iter  21:  -526.27911055191726   -9.85916e-05   5.26888e-06 DIIS
   @DF-RHF iter  22:  -526.27913596932524   -2.54174e-05   2.93042e-06 DIIS
   @DF-RHF iter  23:  -526.27914398588155   -8.01656e-06   1.40164e-06 DIIS
   @DF-RHF iter  24:  -526.27914472849909   -7.42618e-07   8.88148e-07 DIIS
   @DF-RHF iter  25:  -526.27914502936756   -3.00868e-07   5.32176e-07 DIIS
   @DF-RHF iter  26:  -526.27914513829683   -1.08929e-07   4.04269e-07 DIIS
   @DF-RHF iter  27:  -526.27914520091497   -6.26181e-08   3.49500e-07 DIIS
   @DF-RHF iter  28:  -526.27914525023948   -4.93245e-08   3.18445e-07 DIIS
   @DF-RHF iter  29:  -526.27914533500950   -8.47700e-08   2.73273e-07 DIIS
   @DF-RHF iter  30:  -526.27914546988393   -1.34874e-07   2.05912e-07 DIIS
   @DF-RHF iter  31:  -526.27914556964311   -9.97592e-08   1.26351e-07 DIIS
   @DF-RHF iter  32:  -526.27914559571298   -2.60699e-08   7.15996e-08 DIIS
   @DF-RHF iter  33:  -526.27914559840929   -2.69631e-09   5.25816e-08 DIIS
   @DF-RHF iter  34:  -526.27914559935414   -9.44851e-10   4.41501e-08 DIIS
   @DF-RHF iter  35:  -526.27914560093586   -1.58172e-09   3.70148e-08 DIIS
   @DF-RHF iter  36:  -526.27914560229772   -1.36185e-09   3.07489e-08 DIIS
   @DF-RHF iter  37:  -526.27914560396880   -1.67108e-09   2.29946e-08 DIIS
   @DF-RHF iter  38:  -526.27914560504337   -1.07457e-09   1.48470e-08 DIIS
   @DF-RHF iter  39:  -526.27914560541319   -3.69823e-10   1.03957e-08 DIIS
   @DF-RHF iter  40:  -526.27914560549880   -8.56062e-11   7.95329e-09 DIIS

  ==> Post-Iterations <==

    Orbital Energies (a.u.)
    -----------------------

    Doubly Occupied:                                                      

       1A    -26.228158     2A    -26.068564     3A    -26.038728  
       4A    -20.718261     5A    -11.583856     6A    -11.552469  
       7A    -11.523709     8A    -11.424395     9A     -1.461853  
      10A     -1.308729    11A     -1.286932    12A     -1.278945  
      13A     -1.046634    14A     -0.971447    15A     -0.833553  
      16A     -0.778503    17A     -0.667176    18A     -0.650018  
      19A     -0.601946    20A     -0.595854    21A     -0.560448  
      22A     -0.556486    23A     -0.517123    24A     -0.511902  
      25A     -0.473147    26A     -0.418858    27A     -0.415128  
      28A     -0.414567    29A     -0.395784    30A     -0.387904  
      31A     -0.382436    32A     -0.339289  

    Virtual:                                                              

      33A     -0.151816    34A     -0.144394    35A     -0.089229  
      36A     -0.059989    37A     -0.009160    38A      0.047061  
      39A      0.052028    40A      0.077149    41A      0.078622  
      42A      0.095732    43A      0.122248    44A      0.143413  
      45A      0.195746    46A      0.250332    47A      0.270907  
      48A      0.307596    49A      0.338851    50A      0.348553  
      51A      0.378611    52A      0.387665    53A      0.403054  
      54A      0.421278    55A      0.453200    56A      0.459905  
      57A      0.477524    58A      0.499642    59A      0.502392  
      60A      0.506763    61A      0.540119    62A      0.556757  
      63A      0.566565    64A      0.571637    65A      0.580650  
      66A      0.586424    67A      0.596837    68A      0.636717  
      69A      0.646010    70A      0.690122    71A      0.701663  
      72A      0.712090    73A      0.747381    74A      0.772829  
      75A      0.798073    76A      0.816139    77A      0.833878  
      78A      0.852175    79A      0.867160    80A      0.889854  
      81A      0.917874    82A      0.939580    83A      0.953629  
      84A      0.972236    85A      0.976204    86A      0.985013  
      87A      0.993593    88A      1.016966    89A      1.031812  
      90A      1.046272    91A      1.058136    92A      1.096859  
      93A      1.105587    94A      1.124612    95A      1.130773  
      96A      1.140808    97A      1.156041    98A      1.172084  
      99A      1.178426   100A      1.197364   101A      1.206991  
     102A      1.218999   103A      1.226273   104A      1.246656  
     105A      1.255179   106A      1.280013   107A      1.317030  
     108A      1.334855   109A      1.344433   110A      1.384196  
     111A      1.416603   112A      1.451255   113A      1.473555  
     114A      1.482134   115A      1.699647   116A      1.709266  
     117A      1.751883   118A      1.781302   119A      1.795802  
     120A      1.840910   121A      1.936485   122A      2.012954  
     123A      2.073821   124A      2.099365   125A      2.158085  
     126A      2.165254   127A      2.201169   128A      2.244208  
     129A      2.260639   130A      2.296652   131A      2.322115  
     132A      2.342143   133A      2.346942   134A      2.348677  
     135A      2.358247   136A      2.392006   137A      2.394304  
     138A      2.428005   139A      2.452596   140A      2.463855  
     141A      2.472979   142A      2.474276   143A      2.482208  
     144A      2.495774   145A      2.501632   146A      2.503602  
     147A      2.524658   148A      2.529118   149A      2.535308  
     150A      2.584957   151A      2.603745   152A      2.626412  
     153A      2.650359   154A      2.668801   155A      2.700410  
     156A      2.712785   157A      2.747360   158A      2.759360  
     159A      2.760778   160A      2.786467   161A      2.798847  
     162A      2.839486   163A      2.843234   164A      2.852713  
     165A      2.855289   166A      2.868641   167A      2.883276  
     168A      2.890062   169A      2.917445   170A      2.937082  
     171A      2.963648   172A      3.002711   173A      3.004487  
     174A      3.008173   175A      3.041259   176A      3.042386  
     177A      3.071222   178A      3.088077   179A      3.126266  
     180A      3.148114   181A      3.181295   182A      3.207782  
     183A      3.212854   184A      3.237658   185A      3.256262  
     186A      3.275066   187A      3.286300   188A      3.320076  
     189A      3.330785   190A      3.336726   191A      3.339451  
     192A      3.380778   193A      3.388860   194A      3.408597  
     195A      3.418498   196A      3.433542   197A      3.438738  
     198A      3.449159   199A      3.465973   200A      3.469726  
     201A      3.478908   202A      3.496701   203A      3.536173  
     204A      3.551002   205A      3.595723   206A      3.601911  
     207A      3.604760   208A      3.616107   209A      3.631486  
     210A      3.646200   211A      3.674655   212A      3.758795  
     213A      3.760793   214A      3.769334   215A      3.781798  
     216A      3.806626   217A      3.814323   218A      3.833783  
     219A      3.860684   220A      3.930410   221A      3.941050  
     222A      3.952273   223A      4.007622   224A      4.046086  
     225A      4.049785   226A      4.080946   227A      4.104993  
     228A      4.113931   229A      4.135113   230A      4.227929  
     231A      4.298089   232A      4.358103   233A      4.383045  
     234A      4.497322   235A      4.563908   236A      4.599333  
     237A      4.658480   238A      4.699610   239A      4.706538  
     240A      4.750481   241A      4.757461   242A      4.781160  
     243A      4.810794   244A      4.833857   245A      4.872200  
     246A      4.915127   247A      5.207745   248A      5.231965  
     249A      5.326594   250A      5.365357   251A      5.373510  
     252A      5.383572   253A      5.418646   254A      5.442763  
     255A      5.465476   256A      5.471510   257A      5.486874  
     258A      5.507120   259A      5.531715   260A      5.536636  
     261A      5.557139   262A      5.754414   263A      6.635226  
     264A      6.647569   265A      6.673165   266A      6.761145  
     267A      6.826382   268A      6.956571   269A      7.490280  
     270A      7.490966   271A      7.504691   272A      7.505010  
     273A      7.556313   274A      7.557653   275A      7.618756  
     276A      7.620038   277A      7.620770   278A      7.624854  
     279A      7.632617   280A      7.632714   281A      7.636205  
     282A      7.647873   283A      7.648392   284A      7.649530  
     285A      7.650494   286A      7.654527   287A      7.660525  
     288A      7.660559   289A      7.666415   290A      7.854746  
     291A      8.419473   292A      8.666691   293A      8.969730  
     294A      8.970897   295A      9.090793   296A      9.096157  
     297A      9.103506   298A      9.112972   299A      9.120967  
     300A      9.125010   301A      9.127632   302A      9.136991  
     303A      9.170235   304A      9.191493   305A      9.207456  
     306A      9.223756   307A      9.437180   308A     10.588629  
     309A     10.870455   310A     11.456627  

    Final Occupation by Irrep:
              A 
    DOCC [    32 ]

  Energy converged.

  @DF-RHF Final Energy:  -526.27914560549880

   => Energetics <=

    Nuclear Repulsion Energy =            251.0892751363205377
    One-Electron Energy =               -1230.7512444080575733
    Two-Electron Energy =                 453.3828236662376412
    DFT Exchange-Correlation Energy =       0.0000000000000000
[...]
	    4 R(3,5)          =      3.399079    -0.034400     0.536856     3.935935
	    5 R(3,6)          =      2.433118    -0.437177     0.106954     2.540072
	    6 R(5,7)          =      1.670221    -1.800049     0.326302     1.996523
	    7 R(7,8)          =      4.277521    -0.031198     2.249055     6.526576
	    8 R(7,9)          =      2.402652    -0.428514     0.147133     2.549785
	    9 R(7,10)         =      2.112212    -0.533035     0.610291     2.722503
	   10 R(8,11)         =      2.517825    -0.511058     1.296560     3.814384
	   11 R(8,12)         =      3.315682    -0.215667     1.448701     4.764383
	   12 R(8,13)         =      3.214350    -0.274218     0.067148     3.281498
	   13 B(1,2,3)        =    101.618648    -0.000512     0.005267   101.623915
	   14 B(1,2,4)        =    144.629789     0.000286     0.829730   145.459519
	   15 B(2,3,5)        =    108.775894    -0.001007     6.100148   114.876042
	   16 B(2,3,6)        =    103.532367     0.000463     6.058250   109.590617
	   17 B(3,2,4)        =    109.522744     0.000257     2.049266   111.572010
	   18 B(3,5,7)        =    110.895998     0.000324    13.380258   124.276256
	   19 B(5,3,6)        =    136.843953     0.000316   -12.137001   124.706952
	   20 B(5,7,8)        =     80.849315    -0.000107     2.096482    82.945797
	   21 B(5,7,9)        =    114.660537     0.000330     5.676499   120.337036
	   22 B(5,7,10)       =    114.078773     0.000288     9.474338   123.553111
	   23 B(7,8,11)       =     44.188333    -0.002859     0.287141    44.475474
	   24 B(7,8,12)       =    130.952437     0.000197    13.775512   144.727949
	   25 B(7,8,13)       =    113.290579    -0.000466    -3.118848   110.171731
	   26 B(8,7,9)        =    112.885210    -0.000048    -3.313796   109.571414
	   27 B(8,7,10)       =    108.334466    -0.000759    12.740179   121.074645
	   28 B(9,7,10)       =    119.413382     0.000087   -19.652567    99.760814
	   29 B(11,8,12)      =    126.129889     0.000952    11.450074   137.579963
	   30 B(11,8,13)      =    117.166612     0.000185     0.829650   117.996262
	   31 B(12,8,13)      =    110.403930     0.000354   -13.615272    96.788658
	   32 D(1,2,3,5)      =    159.035739     0.000024     4.742642   163.778382
	   33 *D(1,2,3,6)     =    -50.000020     0.000000    -0.000000   -50.000020
	   34 D(2,3,5,7)      =    143.671580    -0.000044     0.996558   144.668138
	   35 D(3,5,7,8)      =     95.576608     0.000120    -9.967908    85.608699
	   36 D(3,5,7,9)      =    -15.491343     0.000142    -7.482500   -22.973843
	   37 D(3,5,7,10)     =   -158.342060    -0.000084     6.771270  -151.570789
	   38 D(4,2,3,5)      =     -3.937632    -0.000005    -2.563484    -6.501117
	   39 D(4,2,3,6)      =    147.026609    -0.000029    -7.306126   139.720482
	   40 D(5,7,8,11)     =    179.900416     0.000051     0.264427   180.164842
	   41 D(5,7,8,12)     =    -76.963472    -0.000071     9.757252   -67.206221
	   42 D(5,7,8,13)     =     74.217416    -0.000008    -3.907411    70.310004
	   43 D(6,3,5,7)      =      7.293517     0.000048    -3.044596     4.248921
	   44 D(9,7,8,11)     =    -67.099429     0.000124     7.009954   -60.089475
	   45 D(9,7,8,12)     =     36.036682     0.000002    16.502779    52.539462
	   46 D(9,7,8,13)     =   -172.782429     0.000065     2.838116  -169.944313
	   47 D(10,7,8,11)    =     67.444569    -0.000018   -12.425893    55.018676
	   48 D(10,7,8,12)    =    170.580681    -0.000140    -2.933068   167.647613
	   49 D(10,7,8,13)    =    -38.238431    -0.000077   -16.597731   -54.836162
	   50 R(3,12)         =      6.752831    -0.036763     3.404513    10.157344
	 ---------------------------------------------------------------------------
	Successfully symmetrized geometry.

  ==> Convergence Check <==

  Measures of convergence in internal coordinates in au.
  Criteria marked as inactive (o), active & met (*), and active & unmet ( ).
  ---------------------------------------------------------------------------------------------
   Step     Total Energy     Delta E     MAX Force     RMS Force      MAX Disp      RMS Disp   
  ---------------------------------------------------------------------------------------------
    Convergence Criteria    1.00e-06 *    3.00e-04 *             o    1.20e-03 *             o
  ---------------------------------------------------------------------------------------------
     10    -525.62505523   -1.60e-01      2.18e-01      3.94e-02 o    6.43e+00      1.30e+00 o  ~
  ---------------------------------------------------------------------------------------------

	Writing optimization data to binary file.
	Structure for next step:
	Cartesian Geometry (in Angstrom)
	    H     2.5285463571   6.7252025111   0.4727389968
	    C     0.0494501271   5.8109407057   0.7602713922
	    C     0.0250029690   3.8754624166  -0.8796502314
	    H    -1.9168384661   5.8244879965   2.1398001043
	    O    -2.9385630575   1.3312476592  -0.3940254874
	    H     0.9079031261   4.6548556091  -3.1302052973
	    C    -3.8680203521   0.3890993076  -1.8888730497
	    C     1.0372371187  -3.8591204764  -1.1908261441
	    H    -3.8278458444   1.3603710464  -4.2460794413
	    H    -6.4622880874  -0.4280883413  -1.7705351703
	    F    -2.0092523297  -3.5694681914  -3.4677829769
	    F     5.7360830568  -4.4873955888  -1.6656547254
	    F     0.7063646326  -5.5175294977   1.6213667725
			--------------------------
			 OPTKING Finished Execution 
			--------------------------

    Structure for next step:
    Molecular point group: c1
    Full point group: C1

    Geometry (in Angstrom), charge = 0, multiplicity = 1:

    H            2.565788079928     7.865598660914     1.409033487017
    C            0.086691849953     6.951336855474     1.696565882374
    C            0.062244691907     5.015858566362     0.056644258821
    H           -1.879596743255     6.964884146274     3.076094594540
    O           -2.901321334677     2.471643809007     0.542269002780
    H            0.945144848962     5.795251758911    -2.193910807111
    C           -3.830778629280     1.529495457398    -0.952578559523
    C            1.074478841521    -2.718724326612    -0.254531653856
    H           -3.790604121532     2.500767196236    -3.309784951135
    H           -6.425046364529     0.712307808477    -0.834240680058
    F           -1.972010606792    -2.429072041559    -2.531488486731
    F            5.773324779678    -3.346999438965    -0.729360235230
    F            0.743606355429    -4.377133347922     2.557661262730

gradient() will perform analytic gradient computation.

*** tstart() called on cx1-27-4-2
*** at Sat Sep 10 18:11:31 2016


         ---------------------------------------------------------
                                   SCF
            by Justin Turney, Rob Parrish, and Andy Simmonett
                              RHF Reference
                        4 Threads,   2000 MiB Core
         ---------------------------------------------------------

  ==> Geometry <==

    Molecular point group: c1
    Full point group: C1

    Geometry (in Angstrom), charge = 0, multiplicity = 1:

       Center              X                  Y                   Z               Mass       
    ------------   -----------------  -----------------  -----------------  -----------------
           H          2.565788079928     7.865598660914     1.409033487017     1.007825032070
           C          0.086691849953     6.951336855474     1.696565882374    12.000000000000
           C          0.062244691907     5.015858566362     0.056644258821    12.000000000000
           H         -1.879596743255     6.964884146274     3.076094594540     1.007825032070
           O         -2.901321334677     2.471643809007     0.542269002780    15.994914619560
           H          0.945144848962     5.795251758911    -2.193910807111     1.007825032070
           C         -3.830778629280     1.529495457398    -0.952578559523    12.000000000000
           C          1.074478841521    -2.718724326612    -0.254531653856    12.000000000000
           H         -3.790604121532     2.500767196236    -3.309784951135     1.007825032070
           H         -6.425046364529     0.712307808477    -0.834240680058     1.007825032070
           F         -1.972010606792    -2.429072041559    -2.531488486731    18.998403224000
           F          5.773324779678    -3.346999438965    -0.729360235230    18.998403224000
           F          0.743606355429    -4.377133347922     2.557661262730    18.998403224000

  Running in c1 symmetry.

  Rotational constants: A =      0.01442  B =      0.00670  C =      0.00547 [cm^-1]
  Rotational constants: A =    432.38140  B =    200.88346  C =    164.13575 [MHz]
  Nuclear repulsion =  159.833775804351717

  Charge       = 0
  Multiplicity = 1
  Electrons    = 64
  Nalpha       = 32
  Nbeta        = 32

  ==> Algorithm <==

  SCF Algorithm Type is DF.
  DIIS enabled.
  MOM disabled.
  Fractional occupation disabled.
  Guess Type is READ.
  Energy threshold   = 1.00e-08
  Density threshold  = 1.00e-08
  Integral threshold = 0.00e+00

  ==> Primary Basis <==

  Basis Set: CC-PVTZ
    Number of shells: 110
    Number of basis function: 310
    Number of Cartesian functions: 355
    Spherical Harmonics?: true
    Max angular momentum: 3

  ==> Pre-Iterations <==

   -------------------------------------------------------
    Irrep   Nso     Nmo     Nalpha   Nbeta   Ndocc  Nsocc
   -------------------------------------------------------
     A        310     310       0       0       0       0
   -------------------------------------------------------
    Total     310     310      32      32      32       0
   -------------------------------------------------------

  ==> Integral Setup <==

  ==> DFJK: Density-Fitted J/K Matrices <==

    J tasked:                  Yes
    K tasked:                  Yes
    wK tasked:                  No
    OpenMP threads:              4
    Integrals threads:           4
    Memory (MB):              1430
    Algorithm:                Core
    Integral Cache:           NONE
    Schwarz Cutoff:          1E-12
    Fitting Condition:       1E-12

   => Auxiliary Basis Set <=

  Basis Set: 
    Number of shells: 250
    Number of basis function: 782
    Number of Cartesian functions: 943
    Spherical Harmonics?: true
    Max angular momentum: 4

  Minimum eigenvalue in the overlap matrix is 1.8269858426E-02.
  Using Symmetric Orthogonalization.
  SCF Guess: Reading in previously saved MOs, projecting if necessary.

  Using orbitals from previous SCF, no projection.
  Recomputing DOCC and SOCC from number of alpha and beta electrons from previous calculation.
              A 
    DOCC [    32 ]

  ==> Iterations <==

                           Total Energy        Delta E     RMS |[F,P]|

   @DF-RHF iter   0:  -522.42643643229746   -5.22426e+02   4.21277e-03 
   @DF-RHF iter   1:  -500.28906910042429    2.21374e+01   9.78713e-03 
   @DF-RHF iter   2:  -338.86931594205163    1.61420e+02   4.05522e-02 DIIS
   @DF-RHF iter   3:  -457.59355930602146   -1.18724e+02   2.09436e-02 DIIS
   @DF-RHF iter   4:  -483.30316313811431   -2.57096e+01   1.55503e-02 DIIS
   @DF-RHF iter   5:  -483.61203053373322   -3.08867e-01   1.39015e-02 DIIS
   @DF-RHF iter   6:  -515.37767794013280   -3.17656e+01   7.66815e-03 DIIS
   @DF-RHF iter   7:  -502.64835879547513    1.27293e+01   9.06387e-03 DIIS
   @DF-RHF iter   8:  -517.24888766153117   -1.46005e+01   6.94182e-03 DIIS
   @DF-RHF iter   9:  -519.65673100528454   -2.40784e+00   6.76068e-03 DIIS
   @DF-RHF iter  10:  -510.27881899688464    9.37791e+00   7.23934e-03 DIIS
   @DF-RHF iter  11:  -512.31051126239413   -2.03169e+00   8.03077e-03 DIIS
   @DF-RHF iter  12:  -512.30451991614848    5.99135e-03   7.87884e-03 DIIS
   @DF-RHF iter  13:  -517.10876337002856   -4.80424e+00   6.76835e-03 DIIS
   @DF-RHF iter  14:  -522.74785994557089   -5.63910e+00   5.15893e-03 DIIS
   @DF-RHF iter  15:  -520.23267236331185    2.51519e+00   4.58410e-03 DIIS
   @DF-RHF iter  16:  -521.83708031372885   -1.60441e+00   3.59220e-03 DIIS
   @DF-RHF iter  17:  -519.26886973116666    2.56821e+00   5.47617e-03 DIIS
   @DF-RHF iter  18:  -519.67735623634917   -4.08487e-01   5.22198e-03 DIIS
   @DF-RHF iter  19:  -521.80161799930670   -2.12426e+00   4.33354e-03 DIIS
   @DF-RHF iter  20:  -524.58156606314549   -2.77995e+00   2.21398e-03 DIIS
   @DF-RHF iter  21:  -524.63465035427168   -5.30843e-02   1.83935e-03 DIIS
   @DF-RHF iter  22:  -524.75163659591101   -1.16986e-01   1.66686e-03 DIIS
   @DF-RHF iter  23:  -511.86544699380306    1.28862e+01   5.62315e-03 DIIS
   @DF-RHF iter  24:  -524.78774665508024   -1.29223e+01   1.72450e-03 DIIS
   @DF-RHF iter  25:  -512.00334166737161    1.27844e+01   5.53089e-03 DIIS
   @DF-RHF iter  26:  -524.84750930696987   -1.28442e+01   1.56044e-03 DIIS
   @DF-RHF iter  27:  -513.52070004014308    1.13268e+01   5.60173e-03 DIIS
   @DF-RHF iter  28:  -524.86901583111353   -1.13483e+01   1.44784e-03 DIIS
   @DF-RHF iter  29:  -513.65937134103706    1.12096e+01   5.58404e-03 DIIS
   @DF-RHF iter  30:  -524.87216578413302   -1.12128e+01   1.46998e-03 DIIS
   @DF-RHF iter  31:  -514.15082912098899    1.07213e+01   5.44823e-03 DIIS
   @DF-RHF iter  32:  -524.87610327578386   -1.07253e+01   1.44511e-03 DIIS
   @DF-RHF iter  33:  -514.14912783017928    1.07270e+01   5.46019e-03 DIIS
   @DF-RHF iter  34:  -524.86742725016143   -1.07183e+01   1.51002e-03 DIIS
   @DF-RHF iter  35:  -514.15171266244784    1.07157e+01   5.47814e-03 DIIS
   @DF-RHF iter  36:  -524.86165459363167   -1.07099e+01   1.54257e-03 DIIS
   @DF-RHF iter  37:  -513.93994299613303    1.09217e+01   5.46900e-03 DIIS
   @DF-RHF iter  38:  -524.84570701424718   -1.09058e+01   1.72523e-03 DIIS
   @DF-RHF iter  39:  -513.95541650378266    1.08903e+01   5.46560e-03 DIIS
   @DF-RHF iter  40:  -524.84302003348739   -1.08876e+01   1.71497e-03 DIIS
   @DF-RHF iter  41:  -514.19788394921636    1.06451e+01   5.32010e-03 DIIS
   @DF-RHF iter  42:  -524.83533437610436   -1.06375e+01   1.77437e-03 DIIS
   @DF-RHF iter  43:  -513.93620656268081    1.08991e+01   5.43828e-03 DIIS
   @DF-RHF iter  44:  -524.83619338603876   -1.09000e+01   1.78628e-03 DIIS
   @DF-RHF iter  45:  -514.14709374878544    1.06891e+01   5.42202e-03 DIIS
   @DF-RHF iter  46:  -524.83616771923857   -1.06891e+01   1.77075e-03 DIIS
   @DF-RHF iter  47:  -513.94625954019489    1.08899e+01   5.44511e-03 DIIS
   @DF-RHF iter  48:  -524.83548010584286   -1.08892e+01   1.77503e-03 DIIS
   @DF-RHF iter  49:  -514.20541374288928    1.06301e+01   5.36447e-03 DIIS
   @DF-RHF iter  50:  -524.83613055242745   -1.06307e+01   1.76187e-03 DIIS
   @DF-RHF iter  51:  -513.94327521914920    1.08929e+01   5.44134e-03 DIIS
   @DF-RHF iter  52:  -524.83641703155547   -1.08931e+01   1.78386e-03 DIIS
   @DF-RHF iter  53:  -514.16020709691793    1.06762e+01   5.40866e-03 DIIS
   @DF-RHF iter  54:  -524.83623506596098   -1.06760e+01   1.77096e-03 DIIS
   @DF-RHF iter  55:  -513.94925343332454    1.08870e+01   5.43984e-03 DIIS
   @DF-RHF iter  56:  -524.83547738876905   -1.08862e+01   1.77531e-03 DIIS
   @DF-RHF iter  57:  -514.20400826870969    1.06315e+01   5.36437e-03 DIIS
   @DF-RHF iter  58:  -524.83603779372584   -1.06320e+01   1.76268e-03 DIIS
   @DF-RHF iter  59:  -513.94212266715431    1.08939e+01   5.44273e-03 DIIS
   @DF-RHF iter  60:  -524.83643715432015   -1.08943e+01   1.78358e-03 DIIS
   @DF-RHF iter  61:  -514.15953876158324    1.06769e+01   5.40979e-03 DIIS
   @DF-RHF iter  62:  -524.83624436736261   -1.06767e+01   1.77067e-03 DIIS
   @DF-RHF iter  63:  -513.94909133487840    1.08872e+01   5.44012e-03 DIIS
   @DF-RHF iter  64:  -524.83546543196292   -1.08864e+01   1.77543e-03 DIIS
   @DF-RHF iter  65:  -514.20411418062190    1.06314e+01   5.36423e-03 DIIS
   @DF-RHF iter  66:  -524.83603332506186   -1.06319e+01   1.76273e-03 DIIS
   @DF-RHF iter  67:  -513.94217663449456    1.08939e+01   5.44270e-03 DIIS
   @DF-RHF iter  68:  -524.83643796547938   -1.08943e+01   1.78356e-03 DIIS
   @DF-RHF iter  69:  -514.15955608896661    1.06769e+01   5.40979e-03 DIIS
   @DF-RHF iter  70:  -524.83624519156911   -1.06767e+01   1.77066e-03 DIIS
   @DF-RHF iter  71:  -513.94909349067916    1.08872e+01   5.44010e-03 DIIS
   @DF-RHF iter  72:  -524.83546530532760   -1.08864e+01   1.77543e-03 DIIS
   @DF-RHF iter  73:  -514.20411746338038    1.06313e+01   5.36421e-03 DIIS
   @DF-RHF iter  74:  -524.83603257012464   -1.06319e+01   1.76274e-03 DIIS
   @DF-RHF iter  75:  -513.94217595218390    1.08939e+01   5.44270e-03 DIIS
   @DF-RHF iter  76:  -524.83643802606537   -1.08943e+01   1.78356e-03 DIIS
   @DF-RHF iter  77:  -514.15955409242565    1.06769e+01   5.40980e-03 DIIS
   @DF-RHF iter  78:  -524.83624527591974   -1.06767e+01   1.77066e-03 DIIS
   @DF-RHF iter  79:  -513.94909296449748    1.08872e+01   5.44010e-03 DIIS
   @DF-RHF iter  80:  -524.83546526197802   -1.08864e+01   1.77543e-03 DIIS
   @DF-RHF iter  81:  -514.20411859889259    1.06313e+01   5.36421e-03 DIIS
   @DF-RHF iter  82:  -524.83603250751094   -1.06319e+01   1.76274e-03 DIIS
   @DF-RHF iter  83:  -513.94217656802584    1.08939e+01   5.44270e-03 DIIS
   @DF-RHF iter  84:  -524.83643803376390   -1.08943e+01   1.78356e-03 DIIS
   @DF-RHF iter  85:  -514.15955420228931    1.06769e+01   5.40980e-03 DIIS
   @DF-RHF iter  86:  -524.83624528457960   -1.06767e+01   1.77066e-03 DIIS
   @DF-RHF iter  87:  -513.94909298326070    1.08872e+01   5.44010e-03 DIIS
   @DF-RHF iter  88:  -524.83546526064583   -1.08864e+01   1.77543e-03 DIIS
   @DF-RHF iter  89:  -514.20411867130827    1.06313e+01   5.36421e-03 DIIS
   @DF-RHF iter  90:  -524.83603249971497   -1.06319e+01   1.76274e-03 DIIS
   @DF-RHF iter  91:  -513.94217658924094    1.08939e+01   5.44270e-03 DIIS
   @DF-RHF iter  92:  -524.83643803477798   -1.08943e+01   1.78356e-03 DIIS
   @DF-RHF iter  93:  -514.15955419212901    1.06769e+01   5.40980e-03 DIIS
   @DF-RHF iter  94:  -524.83624528559619   -1.06767e+01   1.77066e-03 DIIS
   @DF-RHF iter  95:  -513.94909298128130    1.08872e+01   5.44010e-03 DIIS
   @DF-RHF iter  96:  -524.83546526019188   -1.08864e+01   1.77543e-03 DIIS
   @DF-RHF iter  97:  -514.20411868264750    1.06313e+01   5.36421e-03 DIIS
   @DF-RHF iter  98:  -524.83603249894441   -1.06319e+01   1.76274e-03 DIIS
   @DF-RHF iter  99:  -513.94217659407570    1.08939e+01   5.44270e-03 DIIS
   @DF-RHF iter 100:  -524.83643803495272   -1.08943e+01   1.78356e-03 DIIS

  ==> Post-Iterations <==

  Failed to converge.
Iterations did not converge.An error has occurred python-side. Traceback (most recent call last):

  File "<string>", line 47, in <module>

  File "/export131/home/mjharvey/miniconda3/share/psi4/python/driver.py", line 1026, in optimize
    G, wfn = gradient(lowername, return_wfn=True, molecule=moleculeclone, **kwargs)

  File "/export131/home/mjharvey/miniconda3/share/psi4/python/driver.py", line 592, in gradient
    wfn = procedures['gradient'][lowername](lowername, molecule=molecule, **kwargs)

  File "/export131/home/mjharvey/miniconda3/share/psi4/python/procedures/proc.py", line 1705, in run_scf_gradient
    ref_wfn = run_scf(name, **kwargs)

  File "/export131/home/mjharvey/miniconda3/share/psi4/python/procedures/proc.py", line 1689, in run_scf
    scf_wfn = scf_helper(name, **kwargs)

  File "/export131/home/mjharvey/miniconda3/share/psi4/python/procedures/proc.py", line 1170, in scf_helper
    scf_wfn = psi4.scf(ref_wfn, precallback, postcallback)

RuntimeError: 
Fatal Error: Iterations did not converge.
Error occurred in file: /scratch/cdsgroup/conda-builds/work/src/lib/libparallel/process.cc on line: 207
The most recent 5 function calls were:

psi::PsiException::PsiException(std::string, char const*, int)
psi::die_if_not_converged()
psi::scf::HF::finalize_E()
psi::scf::HF::compute_energy()
psi::scf::scf(boost::shared_ptr<psi::Wavefunction>, psi::Options&, _object*, _object*)



