    -----------------------------------------------------------------------
          Psi4: An Open-Source Ab Initio Electronic Structure Package
                              Psi4 1.0.54 Driver

                          Git: Rev {master} 8d4cec3 dirty

    J. M. Turney, A. C. Simmonett, R. M. Parrish, E. G. Hohenstein,
    F. A. Evangelista, J. T. Fermann, B. J. Mintz, L. A. Burns, J. J. Wilke,
    M. L. Abrams, N. J. Russ, M. L. Leininger, C. L. Janssen, E. T. Seidl,
    W. D. Allen, H. F. Schaefer, R. A. King, E. F. Valeev, C. D. Sherrill,
    and T. D. Crawford, WIREs Comput. Mol. Sci. 2, 556-565 (2012)
    (doi: 10.1002/wcms.93)

                         Additional Contributions by
    A. E. DePrince, U. Bozkaya, A. Yu. Sokolov, D. G. A. Smith, R. Di Remigio,
    R. M. Richard, J. F. Gonthier, H. R. McAlexander, M. Saitow, and
    B. P. Pritchard
    -----------------------------------------------------------------------


    Psi4 started on: Sat Sep 10 16:47:11 2016

    Process ID:  32081
    PSI4DATADIR: /export131/home/mjharvey/miniconda3/share/psi4
    Memory level set to 256.000 MB

  ==> Input File <==

--------------------------------------------------------------------------
set {
	reference rhf
	basis cc-pvtz
}


set_num_threads( 4 )
memory 2 gb

molecule MOL {
0 1

H	 -0.000105	 1.988529	 0.748933
O	 -0.000098	 1.879786	 -0.188206
C	 -0.000014	 0.545691	 -0.532416
C	 -1.286000	 -0.125171	 -0.046657
C	 1.286016	 -0.125031	 -0.046584
H	 0.000021	 0.481103	 -1.610604
F	 -2.271674	 0.196577	 -0.847772
F	 -1.190868	 -1.430699	 -0.030609
F	 -1.608079	 0.277242	 1.164005
F	 2.317750	 0.468717	 -0.594166
F	 1.336617	 -1.393765	 -0.365123
F	 1.414467	 -0.024806	 1.259108

	symmetry c1
}
set optking {
	frozen_dihedral = ("
		7 4 3 6
	")
}

ee,wfn = optimize('scf', return_wfn=True)
oeprop( wfn, 'DIPOLE', 'QUADRUPOLE', 'MULLIKEN_CHARGES')
f=open( 'psi4out.xyz', 'w' )
f.write( "12  " )
f.write( str(ee) + "\n" )
f.write( MOL.save_string_xyz() )
f.close()
--------------------------------------------------------------------------

  Memory set to   2.000 GiB by Python script.
gradient() will perform analytic gradient computation.

*** tstart() called on cx1-27-4-2
*** at Sat Sep 10 16:47:11 2016


         ---------------------------------------------------------
                                   SCF
            by Justin Turney, Rob Parrish, and Andy Simmonett
                              RHF Reference
                        4 Threads,   2000 MiB Core
         ---------------------------------------------------------

  ==> Geometry <==

    Molecular point group: c1
    Full point group: C1

    Geometry (in Angstrom), charge = 0, multiplicity = 1:

       Center              X                  Y                   Z               Mass       
    ------------   -----------------  -----------------  -----------------  -----------------
           H          0.000106774388     1.989261494818     0.750505337966     1.007825032070
           O          0.000113774388     1.880518494818    -0.186633662034    15.994914619560
           C          0.000197774388     0.546423494818    -0.530843662034    12.000000000000
           C         -1.285788225612    -0.124438505182    -0.045084662034    12.000000000000
           C          1.286227774388    -0.124298505182    -0.045011662034    12.000000000000
           H          0.000232774388     0.481835494818    -1.609031662034     1.007825032070
           F         -2.271462225612     0.197309494818    -0.846199662034    18.998403224000
           F         -1.190656225612    -1.429966505182    -0.029036662034    18.998403224000
           F         -1.607867225612     0.277974494818     1.165577337966    18.998403224000
           F          2.317961774388     0.469449494818    -0.592593662034    18.998403224000
           F          1.336828774388    -1.393032505182    -0.363550662034    18.998403224000
           F          1.414678774388    -0.024073505182     1.260680337966    18.998403224000

  Running in c1 symmetry.

  Rotational constants: A =      0.07240  B =      0.03558  C =      0.03153 [cm^-1]
  Rotational constants: A =   2170.56909  B =   1066.69874  C =    945.19260 [MHz]
  Nuclear repulsion =  671.012884690617739

  Charge       = 0
  Multiplicity = 1
  Electrons    = 82
  Nalpha       = 41
  Nbeta        = 41

  ==> Algorithm <==

  SCF Algorithm Type is DF.
  DIIS enabled.
  MOM disabled.
  Fractional occupation disabled.
  Guess Type is SAD.
  Energy threshold   = 1.00e-08
  Density threshold  = 1.00e-08
  Integral threshold = 0.00e+00

  ==> Primary Basis <==

  Basis Set: CC-PVTZ
    Number of shells: 112
    Number of basis function: 328
    Number of Cartesian functions: 380
    Spherical Harmonics?: true
    Max angular momentum: 3

  ==> Pre-Iterations <==

   -------------------------------------------------------
    Irrep   Nso     Nmo     Nalpha   Nbeta   Ndocc  Nsocc
   -------------------------------------------------------
     A        328     328       0       0       0       0
   -------------------------------------------------------
    Total     328     328      41      41      41       0
   -------------------------------------------------------

  ==> Integral Setup <==

  ==> DFJK: Density-Fitted J/K Matrices <==

    J tasked:                  Yes
    K tasked:                  Yes
    wK tasked:                  No
    OpenMP threads:              4
    Integrals threads:           4
    Memory (MB):              1430
    Algorithm:                Core
    Integral Cache:           NONE
    Schwarz Cutoff:          1E-12
    Fitting Condition:       1E-12

   => Auxiliary Basis Set <=

  Basis Set: 
    Number of shells: 270
    Number of basis function: 850
    Number of Cartesian functions: 1030
    Spherical Harmonics?: true
    Max angular momentum: 4

  Minimum eigenvalue in the overlap matrix is 7.5805418928E-04.
  Using Symmetric Orthogonalization.
  SCF Guess: Superposition of Atomic Densities via on-the-fly atomic UHF.

  ==> Iterations <==

                           Total Energy        Delta E     RMS |[F,P]|

   @DF-RHF iter   0:  -790.30412755568977   -7.90304e+02   1.68186e-02 
   @DF-RHF iter   1:  -786.19042459778575    4.11370e+00   2.92831e-03 
   @DF-RHF iter   2:  -786.48893661745524   -2.98512e-01   1.66489e-03 DIIS
   @DF-RHF iter   3:  -786.58001708679603   -9.10805e-02   3.20337e-04 DIIS
   @DF-RHF iter   4:  -786.58710587023029   -7.08878e-03   1.02717e-04 DIIS
   @DF-RHF iter   5:  -786.58790207213815   -7.96202e-04   2.47494e-05 DIIS
   @DF-RHF iter   6:  -786.58795961483747   -5.75427e-05   7.47415e-06 DIIS
   @DF-RHF iter   7:  -786.58796329809138   -3.68325e-06   2.60194e-06 DIIS
   @DF-RHF iter   8:  -786.58796373641485   -4.38323e-07   5.90623e-07 DIIS
   @DF-RHF iter   9:  -786.58796376980740   -3.33926e-08   1.64354e-07 DIIS
   @DF-RHF iter  10:  -786.58796377230806   -2.50066e-09   4.77534e-08 DIIS
   @DF-RHF iter  11:  -786.58796377247177   -1.63709e-10   1.31555e-08 DIIS
   @DF-RHF iter  12:  -786.58796377248518   -1.34150e-11   4.70311e-09 DIIS

  ==> Post-Iterations <==

    Orbital Energies (a.u.)
    -----------------------

    Doubly Occupied:                                                      

       1A    -26.359198     2A    -26.359195     3A    -26.356953  
       4A    -26.355589     5A    -26.354610     6A    -26.353431  
       7A    -20.609184     8A    -11.520170     9A    -11.519043  
      10A    -11.351214    11A     -1.772303    12A     -1.766447  
      13A     -1.668034    14A     -1.663869    15A     -1.663488  
      16A     -1.660464    17A     -1.439300    18A     -1.103056  
      19A     -1.002050    20A     -0.945359    21A     -0.871375  
      22A     -0.868680    23A     -0.859413    24A     -0.852518  
      25A     -0.840643    26A     -0.822787    27A     -0.748865  
      28A     -0.734847    29A     -0.731799    30A     -0.726323  
      31A     -0.696033    32A     -0.693403    33A     -0.689328  
      34A     -0.682551    35A     -0.676631    36A     -0.668435  
      37A     -0.663623    38A     -0.656147    39A     -0.626082  
      40A     -0.554218    41A     -0.509584  

    Virtual:                                                              

      42A      0.154728    43A      0.158012    44A      0.262582  
      45A      0.292226    46A      0.297698    47A      0.327177  
      48A      0.341828    49A      0.380024    50A      0.403536  
      51A      0.434420    52A      0.451220    53A      0.465507  
      54A      0.480576    55A      0.496344    56A      0.506119  
      57A      0.510378    58A      0.522863    59A      0.529059  
      60A      0.556656    61A      0.588214    62A      0.600237  
      63A      0.609802    64A      0.650827    65A      0.675130  
      66A      0.724239    67A      0.729131    68A      0.749776  
      69A      0.767516    70A      0.810323    71A      0.833482  
      72A      0.862772    73A      0.882808    74A      0.914842  
      75A      0.931608    76A      0.952713    77A      0.971074  
      78A      0.994528    79A      1.009187    80A      1.019663  
      81A      1.033302    82A      1.061327    83A      1.074655  
      84A      1.085422    85A      1.109144    86A      1.116708  
      87A      1.125870    88A      1.132888    89A      1.139812  
      90A      1.156130    91A      1.186971    92A      1.233624  
      93A      1.248118    94A      1.267066    95A      1.301010  
      96A      1.333441    97A      1.373674    98A      1.389524  
      99A      1.400692   100A      1.415029   101A      1.476265  
     102A      1.493730   103A      1.502004   104A      1.517219  
     105A      1.554804   106A      1.624113   107A      1.638441  
     108A      1.710271   109A      1.762667   110A      1.863038  
     111A      1.980030   112A      1.998014   113A      2.008283  
     114A      2.056426   115A      2.125474   116A      2.140772  
     117A      2.149386   118A      2.180509   119A      2.187559  
     120A      2.208667   121A      2.222463   122A      2.234171  
     123A      2.238193   124A      2.252667   125A      2.267233  
     126A      2.308995   127A      2.315298   128A      2.340025  
     129A      2.360007   130A      2.379325   131A      2.382872  
     132A      2.431079   133A      2.450121   134A      2.452683  
     135A      2.474972   136A      2.541203   137A      2.556324  
     138A      2.631337   139A      2.646059   140A      2.680113  
     141A      2.702833   142A      2.722091   143A      2.751304  
     144A      2.781335   145A      2.784519   146A      2.812362  
     147A      2.830201   148A      2.852752   149A      2.882373  
     150A      2.904110   151A      2.945688   152A      3.020964  
     153A      3.044157   154A      3.117463   155A      3.121644  
     156A      3.215738   157A      3.220858   158A      3.251043  
     159A      3.280425   160A      3.285438   161A      3.288242  
     162A      3.301199   163A      3.317490   164A      3.329487  
     165A      3.365397   166A      3.395796   167A      3.423192  
     168A      3.449601   169A      3.468947   170A      3.515878  
     171A      3.523178   172A      3.543744   173A      3.601692  
     174A      3.615355   175A      3.648905   176A      3.657503  
     177A      3.678157   178A      3.733042   179A      3.738997  
     180A      3.778389   181A      3.790525   182A      3.823096  
     183A      3.847162   184A      3.889194   185A      3.902182  
     186A      3.925806   187A      3.933816   188A      3.952638  
     189A      3.967776   190A      4.011647   191A      4.023609  
     192A      4.072955   193A      4.115714   194A      4.173504  
     195A      4.205526   196A      4.253909   197A      4.266999  
     198A      4.322517   199A      4.329703   200A      4.364952  
     201A      4.449783   202A      4.467104   203A      4.526739  
     204A      4.559863   205A      4.562892   206A      4.589645  
     207A      4.601778   208A      4.747522   209A      4.792009  
     210A      5.091608   211A      5.174151   212A      5.196423  
     213A      5.254492   214A      5.304296   215A      5.314863  
     216A      5.344568   217A      5.344762   218A      5.372491  
     219A      5.394830   220A      5.429145   221A      5.466666  
     222A      5.481463   223A      5.511087   224A      5.547582  
     225A      5.561791   226A      5.567728   227A      5.602657  
     228A      5.786860   229A      5.946049   230A      6.037984  
     231A      6.130338   232A      6.135686   233A      6.353975  
     234A      6.536870   235A      6.559092   236A      6.591833  
     237A      6.606083   238A      6.729777   239A      7.009255  
     240A      7.110896   241A      7.196390   242A      7.230346  
     243A      7.294526   244A      7.295369   245A      7.313765  
     246A      7.334202   247A      7.336302   248A      7.337700  
     249A      7.340226   250A      7.340796   251A      7.343169  
     252A      7.344005   253A      7.345230   254A      7.348598  
     255A      7.349366   256A      7.353345   257A      7.355516  
     258A      7.358757   259A      7.360652   260A      7.365924  
     261A      7.379028   262A      7.436956   263A      7.492651  
     264A      7.493933   265A      7.504232   266A      7.508020  
     267A      7.517836   268A      7.539515   269A      7.589697  
     270A      7.592931   271A      7.615695   272A      7.618106  
     273A      7.620206   274A      7.627976   275A      7.709491  
     276A      7.852658   277A      7.863127   278A      7.917878  
     279A      7.930543   280A      7.942070   281A      7.955516  
     282A      8.007841   283A      8.093574   284A      8.099025  
     285A      8.149304   286A      8.160176   287A      8.163694  
     288A      8.193770   289A      8.872518   290A      8.887800  
     291A      8.899463   292A      8.909804   293A      8.920805  
     294A      8.922218   295A      8.997991   296A      9.011490  
     297A      9.018587   298A      9.037400   299A      9.057735  
     300A      9.109260   301A      9.169054   302A      9.211616  
     303A      9.310826   304A      9.320189   305A      9.374281  
     306A      9.394831   307A      9.399431   308A      9.405896  
     309A      9.504294   310A      9.517660   311A      9.653791  
     312A      9.669569   313A      9.674028   314A      9.685447  
     315A      9.719652   316A      9.738578   317A      9.742493  
     318A      9.752053   319A     10.817030   320A     11.334305  
     321A     12.080737   322A     12.421701   323A     12.504189  
     324A     12.610770   325A     12.644995   326A     13.384671  
     327A     13.468787   328A     13.695129  

    Final Occupation by Irrep:
              A 
    DOCC [    41 ]

  Energy converged.

  @DF-RHF Final Energy:  -786.58796377248518

   => Energetics <=

    Nuclear Repulsion Energy =            671.0128846906177387
    One-Electron Energy =               -2429.2092111483548251
    Two-Electron Energy =                 971.6083626852515636
    DFT Exchange-Correlation Energy =       0.0000000000000000
    Empirical Dispersion Energy =           0.0000000000000000
    PCM Polarization Energy =               0.0000000000000000
    EFP Energy =                            0.0000000000000000
    Total Energy =                       -786.5879637724855229


  Saving occupied orbitals to File 180.

*** tstop() called on cx1-27-4-2 at Sat Sep 10 16:47:20 2016
Module time:
	user time   =      30.83 seconds =       0.51 minutes
	system time =       0.81 seconds =       0.01 minutes
	total time  =          9 seconds =       0.15 minutes
Total time:
	user time   =      30.83 seconds =       0.51 minutes
	system time =       0.81 seconds =       0.01 minutes
	total time  =          9 seconds =       0.15 minutes


Properties will be evaluated at   0.000000,   0.000000,   0.000000 Bohr

Properties computed using the SCF density matrix

  Nuclear Dipole Moment: (a.u.)
     X:     0.0008      Y:     4.1202      Z:    -1.3669

  Electronic Dipole Moment: (a.u.)
     X:    -0.0046      Y:    -3.8910      Z:     1.3389

  Dipole Moment: (a.u.)
     X:    -0.0038      Y:     0.2292      Z:    -0.0280     Total:     0.2309

  Dipole Moment: (Debye)
     X:    -0.0097      Y:     0.5825      Z:    -0.0712     Total:     0.5869


*** tstart() called on cx1-27-4-2
*** at Sat Sep 10 16:47:20 2016


         ------------------------------------------------------------
                                   SCF GRAD                          
                          Rob Parrish, Justin Turney,                
                       Andy Simmonett, and Alex Sokolov              
         ------------------------------------------------------------

  ==> Geometry <==

    Molecular point group: c1
    Full point group: C1

    Geometry (in Angstrom), charge = 0, multiplicity = 1:

       Center              X                  Y                   Z               Mass       
    ------------   -----------------  -----------------  -----------------  -----------------
           H          0.000106774388     1.989261494818     0.750505337966     1.007825032070
           O          0.000113774388     1.880518494818    -0.186633662034    15.994914619560
           C          0.000197774388     0.546423494818    -0.530843662034    12.000000000000
           C         -1.285788225612    -0.124438505182    -0.045084662034    12.000000000000
           C          1.286227774388    -0.124298505182    -0.045011662034    12.000000000000
           H          0.000232774388     0.481835494818    -1.609031662034     1.007825032070
           F         -2.271462225612     0.197309494818    -0.846199662034    18.998403224000
           F         -1.190656225612    -1.429966505182    -0.029036662034    18.998403224000
           F         -1.607867225612     0.277974494818     1.165577337966    18.998403224000
           F          2.317961774388     0.469449494818    -0.592593662034    18.998403224000
           F          1.336828774388    -1.393032505182    -0.363550662034    18.998403224000
           F          1.414678774388    -0.024073505182     1.260680337966    18.998403224000

  Nuclear repulsion =  671.012884690617739

  ==> Basis Set <==

  Basis Set: CC-PVTZ
    Number of shells: 112
    Number of basis function: 328
    Number of Cartesian functions: 380
    Spherical Harmonics?: true
    Max angular momentum: 3

  ==> DFJKGrad: Density-Fitted SCF Gradients <==

    Gradient:                    1
    J tasked:                  Yes
    K tasked:                  Yes
    wK tasked:                  No
    OpenMP threads:              4
    Integrals threads:           4
    Memory (MB):              1430
    Schwarz Cutoff:          0E+00
    Fitting Condition:       1E-12

   => Auxiliary Basis Set <=

  Basis Set: 
    Number of shells: 270
    Number of basis function: 850
    Number of Cartesian functions: 1030
    Spherical Harmonics?: true
    Max angular momentum: 4


  -Total Gradient:
     Atom            X                  Y                   Z
    ------   -----------------  -----------------  -----------------
       1        0.000567928417     0.000256904707     0.000489177971
       2       -0.000310445340    -0.000806785572     0.002351705492
       3       -0.002632063082    -0.001690775347    -0.001977261311
       4        0.000605956525     0.001452028109    -0.000088779647
       5        0.000028823744     0.000700508875     0.000768212040
       6       -0.000537185841     0.000429389782    -0.000449130600
       7        0.001805738864    -0.001034726948    -0.000281711526
       8        0.003514259121     0.000045488452    -0.000672251392
       9       -0.001680564760     0.001737470999     0.000265476171
      10       -0.000005796075    -0.000097586868    -0.000126901001
      11       -0.002425058095    -0.000985445094     0.000862369023
      12        0.001068406523    -0.000006471093    -0.001140905212


*** tstop() called on cx1-27-4-2 at Sat Sep 10 16:47:28 2016
Module time:
	user time   =      30.36 seconds =       0.51 minutes
	system time =       0.64 seconds =       0.01 minutes
	total time  =          8 seconds =       0.13 minutes
Total time:
	user time   =      61.35 seconds =       1.02 minutes
	system time =       1.45 seconds =       0.02 minutes
	total time  =         17 seconds =       0.28 minutes

			-----------------------------------------
			 OPTKING 2.0: for geometry optimizations 
			  - R.A. King,  Bethel University        
			-----------------------------------------

	Internal coordinates to be generated automatically.
	Detected frag 1 with atoms:  1 2 3 4 5 6 7 8 9 10 11 12
	---Fragment 1 Bond Connectivity---
	 1 : 2
	 2 : 1 3
	 3 : 2 4 5 6
	 4 : 3 7 8 9
	 5 : 3 10 11 12
	 6 : 3
	 7 : 4
	 8 : 4
	 9 : 4
	 10 : 5
	 11 : 5
	 12 : 5

	Assuming in current code that numbering for constraints corresponds to unified fragment.
	Frozen dihedral atom list: 
	     7     4     3     6
	---Fragment 1 Geometry and Gradient---
	 H           0.0002017744        3.7591594319        1.4182495500
	 O           0.0002150024        3.5536649430       -0.3526865084
	 C           0.0003737394        1.0325907578       -1.0031491406
	 C          -2.4297876113       -0.2351546952       -0.0851976640
	 C           2.4306182381       -0.2348901335       -0.0850597140
	 H           0.0004398798        0.9105371263       -3.0406291804
	 F          -4.2924415276        0.3728609086       -1.5990856150
	 F          -2.2500141848       -2.7022450740       -0.0548713391
	 F          -3.0384287145        0.5252956671        2.2026219555
	 F           4.3803129401        0.8871309784       -1.1198397293
	 F           2.5262402702       -2.6324499290       -0.6870111867
	 F           2.6733554496       -0.0454923319        2.3823405799
	             0.0005679284        0.0002569047        0.0004891780
	            -0.0003104453       -0.0008067856        0.0023517055
	            -0.0026320631       -0.0016907753       -0.0019772613
	             0.0006059565        0.0014520281       -0.0000887796
	             0.0000288237        0.0007005089        0.0007682120
	            -0.0005371858        0.0004293898       -0.0004491306
	             0.0018057389       -0.0010347269       -0.0002817115
	             0.0035142591        0.0000454885       -0.0006722514
	            -0.0016805648        0.0017374710        0.0002654762
	            -0.0000057961       -0.0000975869       -0.0001269010
	            -0.0024250581       -0.0009854451        0.0008623690
	             0.0010684065       -0.0000064711       -0.0011409052

	Previous optimization step data not found.  Starting new optimization.

	---Fragment 1 Intrafragment Coordinates---
	 - Coordinate -           - BOHR/RAD -       - ANG/DEG -
	 R(1,2)           =         1.782819	       0.943427
	 R(2,3)           =         2.603635	       1.377784
	 R(3,4)           =         2.890588	       1.529633
	 R(3,5)           =         2.890585	       1.529632
	 R(3,6)           =         2.041133	       1.080121
	 R(4,7)           =         2.476090	       1.310290
	 R(4,8)           =         2.473818	       1.309088
	 R(4,9)           =         2.486533	       1.315817
	 R(5,10)          =         2.476088	       1.310289
	 R(5,11)          =         2.473819	       1.309089
	 R(5,12)          =         2.486535	       1.315818
	 B(1,2,3)         =         1.938820	     111.086213
	 B(2,3,4)         =         1.923335	     110.198983
	 B(2,3,5)         =         1.923337	     110.199120
	 B(2,3,6)         =         1.883132	     107.895533
	 B(3,4,7)         =         1.907712	     109.303871
	 B(3,4,8)         =         1.960790	     112.344973
	 B(3,4,9)         =         1.943188	     111.336473
	 B(3,5,10)        =         1.907714	     109.303978
	 B(3,5,11)        =         1.960789	     112.344962
	 B(3,5,12)        =         1.943188	     111.336480
	 B(4,3,5)         =         1.997260	     114.434576
	 B(4,3,6)         =         1.865858	     106.905801
	 B(5,3,6)         =         1.865857	     106.905732
	 B(7,4,8)         =         1.882887	     107.881477
	 B(7,4,9)         =         1.878962	     107.656579
	 B(8,4,9)         =         1.887572	     108.149927
	 B(10,5,11)       =         1.882886	     107.881436
	 B(10,5,12)       =         1.878961	     107.656535
	 B(11,5,12)       =         1.887572	     108.149905
	 D(1,2,3,4)       =         1.110313	      63.616222
	 D(1,2,3,5)       =        -1.110253	     -63.612801
	 D(1,2,3,6)       =        -3.141563	    -179.998286
	 D(2,3,4,7)       =         1.343946	      77.002416
	 D(2,3,4,8)       =        -2.849768	    -163.279659
	 D(2,3,4,9)       =        -0.729615	     -41.803850
	 D(2,3,5,10)      =        -1.039886	     -59.581067
	 D(2,3,5,11)      =        -3.129358	    -179.299006
	 D(2,3,5,12)      =         1.033675	      59.225217
	 D(4,3,5,10)      =         3.064461	     175.580667
	 D(4,3,5,11)      =         0.974989	      55.862728
	 D(4,3,5,12)      =        -1.145164	     -65.613049
	 D(5,3,4,7)       =        -2.760400	    -158.159246
	 D(5,3,4,8)       =        -0.670928	     -38.441320
	 D(5,3,4,9)       =         1.449225	      83.034488
	*D(6,3,4,7)       =        -0.698131	     -39.999965
	 D(6,3,4,8)       =         1.391341	      79.717960
	 D(6,3,4,9)       =        -2.771692	    -158.806231
	 D(6,3,5,10)      =         1.002192	      57.421347
	 D(6,3,5,11)      =        -1.087281	     -62.296592
	 D(6,3,5,12)      =         3.075752	     176.227631
	 R(8,11)          =         4.818410	       2.549793

	Current energy   :      -786.5879637725

	Generating empirical Hessian (Schlegel '84) for each fragment.
	Taking RFO optimization step.
	Going to follow RFO solution 1.
	Using RFO vector 1.
	Norm of target step-size    0.39336
	Projected energy change by RFO approximation:         0.0011993246

	Back-transformation to cartesian coordinates...
	Successfully converged to displaced geometry.

	Back-transformation to cartesian coordinates to adjust frozen coordinates...
	Successfully converged to displaced geometry.

	--- Internal Coordinate Step in ANG or DEG, aJ/ANG or AJ/DEG ---
	 ---------------------------------------------------------------------------
	   Coordinate                Previous        Force       Change         New 
	   ----------                --------       ------       ------       ------
	    1 R(1,2)          =      0.943427    -0.004247    -0.000460     0.942967
	    2 R(2,3)          =      1.377784    -0.001461    -0.000189     1.377595
	    3 R(3,4)          =      1.529633     0.023085     0.003208     1.532841
	    4 R(3,5)          =      1.529632    -0.007645    -0.003268     1.526364
	    5 R(3,6)          =      1.080121    -0.003482    -0.000620     1.079501
	    6 R(4,7)          =      1.310290     0.011866     0.001181     1.311471
	    7 R(4,8)          =      1.309088    -0.000627    -0.000008     1.309079
	    8 R(4,9)          =      1.315817    -0.009779    -0.000996     1.314821
	    9 R(5,10)         =      1.310289    -0.000035    -0.000003     1.310286
	   10 R(5,11)         =      1.309089    -0.006407    -0.000693     1.308396
	   11 R(5,12)         =      1.315818     0.008472     0.000862     1.316680
	   12 B(1,2,3)        =    111.086213    -0.000027    -0.142675   110.943538
	   13 B(2,3,4)        =    110.198983     0.000033     0.236053   110.435036
	   14 B(2,3,5)        =    110.199120     0.000074     0.615272   110.814392
	   15 B(2,3,6)        =    107.895533    -0.000106    -1.613559   106.281974
	   16 B(3,4,7)        =    109.303871     0.000100     0.607472   109.911343
	   17 B(3,4,8)        =    112.344973     0.000149    -0.365983   111.978990
	   18 B(3,4,9)        =    111.336473    -0.000096    -0.084965   111.251508
	   19 B(3,5,10)       =    109.303978     0.000024     0.318221   109.622199
	   20 B(3,5,11)       =    112.344962    -0.000000    -0.642053   111.702910
	   21 B(3,5,12)       =    111.336480    -0.000123    -0.590300   110.746180
	   22 B(4,3,5)        =    114.434576    -0.000107    -0.679861   113.754715
	   23 B(4,3,6)        =    106.905801     0.000050     0.319226   107.225027
	   24 B(5,3,6)        =    106.905732     0.000053     1.050686   107.956418
	   25 B(7,4,8)        =    107.881477    -0.000100    -0.368198   107.513280
	   26 B(7,4,9)        =    107.656579     0.000036     0.769908   108.426487
	   27 B(8,4,9)        =    108.149927    -0.000095    -0.538745   107.611182
	   28 B(10,5,11)      =    107.881436    -0.000012     0.280107   108.161543
	   29 B(10,5,12)      =    107.656535     0.000057     0.385729   108.042264
	   30 B(11,5,12)      =    108.149905     0.000061     0.307621   108.457525
	   31 D(1,2,3,4)      =     63.616222    -0.000011    -1.956873    61.659349
	   32 D(1,2,3,5)      =    -63.612801     0.000002    -1.707435   -65.320236
	   33 D(1,2,3,6)      =   -179.998286    -0.000007    -2.363307  -182.361593
	   34 D(2,3,4,7)      =     77.002416    -0.000019    -1.613634    75.388782
	   35 D(2,3,4,8)      =   -163.279659    -0.000010    -1.903134  -165.182793
	   36 D(2,3,4,9)      =    -41.803850    -0.000030    -2.912210   -44.716061
	   37 D(2,3,5,10)     =    -59.581067     0.000013     7.285251   -52.295816
	   38 D(2,3,5,11)     =   -179.299006     0.000012     7.131527  -172.167479
	   39 D(2,3,5,12)     =     59.225217     0.000015     7.600181    66.825398
	   40 D(4,3,5,10)     =    175.580667     0.000007     6.995493   182.576160
	   41 D(4,3,5,11)     =     55.862728     0.000007     6.841768    62.704496
	   42 D(4,3,5,12)     =    -65.613049     0.000010     7.310423   -58.302626
	   43 D(5,3,4,7)      =   -158.159246    -0.000008    -1.121766  -159.281012
	   44 D(5,3,4,8)      =    -38.441320    -0.000000    -1.411266   -39.852586
	   45 D(5,3,4,9)      =     83.034488    -0.000020    -2.420342    80.614146
	   46 *D(6,3,4,7)     =    -39.999965    -0.000000     0.000000   -39.999965
	   47 D(6,3,4,8)      =     79.717960     0.000008    -0.289500    79.428461
	   48 D(6,3,4,9)      =   -158.806231    -0.000011    -1.298576  -160.104808
	   49 D(6,3,5,10)     =     57.421347    -0.000001     6.290848    63.712195
	   50 D(6,3,5,11)     =    -62.296592    -0.000001     6.137123   -56.159468
	   51 D(6,3,5,12)     =    176.227631     0.000002     6.605778   182.833409
	   52 R(8,11)         =      2.549793     0.018499     0.051573     2.601366
	 ---------------------------------------------------------------------------
	Successfully symmetrized geometry.

  ==> Convergence Check <==

  Measures of convergence in internal coordinates in au.
  Criteria marked as inactive (o), active & met (*), and active & unmet ( ).
  --------------------------------------------------------------------------------------------- ~
   Step     Total Energy     Delta E     MAX Force     RMS Force      MAX Disp      RMS Disp    ~
  --------------------------------------------------------------------------------------------- ~
    Convergence Criteria    1.00e-06 *    3.00e-04 *             o    1.20e-03 *             o  ~
  --------------------------------------------------------------------------------------------- ~
      1    -786.58796377   -7.87e+02      2.80e-03      9.79e-04 o    1.33e-01      5.46e-02 o  ~
  ---------------------------------------------------------------------------------------------

	Writing optimization data to binary file.
	Structure for next step:
	Cartesian Geometry (in Angstrom)
	    H    -0.0946422039   2.0336966855   0.6588060695
	    O    -0.0370335809   1.8816548586  -0.2700380192
	    C     0.0107393925   0.5328694874  -0.5461989067
	    C    -1.2679885245  -0.1585790375  -0.0600335664
	    C     1.2923639824  -0.0881408150   0.0029564649
	    H     0.0326049894   0.4447679281  -1.6218766721
	    F    -2.2593355659   0.1116037200  -0.8750116571
	    F    -1.1356682753  -1.4602949538  -0.0186081956
	    F    -1.5995189620   0.2461650221   1.1462104087
	    F     2.3279430649   0.5955906193  -0.4176810762
	    F     1.4357756854  -1.3281306009  -0.3891641526
	    F     1.2953342906  -0.0642399759   1.3194163585
			--------------------------
			 OPTKING Finished Execution 
			--------------------------

    Structure for next step:
    Molecular point group: c1
    Full point group: C1

    Geometry (in Angstrom), charge = 0, multiplicity = 1:

    H           -0.100549776818     2.034025382013     0.646855565619
    O           -0.042941153785     1.881983555121    -0.281988523130
    C            0.004831819583     0.533198183977    -0.558149410563
    C           -1.273896097417    -0.158250340954    -0.071984070286
    C            1.286456409465    -0.087812118482    -0.008994039008
    H            0.026697416517     0.445096624682    -1.633827175984
    F           -2.265243138769     0.111932416587    -0.886962161022
    F           -1.141575848157    -1.459966257241    -0.030558699491
    F           -1.605426534925     0.246493718646     1.134259904760
    F            2.322035492044     0.595919315849    -0.429631580075
    F            1.429868112525    -1.327801904331    -0.401114656510
    F            1.289426717711    -0.063911279371     1.307465854574

gradient() will perform analytic gradient computation.

*** tstart() called on cx1-27-4-2
*** at Sat Sep 10 16:47:29 2016


         ---------------------------------------------------------
                                   SCF
            by Justin Turney, Rob Parrish, and Andy Simmonett
                              RHF Reference
                        4 Threads,   2000 MiB Core
         ---------------------------------------------------------

  ==> Geometry <==

    Molecular point group: c1
    Full point group: C1

    Geometry (in Angstrom), charge = 0, multiplicity = 1:

       Center              X                  Y                   Z               Mass       
    ------------   -----------------  -----------------  -----------------  -----------------
           H         -0.100549776818     2.034025382013     0.646855565619     1.007825032070
           O         -0.042941153785     1.881983555121    -0.281988523130    15.994914619560
           C          0.004831819583     0.533198183977    -0.558149410563    12.000000000000
           C         -1.273896097417    -0.158250340954    -0.071984070286    12.000000000000
           C          1.286456409465    -0.087812118482    -0.008994039008    12.000000000000
           H          0.026697416517     0.445096624682    -1.633827175984     1.007825032070
           F         -2.265243138769     0.111932416587    -0.886962161022    18.998403224000
           F         -1.141575848157    -1.459966257241    -0.030558699491    18.998403224000
           F         -1.605426534925     0.246493718646     1.134259904760    18.998403224000
           F          2.322035492044     0.595919315849    -0.429631580075    18.998403224000
           F          1.429868112525    -1.327801904331    -0.401114656510    18.998403224000
           F          1.289426717711    -0.063911279371     1.307465854574    18.998403224000

  Running in c1 symmetry.

  Rotational constants: A =      0.07228  B =      0.03586  C =      0.03175 [cm^-1]
  Rotational constants: A =   2166.76468  B =   1075.01810  C =    951.96227 [MHz]
  Nuclear repulsion =  671.803923182591575

  Charge       = 0
  Multiplicity = 1
  Electrons    = 82
  Nalpha       = 41
  Nbeta        = 41

  ==> Algorithm <==

  SCF Algorithm Type is DF.
  DIIS enabled.
  MOM disabled.
  Fractional occupation disabled.
  Guess Type is READ.
  Energy threshold   = 1.00e-08
  Density threshold  = 1.00e-08
  Integral threshold = 0.00e+00

  ==> Primary Basis <==

  Basis Set: CC-PVTZ
    Number of shells: 112
    Number of basis function: 328
    Number of Cartesian functions: 380
    Spherical Harmonics?: true
    Max angular momentum: 3

  ==> Pre-Iterations <==

   -------------------------------------------------------
    Irrep   Nso     Nmo     Nalpha   Nbeta   Ndocc  Nsocc
   -------------------------------------------------------
     A        328     328       0       0       0       0
   -------------------------------------------------------
    Total     328     328      41      41      41       0
   -------------------------------------------------------

  ==> Integral Setup <==

  ==> DFJK: Density-Fitted J/K Matrices <==

    J tasked:                  Yes
    K tasked:                  Yes
    wK tasked:                  No
    OpenMP threads:              4
    Integrals threads:           4
    Memory (MB):              1430
    Algorithm:                Core
    Integral Cache:           NONE
    Schwarz Cutoff:          1E-12
    Fitting Condition:       1E-12

   => Auxiliary Basis Set <=

  Basis Set: 
    Number of shells: 270
    Number of basis function: 850
    Number of Cartesian functions: 1030
    Spherical Harmonics?: true
    Max angular momentum: 4

  Minimum eigenvalue in the overlap matrix is 7.5300280677E-04.
  Using Symmetric Orthogonalization.
  SCF Guess: Reading in previously saved MOs, projecting if necessary.

  Using orbitals from previous SCF, no projection.
  Recomputing DOCC and SOCC from number of alpha and beta electrons from previous calculation.
              A 
    DOCC [    41 ]

  ==> Iterations <==

                           Total Energy        Delta E     RMS |[F,P]|

   @DF-RHF iter   0:  -786.53723630220736   -7.86537e+02   9.52013e-04 
   @DF-RHF iter   1:  -786.58646265775758   -4.92264e-02   1.53867e-04 
   @DF-RHF iter   2:  -786.58818268788389   -1.72003e-03   5.33381e-05 DIIS
   @DF-RHF iter   3:  -786.58839192449534   -2.09237e-04   2.15247e-05 DIIS
   @DF-RHF iter   4:  -786.58842068805291   -2.87636e-05   4.99275e-06 DIIS
   @DF-RHF iter   5:  -786.58842269101922   -2.00297e-06   2.21248e-06 DIIS
   @DF-RHF iter   6:  -786.58842314664651   -4.55627e-07   4.54029e-07 DIIS
   @DF-RHF iter   7:  -786.58842316804919   -2.14027e-08   1.05199e-07 DIIS
   @DF-RHF iter   8:  -786.58842316865946   -6.10271e-10   3.48543e-08 DIIS
   @DF-RHF iter   9:  -786.58842316872472   -6.52562e-11   8.30915e-09 DIIS

  ==> Post-Iterations <==

    Orbital Energies (a.u.)
    -----------------------

    Doubly Occupied:                                                      

       1A    -26.359823     2A    -26.358777     3A    -26.356362  
       4A    -26.356034     5A    -26.355283     6A    -26.354104  
       7A    -20.608996     8A    -11.520472     9A    -11.519039  
      10A    -11.350066    11A     -1.772280    12A     -1.766089  
      13A     -1.667765    14A     -1.664431    15A     -1.663668  
      16A     -1.660759    17A     -1.439326    18A     -1.102874  
      19A     -1.001810    20A     -0.945018    21A     -0.871382  
      22A     -0.869357    23A     -0.858930    24A     -0.852851  
      25A     -0.840255    26A     -0.823041    27A     -0.748153  
      28A     -0.735229    29A     -0.732282    30A     -0.726448  
      31A     -0.696197    32A     -0.692651    33A     -0.688861  
      34A     -0.682411    35A     -0.677067    36A     -0.668250  
      37A     -0.664738    38A     -0.655685    39A     -0.625718  
      40A     -0.554321    41A     -0.509349  

    Virtual:                                                              

      42A      0.153560    43A      0.158674    44A      0.263562  
      45A      0.289368    46A      0.303422    47A      0.325670  
      48A      0.340427    49A      0.381810    50A      0.403542  
      51A      0.436433    52A      0.452531    53A      0.464401  
      54A      0.480628    55A      0.496171    56A      0.504811  
      57A      0.512109    58A      0.522628    59A      0.529398  
      60A      0.556485    61A      0.589350    62A      0.598951  
      63A      0.610258    64A      0.648334    65A      0.675518  
      66A      0.723733    67A      0.730918    68A      0.749663  
      69A      0.765873    70A      0.800465    71A      0.838601  
      72A      0.866658    73A      0.883172    74A      0.906599  
      75A      0.936806    76A      0.948489    77A      0.970947  
      78A      0.992857    79A      1.014996    80A      1.019913  
      81A      1.029857    82A      1.055454    83A      1.080355  
      84A      1.083593    85A      1.109680    86A      1.113669  
      87A      1.125297    88A      1.133792    89A      1.141238  
      90A      1.168463    91A      1.193927    92A      1.220881  
      93A      1.236325    94A      1.272558    95A      1.305939  
      96A      1.341592    97A      1.376841    98A      1.383355  
      99A      1.407284   100A      1.419422   101A      1.482602  
     102A      1.491112   103A      1.500491   104A      1.518511  
     105A      1.557458   106A      1.624050   107A      1.640527  
     108A      1.716692   109A      1.762217   110A      1.851441  
     111A      1.974318   112A      1.993333   113A      2.016441  
     114A      2.062122   115A      2.123986   116A      2.145595  
     117A      2.153236   118A      2.180862   119A      2.189576  
     120A      2.209095   121A      2.224645   122A      2.231962  
     123A      2.234997   124A      2.255065   125A      2.282331  
     126A      2.308667   127A      2.318194   128A      2.326968  
     129A      2.353810   130A      2.377720   131A      2.381918  
     132A      2.442281   133A      2.451446   134A      2.454864  
     135A      2.472799   136A      2.546536   137A      2.567135  
     138A      2.642046   139A      2.648157   140A      2.675363  
     141A      2.701589   142A      2.719848   143A      2.751726  
     144A      2.773431   145A      2.782310   146A      2.815477  
     147A      2.818958   148A      2.851611   149A      2.879612  
     150A      2.920209   151A      2.948428   152A      3.023667  
     153A      3.042784   154A      3.115602   155A      3.123876  
     156A      3.219793   157A      3.226654   158A      3.252591  
     159A      3.282229   160A      3.287636   161A      3.288594  
     162A      3.303425   163A      3.315865   164A      3.334106  
     165A      3.355627   166A      3.386554   167A      3.423889  
     168A      3.442573   169A      3.472596   170A      3.511873  
     171A      3.535240   172A      3.553745   173A      3.592893  
     174A      3.612897   175A      3.644855   176A      3.658428  
     177A      3.682376   178A      3.731523   179A      3.736331  
     180A      3.777279   181A      3.794055   182A      3.817505  
     183A      3.846662   184A      3.894370   185A      3.905437  
     186A      3.928544   187A      3.938647   188A      3.946157  
     189A      3.973018   190A      4.007994   191A      4.024621  
     192A      4.074953   193A      4.115584   194A      4.173017  
     195A      4.205755   196A      4.254610   197A      4.265773  
     198A      4.325354   199A      4.340312   200A      4.371612  
     201A      4.447275   202A      4.464411   203A      4.519126  
     204A      4.550501   205A      4.564721   206A      4.590885  
     207A      4.611085   208A      4.754203   209A      4.791355  
     210A      5.100486   211A      5.166662   212A      5.198559  
     213A      5.252609   214A      5.309504   215A      5.323849  
     216A      5.342225   217A      5.346739   218A      5.378286  
     219A      5.397376   220A      5.423139   221A      5.458959  
     222A      5.492184   223A      5.513511   224A      5.541732  
     225A      5.564792   226A      5.580329   227A      5.613892  
     228A      5.782274   229A      5.943673   230A      6.029419  
     231A      6.122295   232A      6.135021   233A      6.356919  
     234A      6.541568   235A      6.560159   236A      6.593395  
     237A      6.609800   238A      6.732405   239A      7.012085  
     240A      7.112315   241A      7.195419   242A      7.235251  
     243A      7.294518   244A      7.295063   245A      7.312195  
     246A      7.334384   247A      7.336615   248A      7.337548  
     249A      7.339426   250A      7.341218   251A      7.343444  
     252A      7.344266   253A      7.345075   254A      7.348349  
     255A      7.350076   256A      7.352636   257A      7.355640  
     258A      7.359123   259A      7.360003   260A      7.366232  
     261A      7.375342   262A      7.440942   263A      7.490876  
     264A      7.493682   265A      7.504948   266A      7.509907  
     267A      7.518109   268A      7.540955   269A      7.591094  
     270A      7.591943   271A      7.612778   272A      7.613308  
     273A      7.621152   274A      7.628820   275A      7.705280  
     276A      7.852134   277A      7.866584   278A      7.915697  
     279A      7.934695   280A      7.939898   281A      7.950038  
     282A      8.010418   283A      8.095013   284A      8.105742  
     285A      8.147710   286A      8.158169   287A      8.164334  
     288A      8.192067   289A      8.872025   290A      8.889783  
     291A      8.897888   292A      8.909112   293A      8.917710  
     294A      8.921434   295A      9.002117   296A      9.011649  
     297A      9.019580   298A      9.036341   299A      9.059651  
     300A      9.117179   301A      9.169877   302A      9.207540  
     303A      9.311291   304A      9.321221   305A      9.377665  
     306A      9.391536   307A      9.398927   308A      9.405023  
     309A      9.504354   310A      9.512349   311A      9.656316  
     312A      9.668214   313A      9.675485   314A      9.681166  
     315A      9.721967   316A      9.735641   317A      9.742985  
     318A      9.747155   319A     10.824803   320A     11.338384  
     321A     12.060516   322A     12.420598   323A     12.500671  
     324A     12.630891   325A     12.735547   326A     13.351827  
     327A     13.485185   328A     13.715216  

    Final Occupation by Irrep:
              A 
    DOCC [    41 ]

  Energy converged.

  @DF-RHF Final Energy:  -786.58842316872472

   => Energetics <=

    Nuclear Repulsion Energy =            671.8039231825915749
    One-Electron Energy =               -2430.7923902679058301
    Two-Electron Energy =                 972.4000439165895386
    DFT Exchange-Correlation Energy =       0.0000000000000000
    Empirical Dispersion Energy =           0.0000000000000000
    PCM Polarization Energy =               0.0000000000000000
    EFP Energy =                            0.0000000000000000
    Total Energy =                       -786.5884231687248302


  Saving occupied orbitals to File 180.

*** tstop() called on cx1-27-4-2 at Sat Sep 10 16:47:36 2016
Module time:
	user time   =      22.52 seconds =       0.38 minutes
	system time =       0.57 seconds =       0.01 minutes
	total time  =          7 seconds =       0.12 minutes
Total time:
	user time   =      85.90 seconds =       1.43 minutes
	system time =       2.09 seconds =       0.03 minutes
	total time  =         25 seconds =       0.42 minutes


Properties will be evaluated at   0.000000,   0.000000,   0.000000 Bohr

Properties computed using the SCF density matrix

  Nuclear Dipole Moment: (a.u.)
     X:    -0.0969      Y:     4.1230      Z:    -1.5808

  Electronic Dipole Moment: (a.u.)
     X:     0.0815      Y:    -3.8695      Z:     1.5387

  Dipole Moment: (a.u.)
     X:    -0.0154      Y:     0.2535      Z:    -0.0421     Total:     0.2574

  Dipole Moment: (Debye)
     X:    -0.0391      Y:     0.6444      Z:    -0.1070     Total:     0.6544


*** tstart() called on cx1-27-4-2
*** at Sat Sep 10 16:47:36 2016


         ------------------------------------------------------------
                                   SCF GRAD                          
                          Rob Parrish, Justin Turney,                
                       Andy Simmonett, and Alex Sokolov              
         ------------------------------------------------------------

  ==> Geometry <==

    Molecular point group: c1
    Full point group: C1

    Geometry (in Angstrom), charge = 0, multiplicity = 1:

       Center              X                  Y                   Z               Mass       
    ------------   -----------------  -----------------  -----------------  -----------------
           H         -0.100549776818     2.034025382013     0.646855565619     1.007825032070
           O         -0.042941153785     1.881983555121    -0.281988523130    15.994914619560
           C          0.004831819583     0.533198183977    -0.558149410563    12.000000000000
           C         -1.273896097417    -0.158250340954    -0.071984070286    12.000000000000
           C          1.286456409465    -0.087812118482    -0.008994039008    12.000000000000
           H          0.026697416517     0.445096624682    -1.633827175984     1.007825032070
           F         -2.265243138769     0.111932416587    -0.886962161022    18.998403224000
           F         -1.141575848157    -1.459966257241    -0.030558699491    18.998403224000
           F         -1.605426534925     0.246493718646     1.134259904760    18.998403224000
           F          2.322035492044     0.595919315849    -0.429631580075    18.998403224000
           F          1.429868112525    -1.327801904331    -0.401114656510    18.998403224000
           F          1.289426717711    -0.063911279371     1.307465854574    18.998403224000

  Nuclear repulsion =  671.803923182591575

  ==> Basis Set <==

  Basis Set: CC-PVTZ
    Number of shells: 112
    Number of basis function: 328
    Number of Cartesian functions: 380
    Spherical Harmonics?: true
    Max angular momentum: 3

  ==> DFJKGrad: Density-Fitted SCF Gradients <==

    Gradient:                    1
    J tasked:                  Yes
    K tasked:                  Yes
    wK tasked:                  No
    OpenMP threads:              4
    Integrals threads:           4
    Memory (MB):              1430
    Schwarz Cutoff:          0E+00
    Fitting Condition:       1E-12

   => Auxiliary Basis Set <=

  Basis Set: 
    Number of shells: 270
    Number of basis function: 850
    Number of Cartesian functions: 1030
    Spherical Harmonics?: true
    Max angular momentum: 4


  -Total Gradient:
     Atom            X                  Y                   Z
    ------   -----------------  -----------------  -----------------
       1        0.000333478870    -0.000738474105    -0.000254693539
       2        0.000524943324    -0.000572203723    -0.001942165721
       3        0.002426120713    -0.005059837648     0.003232390388
       4       -0.001846062174     0.004042033959     0.001143452415
       5        0.002281752997    -0.001187373901     0.000876226852
       6       -0.001512756045     0.003916918387    -0.000208809950
       7       -0.000088313543    -0.003011208607    -0.002931794945
       8        0.001542028063     0.002139601702     0.000194307045
       9        0.000844476883    -0.001504283344     0.001475151973
      10        0.000535510194     0.001814045053    -0.001233599024
      11       -0.002940733922    -0.000228837096    -0.000245777562
      12       -0.002100445356     0.000389619328    -0.000104687931


*** tstop() called on cx1-27-4-2 at Sat Sep 10 16:47:44 2016
Module time:
	user time   =      29.27 seconds =       0.49 minutes
	system time =       0.59 seconds =       0.01 minutes
	total time  =          8 seconds =       0.13 minutes
Total time:
	user time   =     115.27 seconds =       1.92 minutes
	system time =       2.68 seconds =       0.04 minutes
	total time  =         33 seconds =       0.55 minutes

			-----------------------------------------
			 OPTKING 2.0: for geometry optimizations 
			  - R.A. King,  Bethel University        
			-----------------------------------------

	Previous internal coordinate definitions found.
	---Fragment 1 Geometry and Gradient---
	 H          -0.1900115409        3.8437509193        1.2223798666
	 O          -0.0811470205        3.5564335058       -0.5328810813
	 C           0.0091308157        1.0075985423       -1.0547495272
	 C          -2.4073147459       -0.2990498048       -0.1360301788
	 C           2.4310502958       -0.1659408551       -0.0169962706
	 H           0.0504508057        0.8411107233       -3.0874859111
	 F          -4.2806891567        0.2115216127       -1.6761155746
	 F          -2.1572657129       -2.7589363894       -0.0577475730
	 F          -3.0338164775        0.4658056217        2.1434405835
	 F           4.3880111508        1.1261243043       -0.8118860244
	 F           2.7020591388       -2.5091819579       -0.7579968487
	 F           2.4366633649       -0.1207748148        2.4707523932
	             0.0003334789       -0.0007384741       -0.0002546935
	             0.0005249433       -0.0005722037       -0.0019421657
	             0.0024261207       -0.0050598376        0.0032323904
	            -0.0018460622        0.0040420340        0.0011434524
	             0.0022817530       -0.0011873739        0.0008762269
	            -0.0015127560        0.0039169184       -0.0002088099
	            -0.0000883135       -0.0030112086       -0.0029317949
	             0.0015420281        0.0021396017        0.0001943070
	             0.0008444769       -0.0015042833        0.0014751520
	             0.0005355102        0.0018140451       -0.0012335990
	            -0.0029407339       -0.0002288371       -0.0002457776
	            -0.0021004454        0.0003896193       -0.0001046879

	---Fragment 1 Intrafragment Coordinates---
	 - Coordinate -           - BOHR/RAD -       - ANG/DEG -
	 R(1,2)           =         1.781949	       0.942967
	 R(2,3)           =         2.603278	       1.377595
	 R(3,4)           =         2.896651	       1.532841
	 R(3,5)           =         2.884410	       1.526364
	 R(3,6)           =         2.039961	       1.079501
	 R(4,7)           =         2.478322	       1.311471
	 R(4,8)           =         2.473802	       1.309079
	 R(4,9)           =         2.484652	       1.314821
	 R(5,10)          =         2.476081	       1.310286
	 R(5,11)          =         2.472510	       1.308396
	 R(5,12)          =         2.488165	       1.316680
	 B(1,2,3)         =         1.936330	     110.943538
	 B(2,3,4)         =         1.927455	     110.435036
	 B(2,3,5)         =         1.934076	     110.814392
	 B(2,3,6)         =         1.854970	     106.281974
	 B(3,4,7)         =         1.918315	     109.911343
	 B(3,4,8)         =         1.954402	     111.978990
	 B(3,4,9)         =         1.941705	     111.251508
	 B(3,5,10)        =         1.913268	     109.622199
	 B(3,5,11)        =         1.949584	     111.702910
	 B(3,5,12)        =         1.932885	     110.746180
	 B(4,3,5)         =         1.985394	     113.754715
	 B(4,3,6)         =         1.871430	     107.225027
	 B(5,3,6)         =         1.884195	     107.956418
	 B(7,4,8)         =         1.876461	     107.513280
	 B(7,4,9)         =         1.892399	     108.426487
	 B(8,4,9)         =         1.878169	     107.611182
	 B(10,5,11)       =         1.887775	     108.161543
	 B(10,5,12)       =         1.885693	     108.042264
	 B(11,5,12)       =         1.892941	     108.457525
	 D(1,2,3,4)       =         1.076159	      61.659349
	 D(1,2,3,5)       =        -1.140053	     -65.320236
	 D(1,2,3,6)       =         3.100375	     177.638407
	 D(2,3,4,7)       =         1.315782	      75.388782
	 D(2,3,4,8)       =        -2.882984	    -165.182793
	 D(2,3,4,9)       =        -0.780442	     -44.716061
	 D(2,3,5,10)      =        -0.912734	     -52.295816
	 D(2,3,5,11)      =        -3.004889	    -172.167479
	 D(2,3,5,12)      =         1.166323	      66.825398
	 D(4,3,5,10)      =        -3.096630	    -177.423840
	 D(4,3,5,11)      =         1.094400	      62.704496
	 D(4,3,5,12)      =        -1.017573	     -58.302626
	 D(5,3,4,7)       =        -2.779978	    -159.281012
	 D(5,3,4,8)       =        -0.695559	     -39.852586
	 D(5,3,4,9)       =         1.406982	      80.614146
	*D(6,3,4,7)       =        -0.698131	     -39.999965
	 D(6,3,4,8)       =         1.386288	      79.428461
	 D(6,3,4,9)       =        -2.794356	    -160.104808
	 D(6,3,5,10)      =         1.111988	      63.712195
	 D(6,3,5,11)      =        -0.980168	     -56.159468
	 D(6,3,5,12)      =        -3.092140	    -177.166591
	 R(8,11)          =         4.915869	       2.601366

	Current energy   :      -786.5884231687

	Energy change for the previous step:
		Projected    :         0.0011993246
		Actual       :        -0.0004593962

	Performing BFGS update.
	Previous computed or guess Hessian on step 1.
	Steps to be used in Hessian update: 1
	Taking RFO optimization step.
	Going to follow RFO solution 1.
	Using RFO vector 1.
	Norm of target step-size    0.09309
	Projected energy change by RFO approximation:        -0.0005297516

	Back-transformation to cartesian coordinates...
	Successfully converged to displaced geometry.

	Back-transformation to cartesian coordinates to adjust frozen coordinates...
	Successfully converged to displaced geometry.

	--- Internal Coordinate Step in ANG or DEG, aJ/ANG or AJ/DEG ---
	 ---------------------------------------------------------------------------
	   Coordinate                Previous        Force       Change         New 
	   ----------                --------       ------       ------       ------
	    1 R(1,2)          =      0.942967     0.003216     0.000193     0.943160
	    2 R(2,3)          =      1.377595     0.014446     0.001538     1.379133
	    3 R(3,4)          =      1.532841    -0.004623     0.000666     1.533508
	    4 R(3,5)          =      1.526364     0.008036     0.001484     1.527848
	    5 R(3,6)          =      1.079501     0.001172     0.000041     1.079542
	    6 R(4,7)          =      1.311471    -0.010449    -0.000620     1.310852
	    7 R(4,8)          =      1.309079     0.016909     0.001391     1.310470
	    8 R(4,9)          =      1.314821    -0.005580    -0.000697     1.314124
	    9 R(5,10)         =      1.310286    -0.014548    -0.001223     1.309063
	   10 R(5,11)         =      1.308396    -0.001378    -0.000245     1.308151
	   11 R(5,12)         =      1.316680     0.000843     0.000261     1.316941
	   12 B(1,2,3)        =    110.943538     0.000094     0.332098   111.275637
	   13 B(2,3,4)        =    110.435036    -0.000072    -0.404741   110.030295
	   14 B(2,3,5)        =    110.814392     0.000053     0.121709   110.936101
	   15 B(2,3,6)        =    106.281974     0.000032     0.352688   106.634662
	   16 B(3,4,7)        =    109.911343    -0.000031    -0.176595   109.734748
	   17 B(3,4,8)        =    111.978990    -0.000007     0.400861   112.379851
	   18 B(3,4,9)        =    111.251508    -0.000016    -0.184459   111.067049
	   19 B(3,5,10)       =    109.622199     0.000111     0.191211   109.813410
	   20 B(3,5,11)       =    111.702910     0.000078     0.295025   111.997934
	   21 B(3,5,12)       =    110.746180     0.000227     0.524330   111.270510
	   22 B(4,3,5)        =    113.754715    -0.000012    -0.106917   113.647798
	   23 B(4,3,6)        =    107.225027    -0.000003    -0.022015   107.203012
	   24 B(5,3,6)        =    107.956418     0.000005     0.100667   108.057086
	   25 B(7,4,8)        =    107.513280     0.000014     0.064881   107.578160
	   26 B(7,4,9)        =    108.426487    -0.000047    -0.508110   107.918377
	   27 B(8,4,9)        =    107.611182     0.000089     0.386518   107.997700
	   28 B(10,5,11)      =    108.161543    -0.000122    -0.454703   107.706840
	   29 B(10,5,12)      =    108.042264    -0.000175    -0.437703   107.604561
	   30 B(11,5,12)      =    108.457525    -0.000138    -0.175574   108.281951
	   31 D(1,2,3,4)      =     61.659349    -0.000004    -1.554498    60.104851
	   32 D(1,2,3,5)      =    -65.320236     0.000003    -1.201399   -66.521635
	   33 D(1,2,3,6)      =    177.638407    -0.000009    -1.590801   176.047607
	   34 D(2,3,4,7)      =     75.388782    -0.000000     0.195803    75.584585
	   35 D(2,3,4,8)      =   -165.182793    -0.000002     0.417301  -164.765492
	   36 D(2,3,4,9)      =    -44.716061     0.000020     1.061271   -43.654790
	   37 D(2,3,5,10)     =    -52.295816    -0.000014     0.462675   -51.833140
	   38 D(2,3,5,11)     =   -172.167479    -0.000008     0.716083  -171.451397
	   39 D(2,3,5,12)     =     66.825398    -0.000015     0.369234    67.194632
	   40 D(4,3,5,10)     =   -177.423840     0.000000     0.988610  -176.435230
	   41 D(4,3,5,11)     =     62.704496     0.000007     1.242018    63.946514
	   42 D(4,3,5,12)     =    -58.302626    -0.000001     0.895169   -57.407458
	   43 D(5,3,4,7)      =   -159.281012     0.000001    -0.046281  -159.327293
	   44 D(5,3,4,8)      =    -39.852586    -0.000001     0.175217   -39.677369
	   45 D(5,3,4,9)      =     80.614146     0.000021     0.819187    81.433333
	   46 *D(6,3,4,7)     =    -39.999965    -0.000000     0.000000   -39.999965
	   47 D(6,3,4,8)      =     79.428461    -0.000002     0.221498    79.649958
	   48 D(6,3,4,9)      =   -160.104808     0.000021     0.865468  -159.239340
	   49 D(6,3,5,10)     =     63.712195     0.000002     1.013235    64.725431
	   50 D(6,3,5,11)     =    -56.159468     0.000009     1.266643   -54.892826
	   51 D(6,3,5,12)     =   -177.166591     0.000001     0.919794  -176.246797
	   52 R(8,11)         =      2.601366     0.015944     0.028493     2.629858
	 ---------------------------------------------------------------------------
	Successfully symmetrized geometry.

  ==> Convergence Check <==

  Measures of convergence in internal coordinates in au.
  Criteria marked as inactive (o), active & met (*), and active & unmet ( ).
  ---------------------------------------------------------------------------------------------
   Step     Total Energy     Delta E     MAX Force     RMS Force      MAX Disp      RMS Disp   
  ---------------------------------------------------------------------------------------------
    Convergence Criteria    1.00e-06 *    3.00e-04 *             o    1.20e-03 *             o
  ---------------------------------------------------------------------------------------------
      2    -786.58842317   -4.59e-04      2.98e-03      1.01e-03 o    5.38e-02      1.29e-02 o  ~
  ---------------------------------------------------------------------------------------------

	Writing optimization data to binary file.
	Structure for next step:
	Cartesian Geometry (in Angstrom)
	    H    -0.1321877374   2.0276475414   0.6627214589
	    O    -0.0513375262   1.8825945754  -0.2657043200
	    C     0.0061182359   0.5361716001  -0.5587093443
	    C    -1.2707716511  -0.1616528669  -0.0747268389
	    C     1.2897242459  -0.0870953662  -0.0126205023
	    H     0.0261510573   0.4546967774  -1.6349856853
	    F    -2.2610811973   0.1134496044  -0.8883224990
	    F    -1.1422745468  -1.4651793268  -0.0342383578
	    F    -1.6080408107   0.2506139918   1.1266086837
	    F     2.3247942686   0.6091242986  -0.4095499086
	    F     1.4534557788  -1.3162205769  -0.4293970441
	    F     1.2951333009  -0.0932429558   1.3042953666
			--------------------------
			 OPTKING Finished Execution 
			--------------------------

    Structure for next step:
    Molecular point group: c1
    Full point group: C1

    Geometry (in Angstrom), charge = 0, multiplicity = 1:

    H           -0.135464469963     2.028015512418     0.664298894082
    O           -0.054614258788     1.882962546423    -0.264126884806
    C            0.002841503323     0.536539571044    -0.557131909151
    C           -1.274048383635    -0.161284895905    -0.073149403746
    C            1.286447513374    -0.086727395240    -0.011043067123
    H            0.022874324748     0.455064748399    -1.633408250062
    F           -2.264357929887     0.113817575352    -0.886745063818
    F           -1.145551279392    -1.464811355806    -0.032660922583
    F           -1.611317543306     0.250981962781     1.128186118912
    F            2.321517536013     0.609492269636    -0.407972473425
    F            1.450179046261    -1.315852605895    -0.427819608874
    F            1.291856568316    -0.092874984827     1.305872801785

gradient() will perform analytic gradient computation.

*** tstart() called on cx1-27-4-2
*** at Sat Sep 10 16:47:44 2016


         ---------------------------------------------------------
                                   SCF
            by Justin Turney, Rob Parrish, and Andy Simmonett
                              RHF Reference
                        4 Threads,   2000 MiB Core
         ---------------------------------------------------------

  ==> Geometry <==

    Molecular point group: c1
    Full point group: C1

    Geometry (in Angstrom), charge = 0, multiplicity = 1:

       Center              X                  Y                   Z               Mass       
    ------------   -----------------  -----------------  -----------------  -----------------
           H         -0.135464469963     2.028015512418     0.664298894082     1.007825032070
           O         -0.054614258788     1.882962546423    -0.264126884806    15.994914619560
           C          0.002841503323     0.536539571044    -0.557131909151    12.000000000000
           C         -1.274048383635    -0.161284895905    -0.073149403746    12.000000000000
           C          1.286447513374    -0.086727395240    -0.011043067123    12.000000000000
           H          0.022874324748     0.455064748399    -1.633408250062     1.007825032070
           F         -2.264357929887     0.113817575352    -0.886745063818    18.998403224000
           F         -1.145551279392    -1.464811355806    -0.032660922583    18.998403224000
           F         -1.611317543306     0.250981962781     1.128186118912    18.998403224000
           F          2.321517536013     0.609492269636    -0.407972473425    18.998403224000
           F          1.450179046261    -1.315852605895    -0.427819608874    18.998403224000
           F          1.291856568316    -0.092874984827     1.305872801785    18.998403224000

  Running in c1 symmetry.

  Rotational constants: A =      0.07233  B =      0.03576  C =      0.03165 [cm^-1]
  Rotational constants: A =   2168.32182  B =   1072.08634  C =    948.70737 [MHz]
  Nuclear repulsion =  671.383819602946460

  Charge       = 0
  Multiplicity = 1
  Electrons    = 82
  Nalpha       = 41
  Nbeta        = 41

  ==> Algorithm <==

  SCF Algorithm Type is DF.
  DIIS enabled.
  MOM disabled.
  Fractional occupation disabled.
  Guess Type is READ.
  Energy threshold   = 1.00e-08
  Density threshold  = 1.00e-08
  Integral threshold = 0.00e+00

  ==> Primary Basis <==

  Basis Set: CC-PVTZ
    Number of shells: 112
    Number of basis function: 328
    Number of Cartesian functions: 380
    Spherical Harmonics?: true
    Max angular momentum: 3

  ==> Pre-Iterations <==

   -------------------------------------------------------
    Irrep   Nso     Nmo     Nalpha   Nbeta   Ndocc  Nsocc
   -------------------------------------------------------
     A        328     328       0       0       0       0
   -------------------------------------------------------
    Total     328     328      41      41      41       0
   -------------------------------------------------------

  ==> Integral Setup <==

  ==> DFJK: Density-Fitted J/K Matrices <==

    J tasked:                  Yes
    K tasked:                  Yes
    wK tasked:                  No
    OpenMP threads:              4
    Integrals threads:           4
    Memory (MB):              1430
    Algorithm:                Core
    Integral Cache:           NONE
    Schwarz Cutoff:          1E-12
    Fitting Condition:       1E-12

   => Auxiliary Basis Set <=

  Basis Set: 
    Number of shells: 270
    Number of basis function: 850
    Number of Cartesian functions: 1030
    Spherical Harmonics?: true
    Max angular momentum: 4

  Minimum eigenvalue in the overlap matrix is 7.5135061732E-04.
  Using Symmetric Orthogonalization.
  SCF Guess: Reading in previously saved MOs, projecting if necessary.

  Using orbitals from previous SCF, no projection.
  Recomputing DOCC and SOCC from number of alpha and beta electrons from previous calculation.
              A 
    DOCC [    41 ]

  ==> Iterations <==

                           Total Energy        Delta E     RMS |[F,P]|

   @DF-RHF iter   0:  -786.58424857387104   -7.86584e+02   2.06872e-04 
   @DF-RHF iter   1:  -786.58847943085311   -4.23086e-03   3.23501e-05 
   @DF-RHF iter   2:  -786.58856087455979   -8.14437e-05   1.14333e-05 DIIS
   @DF-RHF iter   3:  -786.58857216276942   -1.12882e-05   4.92842e-06 DIIS
   @DF-RHF iter   4:  -786.58857336266738   -1.19990e-06   1.11250e-06 DIIS
   @DF-RHF iter   5:  -786.58857348771176   -1.25044e-07   3.92838e-07 DIIS
   @DF-RHF iter   6:  -786.58857350344806   -1.57363e-08   9.26540e-08 DIIS
   @DF-RHF iter   7:  -786.58857350427388   -8.25821e-10   2.39837e-08 DIIS
   @DF-RHF iter   8:  -786.58857350431390   -4.00178e-11   8.69502e-09 DIIS

  ==> Post-Iterations <==

    Orbital Energies (a.u.)
    -----------------------

    Doubly Occupied:                                                      

       1A    -26.360466     2A    -26.357791     3A    -26.357155  
       4A    -26.355837     5A    -26.355163     6A    -26.352920  
       7A    -20.609187     8A    -11.521061     9A    -11.518618  
      10A    -11.351435    11A     -1.772569    12A     -1.766505  
      13A     -1.667955    14A     -1.664153    15A     -1.663295  
      16A     -1.660356    17A     -1.438763    18A     -1.102999  
      19A     -1.001781    20A     -0.945123    21A     -0.871502  
      22A     -0.869080    23A     -0.859139    24A     -0.853010  
      25A     -0.840252    26A     -0.822931    27A     -0.747753  
      28A     -0.735183    29A     -0.731917    30A     -0.727091  
      31A     -0.695832    32A     -0.692289    33A     -0.689192  
      34A     -0.682244    35A     -0.676869    36A     -0.668065  
      37A     -0.664362    38A     -0.656058    39A     -0.625537  
      40A     -0.554849    41A     -0.509805  

    Virtual:                                                              

      42A      0.153449    43A      0.158236    44A      0.262395  
      45A      0.288774    46A      0.302541    47A      0.326610  
      48A      0.340595    49A      0.380448    50A      0.401966  
      51A      0.436500    52A      0.453033    53A      0.464691  
      54A      0.481733    55A      0.495733    56A      0.506515  
      57A      0.511492    58A      0.522215    59A      0.529907  
      60A      0.556964    61A      0.589086    62A      0.599105  
      63A      0.610069    64A      0.647515    65A      0.674579  
      66A      0.723749    67A      0.731231    68A      0.749650  
      69A      0.766126    70A      0.800054    71A      0.838095  
      72A      0.868169    73A      0.881734    74A      0.905591  
      75A      0.936477    76A      0.949378    77A      0.970854  
      78A      0.992185    79A      1.015241    80A      1.020448  
      81A      1.028757    82A      1.054825    83A      1.078350  
      84A      1.084450    85A      1.111877    86A      1.114335  
      87A      1.123746    88A      1.135320    89A      1.140475  
      90A      1.170206    91A      1.193859    92A      1.216798  
      93A      1.232467    94A      1.276125    95A      1.303693  
      96A      1.343262    97A      1.375333    98A      1.384775  
      99A      1.405588   100A      1.421300   101A      1.480579  
     102A      1.488991   103A      1.500463   104A      1.517931  
     105A      1.555119   106A      1.623720   107A      1.642107  
     108A      1.714765   109A      1.761383   110A      1.850147  
     111A      1.973840   112A      1.988668   113A      2.016502  
     114A      2.062806   115A      2.118627   116A      2.145742  
     117A      2.153433   118A      2.182084   119A      2.190879  
     120A      2.208928   121A      2.222857   122A      2.232794  
     123A      2.234544   124A      2.254134   125A      2.282201  
     126A      2.310920   127A      2.320013   128A      2.325971  
     129A      2.353963   130A      2.378309   131A      2.379168  
     132A      2.443147   133A      2.452571   134A      2.455282  
     135A      2.472278   136A      2.544630   137A      2.565079  
     138A      2.641812   139A      2.646670   140A      2.673284  
     141A      2.702802   142A      2.720935   143A      2.754447  
     144A      2.770153   145A      2.777902   146A      2.811174  
     147A      2.818732   148A      2.854634   149A      2.877233  
     150A      2.918557   151A      2.945976   152A      3.020941  
     153A      3.045355   154A      3.115618   155A      3.123911  
     156A      3.220651   157A      3.228139   158A      3.249746  
     159A      3.281170   160A      3.285860   161A      3.288709  
     162A      3.301800   163A      3.316583   164A      3.336991  
     165A      3.354204   166A      3.383152   167A      3.425067  
     168A      3.443741   169A      3.470750   170A      3.509503  
     171A      3.539347   172A      3.554777   173A      3.591728  
     174A      3.609236   175A      3.644928   176A      3.657034  
     177A      3.683500   178A      3.730344   179A      3.734853  
     180A      3.775727   181A      3.789132   182A      3.818467  
     183A      3.846275   184A      3.891104   185A      3.904562  
     186A      3.927139   187A      3.935012   188A      3.947611  
     189A      3.972379   190A      4.009029   191A      4.027813  
     192A      4.075290   193A      4.114213   194A      4.169632  
     195A      4.205277   196A      4.252807   197A      4.265108  
     198A      4.325200   199A      4.339988   200A      4.368602  
     201A      4.444760   202A      4.466314   203A      4.519965  
     204A      4.546960   205A      4.562742   206A      4.588571  
     207A      4.609529   208A      4.751787   209A      4.793137  
     210A      5.099543   211A      5.165528   212A      5.196408  
     213A      5.252173   214A      5.307541   215A      5.317885  
     216A      5.340806   217A      5.346522   218A      5.377251  
     219A      5.397802   220A      5.423251   221A      5.460678  
     222A      5.493809   223A      5.509436   224A      5.543592  
     225A      5.563919   226A      5.577242   227A      5.615550  
     228A      5.782800   229A      5.941997   230A      6.025609  
     231A      6.120073   232A      6.134466   233A      6.353029  
     234A      6.544491   235A      6.559462   236A      6.593240  
     237A      6.608106   238A      6.729970   239A      7.012580  
     240A      7.111985   241A      7.192285   242A      7.234029  
     243A      7.293959   244A      7.295984   245A      7.312209  
     246A      7.333636   247A      7.336280   248A      7.338208  
     249A      7.339683   250A      7.341531   251A      7.343583  
     252A      7.344134   253A      7.344707   254A      7.348762  
     255A      7.350203   256A      7.352165   257A      7.355070  
     258A      7.359178   259A      7.360157   260A      7.366539  
     261A      7.374914   262A      7.437894   263A      7.490695  
     264A      7.493555   265A      7.504001   266A      7.509121  
     267A      7.519174   268A      7.541208   269A      7.590975  
     270A      7.591399   271A      7.614482   272A      7.615477  
     273A      7.622606   274A      7.629774   275A      7.705310  
     276A      7.850909   277A      7.865474   278A      7.918870  
     279A      7.933059   280A      7.944419   281A      7.953389  
     282A      8.009442   283A      8.094093   284A      8.098098  
     285A      8.148803   286A      8.158975   287A      8.166442  
     288A      8.193579   289A      8.872501   290A      8.890141  
     291A      8.896914   292A      8.908585   293A      8.920169  
     294A      8.921289   295A      9.003187   296A      9.011315  
     297A      9.020991   298A      9.036330   299A      9.058898  
     300A      9.113102   301A      9.168356   302A      9.207305  
     303A      9.311129   304A      9.319650   305A      9.376923  
     306A      9.390844   307A      9.398648   308A      9.404448  
     309A      9.505276   310A      9.514155   311A      9.656675  
     312A      9.668760   313A      9.675372   314A      9.681009  
     315A      9.724829   316A      9.738394   317A      9.740644  
     318A      9.750271   319A     10.821985   320A     11.326048  
     321A     12.050814   322A     12.412436   323A     12.495600  
     324A     12.629495   325A     12.738623   326A     13.340538  
     327A     13.470807   328A     13.689815  

    Final Occupation by Irrep:
              A 
    DOCC [    41 ]

  Energy converged.

  @DF-RHF Final Energy:  -786.58857350431390

   => Energetics <=

    Nuclear Repulsion Energy =            671.3838196029464598
    One-Electron Energy =               -2429.9525936482687030
    Two-Electron Energy =                 971.9802005410083439
    DFT Exchange-Correlation Energy =       0.0000000000000000
    Empirical Dispersion Energy =           0.0000000000000000
    PCM Polarization Energy =               0.0000000000000000
    EFP Energy =                            0.0000000000000000
    Total Energy =                       -786.5885735043138993


  Saving occupied orbitals to File 180.

*** tstop() called on cx1-27-4-2 at Sat Sep 10 16:47:50 2016
Module time:
	user time   =      21.41 seconds =       0.36 minutes
	system time =       0.53 seconds =       0.01 minutes
	total time  =          6 seconds =       0.10 minutes
Total time:
	user time   =     137.69 seconds =       2.29 minutes
	system time =       3.24 seconds =       0.05 minutes
	total time  =         39 seconds =       0.65 minutes


Properties will be evaluated at   0.000000,   0.000000,   0.000000 Bohr

Properties computed using the SCF density matrix

  Nuclear Dipole Moment: (a.u.)
     X:    -0.1457      Y:     4.1285      Z:    -1.5502

  Electronic Dipole Moment: (a.u.)
     X:     0.1038      Y:    -3.8758      Z:     1.5038

  Dipole Moment: (a.u.)
     X:    -0.0420      Y:     0.2527      Z:    -0.0464     Total:     0.2603

  Dipole Moment: (Debye)
     X:    -0.1067      Y:     0.6423      Z:    -0.1178     Total:     0.6616


*** tstart() called on cx1-27-4-2
*** at Sat Sep 10 16:47:50 2016


         ------------------------------------------------------------
                                   SCF GRAD                          
                          Rob Parrish, Justin Turney,                
                       Andy Simmonett, and Alex Sokolov              
         ------------------------------------------------------------

  ==> Geometry <==

    Molecular point group: c1
    Full point group: C1

    Geometry (in Angstrom), charge = 0, multiplicity = 1:

       Center              X                  Y                   Z               Mass       
    ------------   -----------------  -----------------  -----------------  -----------------
           H         -0.135464469963     2.028015512418     0.664298894082     1.007825032070
           O         -0.054614258788     1.882962546423    -0.264126884806    15.994914619560
           C          0.002841503323     0.536539571044    -0.557131909151    12.000000000000
           C         -1.274048383635    -0.161284895905    -0.073149403746    12.000000000000
           C          1.286447513374    -0.086727395240    -0.011043067123    12.000000000000
           H          0.022874324748     0.455064748399    -1.633408250062     1.007825032070
           F         -2.264357929887     0.113817575352    -0.886745063818    18.998403224000
[...]
     X:    -0.0452      Y:     0.2476      Z:    -0.0437     Total:     0.2555

  Dipole Moment: (Debye)
     X:    -0.1150      Y:     0.6294      Z:    -0.1111     Total:     0.6494


*** tstart() called on cx1-27-4-2
*** at Sat Sep 10 16:48:33 2016


         ------------------------------------------------------------
                                   SCF GRAD                          
                          Rob Parrish, Justin Turney,                
                       Andy Simmonett, and Alex Sokolov              
         ------------------------------------------------------------

  ==> Geometry <==

    Molecular point group: c1
    Full point group: C1

    Geometry (in Angstrom), charge = 0, multiplicity = 1:

       Center              X                  Y                   Z               Mass       
    ------------   -----------------  -----------------  -----------------  -----------------
           H         -0.142655788627     2.021853962214     0.663895130873     1.007825032070
           O         -0.049531712482     1.877392438892    -0.263398131496    15.994914619560
           C          0.005176585258     0.530867107416    -0.555314111596    12.000000000000
           C         -1.277304585904    -0.160167452498    -0.074550505947    12.000000000000
           C          1.290692999486    -0.089076217739    -0.008480628831    12.000000000000
           H          0.029458820476     0.445568469610    -1.631143725801     1.007825032070
           F         -2.260307935039     0.118696619026    -0.895854784307    18.998403224000
           F         -1.159748800542    -1.464101488628    -0.026779675203    18.998403224000
           F         -1.618058883004     0.258109120619     1.124168051000    18.998403224000
           F          2.321048404241     0.614964207642    -0.404155642317    18.998403224000
           F          1.459955248031    -1.317364372328    -0.429239219904    18.998403224000
           F          1.293091740826    -0.099670402115     1.308128153554    18.998403224000

  Nuclear repulsion =  670.922377193919488

  ==> Basis Set <==

  Basis Set: CC-PVTZ
    Number of shells: 112
    Number of basis function: 328
    Number of Cartesian functions: 380
    Spherical Harmonics?: true
    Max angular momentum: 3

  ==> DFJKGrad: Density-Fitted SCF Gradients <==

    Gradient:                    1
    J tasked:                  Yes
    K tasked:                  Yes
    wK tasked:                  No
    OpenMP threads:              4
    Integrals threads:           4
    Memory (MB):              1430
    Schwarz Cutoff:          0E+00
    Fitting Condition:       1E-12

   => Auxiliary Basis Set <=

  Basis Set: 
    Number of shells: 270
    Number of basis function: 850
    Number of Cartesian functions: 1030
    Spherical Harmonics?: true
    Max angular momentum: 4


  -Total Gradient:
     Atom            X                  Y                   Z
    ------   -----------------  -----------------  -----------------
       1        0.000000322559    -0.000004919799    -0.000000722161
       2        0.000040061081    -0.000043304872     0.000000742428
       3        0.002030097642    -0.003919450143    -0.000075328770
       4       -0.001120833311     0.003316621839     0.001845882451
       5        0.000013415264    -0.000004075035    -0.000050668522
       6       -0.001579411828     0.002739351749    -0.000263767086
       7        0.000646918611    -0.002111440615    -0.001444610441
       8        0.000037552631    -0.000033969379    -0.000010016903
       9        0.000010168421     0.000026460950    -0.000036784875
      10       -0.000036762053     0.000031499378     0.000009943283
      11       -0.000028708396     0.000006339311     0.000013727721
      12       -0.000012820616    -0.000003113388     0.000011602878


*** tstop() called on cx1-27-4-2 at Sat Sep 10 16:48:40 2016
Module time:
	user time   =      29.03 seconds =       0.48 minutes
	system time =       0.64 seconds =       0.01 minutes
	total time  =          7 seconds =       0.12 minutes
Total time:
	user time   =     318.31 seconds =       5.31 minutes
	system time =       7.11 seconds =       0.12 minutes
	total time  =         89 seconds =       1.48 minutes

			-----------------------------------------
			 OPTKING 2.0: for geometry optimizations 
			  - R.A. King,  Bethel University        
			-----------------------------------------

	Previous internal coordinate definitions found.
	---Fragment 1 Geometry and Gradient---
	 H          -0.2695803718        3.8207502693        1.2545799783
	 O          -0.0936013715        3.5477575535       -0.4977503324
	 C           0.0097823284        1.0031934460       -1.0493915886
	 C          -2.4137558556       -0.3026726206       -0.1408800393
	 C           2.4390562907       -0.1683296565       -0.0160260659
	 H           0.0556691029        0.8420023810       -3.0824149251
	 F          -4.2713629732        0.2243041029       -1.6929201972
	 F          -2.1916076160       -2.7667508443       -0.0506062521
	 F          -3.0576881558        0.4877555504        2.1243697437
	 F           4.3861458252        1.1621139340       -0.7637434790
	 F           2.7589155850       -2.4894578809       -0.8111445711
	 F           2.4435892549       -0.1883497636        2.4720039569
	             0.0000003226       -0.0000049198       -0.0000007222
	             0.0000400611       -0.0000433049        0.0000007424
	             0.0020300976       -0.0039194501       -0.0000753288
	            -0.0011208333        0.0033166218        0.0018458825
	             0.0000134153       -0.0000040750       -0.0000506685
	            -0.0015794118        0.0027393517       -0.0002637671
	             0.0006469186       -0.0021114406       -0.0014446104
	             0.0000375526       -0.0000339694       -0.0000100169
	             0.0000101684        0.0000264609       -0.0000367849
	            -0.0000367621        0.0000314994        0.0000099433
	            -0.0000287084        0.0000063393        0.0000137277
	            -0.0000128206       -0.0000031134        0.0000116029

	---Fragment 1 Intrafragment Coordinates---
	 - Coordinate -           - BOHR/RAD -       - ANG/DEG -
	 R(1,2)           =         1.782177	       0.943087
	 R(2,3)           =         2.605725	       1.378890
	 R(3,4)           =         2.899003	       1.534086
	 R(3,5)           =         2.888197	       1.528368
	 R(3,6)           =         2.039920	       1.079479
	 R(4,7)           =         2.477345	       1.310954
	 R(4,8)           =         2.475718	       1.310094
	 R(4,9)           =         2.484106	       1.314532
	 R(5,10)          =         2.473928	       1.309146
	 R(5,11)          =         2.474300	       1.309343
	 R(5,12)          =         2.488115	       1.316654
	 B(1,2,3)         =         1.940844	     111.202163
	 B(2,3,4)         =         1.918103	     109.899231
	 B(2,3,5)         =         1.932352	     110.715612
	 B(2,3,6)         =         1.864024	     106.800729
	 B(3,4,7)         =         1.912086	     109.554432
	 B(3,4,8)         =         1.965732	     112.628148
	 B(3,4,9)         =         1.938155	     111.048117
	 B(3,5,10)        =         1.913154	     109.615641
	 B(3,5,11)        =         1.954406	     111.979204
	 B(3,5,12)        =         1.941824	     111.258302
	 B(4,3,5)         =         1.991402	     114.098912
	 B(4,3,6)         =         1.870816	     107.189871
	 B(5,3,6)         =         1.881373	     107.794726
	 B(7,4,8)         =         1.877425	     107.568515
	 B(7,4,9)         =         1.885188	     108.013330
	 B(8,4,9)         =         1.882528	     107.860901
	 B(10,5,11)       =         1.881392	     107.795846
	 B(10,5,12)       =         1.880863	     107.765504
	 B(11,5,12)       =         1.889732	     108.273679
	 D(1,2,3,4)       =         1.038664	      59.511054
	 D(1,2,3,5)       =        -1.177071	     -67.441189
	 D(1,2,3,6)       =         3.062402	     175.462717
	 D(2,3,4,7)       =         1.321319	      75.705977
	 D(2,3,4,8)       =        -2.873131	    -164.618303
	 D(2,3,4,9)       =        -0.759633	     -43.523760
	 D(2,3,5,10)      =        -0.898517	     -51.481252
	 D(2,3,5,11)      =        -2.985684	    -171.067072
	 D(2,3,5,12)      =         1.180042	      67.611403
	 D(4,3,5,10)      =        -3.073141	    -176.078029
	 D(4,3,5,11)      =         1.122878	      64.336151
	 D(4,3,5,12)      =        -0.994582	     -56.985375
	 D(5,3,4,7)       =        -2.779660	    -159.262789
	 D(5,3,4,8)       =        -0.690925	     -39.587069
	 D(5,3,4,9)       =         1.422574	      81.507474
	*D(6,3,4,7)       =        -0.698131	     -39.999965
	 D(6,3,4,8)       =         1.390604	      79.675755
	 D(6,3,4,9)       =        -2.779083	    -159.229702
	 D(6,3,5,10)      =         1.134494	      65.001746
	 D(6,3,5,11)      =        -0.952672	     -54.584074
	 D(6,3,5,12)      =        -3.070132	    -175.905600
	 R(8,11)          =         5.016273	       2.654497

	Current energy   :      -786.5886066703

	Energy change for the previous step:
		Projected    :         0.0000003068
		Actual       :        -0.0000005335

	Performing BFGS update.
	Previous computed or guess Hessian on step 1.
	Steps to be used in Hessian update: 5 4
	Taking RFO optimization step.
	Going to follow RFO solution 1.
	Using RFO vector 1.
	Norm of target step-size    0.00356
	Projected energy change by RFO approximation:        -0.0000001413

	Back-transformation to cartesian coordinates...
	Successfully converged to displaced geometry.

	Back-transformation to cartesian coordinates to adjust frozen coordinates...
	Successfully converged to displaced geometry.

	--- Internal Coordinate Step in ANG or DEG, aJ/ANG or AJ/DEG ---
	 ---------------------------------------------------------------------------
	   Coordinate                Previous        Force       Change         New 
	   ----------                --------       ------       ------       ------
	    1 R(1,2)          =      0.943087     0.000012     0.000005     0.943092
	    2 R(2,3)          =      1.378890     0.000401     0.000058     1.378948
	    3 R(3,4)          =      1.534086     0.000469     0.000096     1.534182
	    4 R(3,5)          =      1.528368     0.000492     0.000096     1.528464
	    5 R(3,6)          =      1.079479    -0.000090    -0.000007     1.079472
	    6 R(4,7)          =      1.310954     0.000240     0.000017     1.310971
	    7 R(4,8)          =      1.310094    -0.000299    -0.000042     1.310052
	    8 R(4,9)          =      1.314532     0.000229     0.000030     1.314562
	    9 R(5,10)         =      1.309146     0.000124     0.000020     1.309166
	   10 R(5,11)         =      1.309343     0.000099     0.000026     1.309369
	   11 R(5,12)         =      1.316654    -0.000096    -0.000027     1.316626
	   12 B(1,2,3)        =    111.202163     0.000001     0.006910   111.209072
	   13 B(2,3,4)        =    109.899231    -0.000001    -0.012042   109.887189
	   14 B(2,3,5)        =    110.715612     0.000003     0.006352   110.721963
	   15 B(2,3,6)        =    106.800729    -0.000001    -0.010608   106.790122
	   16 B(3,4,7)        =    109.554432     0.000004     0.011851   109.566283
	   17 B(3,4,8)        =    112.628148     0.000001     0.009132   112.637281
	   18 B(3,4,9)        =    111.048117     0.000002     0.005102   111.053219
	   19 B(3,5,10)       =    109.615641     0.000004     0.005167   109.620808
	   20 B(3,5,11)       =    111.979204    -0.000001     0.004496   111.983700
	   21 B(3,5,12)       =    111.258302     0.000001    -0.001525   111.256777
	   22 B(4,3,5)        =    114.098912    -0.000002     0.010233   114.109144
	   23 B(4,3,6)        =    107.189871     0.000001    -0.000172   107.189699
	   24 B(5,3,6)        =    107.794726    -0.000000     0.004989   107.799716
	   25 B(7,4,8)        =    107.568515    -0.000003    -0.014577   107.553939
	   26 B(7,4,9)        =    108.013330    -0.000002    -0.000921   108.012409
	   27 B(8,4,9)        =    107.860901    -0.000003    -0.011846   107.849054
	   28 B(10,5,11)      =    107.795846    -0.000003    -0.010162   107.785684
	   29 B(10,5,12)      =    107.765504    -0.000002     0.001365   107.766869
	   30 B(11,5,12)      =    108.273679    -0.000000     0.000221   108.273900
	   31 D(1,2,3,4)      =     59.511054    -0.000000     0.015437    59.526492
	   32 D(1,2,3,5)      =    -67.441189     0.000000     0.006442   -67.434747
	   33 D(1,2,3,6)      =    175.462717    -0.000000     0.003245   175.465962
	   34 D(2,3,4,7)      =     75.705977    -0.000000    -0.018871    75.687106
	   35 D(2,3,4,8)      =   -164.618303    -0.000000    -0.023272  -164.641575
	   36 D(2,3,4,9)      =    -43.523760    -0.000001    -0.028489   -43.552249
	   37 D(2,3,5,10)     =    -51.481252    -0.000000    -0.066351   -51.547603
	   38 D(2,3,5,11)     =   -171.067072    -0.000000    -0.059930  -171.127002
	   39 D(2,3,5,12)     =     67.611403    -0.000000    -0.062284    67.549119
	   40 D(4,3,5,10)     =   -176.078029    -0.000000    -0.063208  -176.141237
	   41 D(4,3,5,11)     =     64.336151    -0.000000    -0.056787    64.279364
	   42 D(4,3,5,12)     =    -56.985375    -0.000000    -0.059141   -57.044515
	   43 D(5,3,4,7)      =   -159.262789     0.000000    -0.012321  -159.275111
	   44 D(5,3,4,8)      =    -39.587069     0.000000    -0.016722   -39.603791
	   45 D(5,3,4,9)      =     81.507474    -0.000000    -0.021939    81.485534
	   46 *D(6,3,4,7)     =    -39.999965     0.000000     0.000000   -39.999965
	   47 D(6,3,4,8)      =     79.675755     0.000000    -0.004401    79.671354
	   48 D(6,3,4,9)      =   -159.229702    -0.000000    -0.009618  -159.239321
	   49 D(6,3,5,10)     =     65.001746    -0.000000    -0.072710    64.929036
	   50 D(6,3,5,11)     =    -54.584074     0.000000    -0.066288   -54.650362
	   51 D(6,3,5,12)     =   -175.905600     0.000000    -0.068642  -175.974242
	   52 R(8,11)         =      2.654497     0.000140     0.000048     2.654546
	 ---------------------------------------------------------------------------
	Successfully symmetrized geometry.

  ==> Convergence Check <==

  Measures of convergence in internal coordinates in au.
  Criteria marked as inactive (o), active & met (*), and active & unmet ( ).
  ---------------------------------------------------------------------------------------------
   Step     Total Energy     Delta E     MAX Force     RMS Force      MAX Disp      RMS Disp   
  ---------------------------------------------------------------------------------------------
    Convergence Criteria    1.00e-06 *    3.00e-04 *             o    1.20e-03 *             o
  ---------------------------------------------------------------------------------------------
      6    -786.58860667   -5.33e-07 *    5.97e-05 *    2.50e-05 o    1.27e-03      4.94e-04 o  ~
  ---------------------------------------------------------------------------------------------


  **** Optimization is complete! (in 6 steps) ****

  ==> Optimization Summary <==

  Measures of convergence in internal coordinates in au.
  --------------------------------------------------------------------------------------------------------------- ~
   Step         Total Energy             Delta E       MAX Force       RMS Force        MAX Disp        RMS Disp  ~
  --------------------------------------------------------------------------------------------------------------- ~
      1    -786.587963772485   -786.587963772485      0.00280201      0.00097853      0.13264819      0.05458330  ~
      2    -786.588423168725     -0.000459396240      0.00297899      0.00100691      0.05384345      0.01290333  ~
      3    -786.588573504314     -0.000150335589      0.00103666      0.00040217      0.03197027      0.00594215  ~
      4    -786.588603041184     -0.000029536870      0.00036965      0.00014154      0.01360858      0.00226847  ~
      5    -786.588606136873     -0.000003095689      0.00018228      0.00007535      0.00317138      0.00128723  ~
      6    -786.588606670346     -0.000000533472      0.00005973      0.00002498      0.00126902      0.00049353  ~
  --------------------------------------------------------------------------------------------------------------- ~

	Writing optimization data to binary file.
	Final energy is   -786.5886066703457
	Final (previous) structure:
	Cartesian Geometry (in Angstrom)
	    H    -0.1426557886   2.0218539622   0.6638951309
	    O    -0.0495317125   1.8773924389  -0.2633981315
	    C     0.0051765853   0.5308671074  -0.5553141116
	    C    -1.2773045859  -0.1601674525  -0.0745505059
	    C     1.2906929995  -0.0890762177  -0.0084806288
	    H     0.0294588205   0.4455684696  -1.6311437258
	    F    -2.2603079350   0.1186966190  -0.8958547843
	    F    -1.1597488005  -1.4641014886  -0.0267796752
	    F    -1.6180588830   0.2581091206   1.1241680510
	    F     2.3210484042   0.6149642076  -0.4041556423
	    F     1.4599552480  -1.3173643723  -0.4292392199
	    F     1.2930917408  -0.0996704021   1.3081281536
	Saving final (previous) structure.
			--------------------------
			 OPTKING Finished Execution 
			--------------------------

    Final optimized geometry and variables:
    Molecular point group: c1
    Full point group: C1

    Geometry (in Angstrom), charge = 0, multiplicity = 1:

    H           -0.142655788627     2.021853962214     0.663895130873
    O           -0.049531712482     1.877392438892    -0.263398131496
    C            0.005176585258     0.530867107416    -0.555314111596
    C           -1.277304585904    -0.160167452498    -0.074550505947
    C            1.290692999486    -0.089076217739    -0.008480628831
    H            0.029458820476     0.445568469610    -1.631143725801
    F           -2.260307935039     0.118696619026    -0.895854784307
    F           -1.159748800542    -1.464101488628    -0.026779675203
    F           -1.618058883004     0.258109120619     1.124168051000
    F            2.321048404241     0.614964207642    -0.404155642317
    F            1.459955248031    -1.317364372328    -0.429239219904
    F            1.293091740826    -0.099670402115     1.308128153554

	Cleaning optimization helper files.


Properties will be evaluated at   0.000000,   0.000000,   0.000000 Bohr

Properties computed using the  density matrix

  Nuclear Dipole Moment: (a.u.)
     X:    -0.1403      Y:     4.1045      Z:    -1.5460

  Electronic Dipole Moment: (a.u.)
     X:     0.0951      Y:    -3.8569      Z:     1.5023

  Dipole Moment: (a.u.)
     X:    -0.0452      Y:     0.2476      Z:    -0.0437     Total:     0.2555

  Dipole Moment: (Debye)
     X:    -0.1150      Y:     0.6294      Z:    -0.1111     Total:     0.6494

  Quadrupole Moment: (Debye Ang)
    XX:   -57.2766     YY:   -54.7705     ZZ:   -50.7013
    XY:    -0.3596     XZ:    -0.3922     YZ:     2.8368

  Traceless Quadrupole Moment: (Debye Ang)
    XX:    -3.0272     YY:    -0.5211     ZZ:     3.5482
    XY:    -0.3596     XZ:    -0.3922     YZ:     2.8368

  Mulliken Charges: (a.u.)
   Center  Symbol    Alpha    Beta     Spin     Total
       1     H     0.38086  0.38086  0.00000  0.23829
       2     O     4.18982  4.18982  0.00000 -0.37965
       3     C     3.01041  3.01041  0.00000 -0.02083
       4     C     2.68035  2.68035  0.00000  0.63931
       5     C     2.68336  2.68336  0.00000  0.63328
       6     H     0.42457  0.42457  0.00000  0.15086
       7     F     4.60308  4.60308  0.00000 -0.20615
       8     F     4.60203  4.60203  0.00000 -0.20406
       9     F     4.61024  4.61024  0.00000 -0.22047
      10     F     4.60097  4.60097  0.00000 -0.20195
      11     F     4.60345  4.60345  0.00000 -0.20691
      12     F     4.61086  4.61086  0.00000 -0.22172

   Total alpha = 41.00000, Total beta = 41.00000, Total charge =  0.00000


*** Psi4 exiting successfully. Buy a developer a beer!
