    -----------------------------------------------------------------------
          Psi4: An Open-Source Ab Initio Electronic Structure Package
                              Psi4 (no tag) Driver

                          Git: Rev {detached?}  

    J. M. Turney, A. C. Simmonett, R. M. Parrish, E. G. Hohenstein,
    F. A. Evangelista, J. T. Fermann, B. J. Mintz, L. A. Burns, J. J. Wilke,
    M. L. Abrams, N. J. Russ, M. L. Leininger, C. L. Janssen, E. T. Seidl,
    W. D. Allen, H. F. Schaefer, R. A. King, E. F. Valeev, C. D. Sherrill,
    and T. D. Crawford, WIREs Comput. Mol. Sci. 2, 556-565 (2012)
    (doi: 10.1002/wcms.93)

                         Additional Contributions by
    A. E. DePrince, M. Saitow, U. Bozkaya, A. Yu. Sokolov
    -----------------------------------------------------------------------


    Psi4 started on: Fri Sep  2 14:07:40 2016

    Process ID:  31579
    PSI4DATADIR: /export131/home/mjharvey/miniconda3/share
    Memory level set to 256.000 MB

  ==> Input File <==

--------------------------------------------------------------------------
set {
	reference rhf
	basis 6-31G*
}


set_num_threads( 4 )
memory 2 gb

molecule MOL {
0 1

O	 2.862325	 1.357334	 0.000267
C	 2.843464	 0.164689	 -0.000222
C	 1.546494	 -0.624492	 -0.000609
C	 4.124123	 -0.644674	 -0.000428
C	 0.291004	 0.242674	 0.000989
H	 1.557904	 -1.283758	 -0.867573
H	 1.558622	 -1.285963	 0.864672
C	 -0.994322	 -0.586602	 0.000262
H	 0.309117	 0.896430	 -0.865270
H	 0.309661	 0.894078	 0.869017
C	 -2.259874	 0.272531	 0.000494
H	 -1.004862	 -1.240012	 -0.870939
H	 -1.005220	 -1.241071	 0.870675
C	 -3.545761	 -0.543779	 -0.141437
H	 -2.202858	 0.996680	 -0.810293
H	 -2.301498	 0.850874	 0.921788
C	 -4.805576	 0.321409	 -0.140603
H	 -3.505838	 -1.121415	 -1.062614
H	 -3.604630	 -1.266989	 0.669341
H	 -4.792750	 1.033227	 -0.961151
H	 -5.700045	 -0.285300	 -0.243217
H	 -4.892873	 0.885747	 0.783544
H	 4.165367	 -1.288615	 -0.874074
H	 4.976217	 0.020734	 -0.001915
H	 4.166763	 -1.286207	 0.874930

	symmetry c1
}
set optking {
	frozen_dihedral = ("
		15 11 8 12
	")
}

ee = optimize('scf')
oeprop('DIPOLE', 'QUADRUPOLE', 'MULLIKEN_CHARGES')
f=open( 'psi4out.xyz', 'w' )
f.write( "25  " )
f.write( str(ee) + "\n" )
f.write( MOL.save_string_xyz() )
f.close()
--------------------------------------------------------------------------

  Memory set to   2.000 GiB by Python script.
gradient() will perform analytic gradient computation.

*** tstart() called on cx1-1-3-1.cx1.hpc.ic.ac.uk
*** at Fri Sep  2 14:07:41 2016


         ---------------------------------------------------------
                                   SCF
            by Justin Turney, Rob Parrish, and Andy Simmonett
                              RHF Reference
                        4 Threads,   2000 MiB Core
         ---------------------------------------------------------

  ==> Geometry <==

    Molecular point group: c1
    Full point group: C1

    Geometry (in Angstrom), charge = 0, multiplicity = 1:

       Center              X                  Y                   Z               Mass       
    ------------   -----------------  -----------------  -----------------  -----------------
           O          2.861414109216     1.355983649342     0.032135204062    15.994914619560
           C          2.842553109216     0.163338649342     0.031646204062    12.000000000000
           C          1.545583109216    -0.625842350658     0.031259204062    12.000000000000
           C          4.123212109216    -0.646024350658     0.031440204062    12.000000000000
           C          0.290093109216     0.241323649342     0.032857204062    12.000000000000
           H          1.556993109216    -1.285108350658    -0.835704795938     1.007825032070
           H          1.557711109216    -1.287313350658     0.896540204062     1.007825032070
           C         -0.995232890784    -0.587952350658     0.032130204062    12.000000000000
           H          0.308206109216     0.895079649342    -0.833401795938     1.007825032070
           H          0.308750109216     0.892727649342     0.900885204062     1.007825032070
           C         -2.260784890784     0.271180649342     0.032362204062    12.000000000000
           H         -1.005772890784    -1.241362350658    -0.839070795938     1.007825032070
           H         -1.006130890784    -1.242421350658     0.902543204062     1.007825032070
           C         -3.546671890784    -0.545129350658    -0.109568795938    12.000000000000
           H         -2.203768890784     0.995329649342    -0.778424795938     1.007825032070
           H         -2.302408890784     0.849523649342     0.953656204062     1.007825032070
           C         -4.806486890784     0.320058649342    -0.108734795938    12.000000000000
           H         -3.506748890784    -1.122765350658    -1.030745795938     1.007825032070
           H         -3.605540890784    -1.268339350658     0.701209204062     1.007825032070
           H         -4.793660890784     1.031876649342    -0.929282795938     1.007825032070
           H         -5.700955890784    -0.286650350658    -0.211348795938     1.007825032070
           H         -4.893783890784     0.884396649342     0.815412204062     1.007825032070
           H          4.164456109216    -1.289965350658    -0.842205795938     1.007825032070
           H          4.975306109216     0.019383649342     0.029953204062     1.007825032070
           H          4.165852109216    -1.287557350658     0.906798204062     1.007825032070

  Running in c1 symmetry.

  Rotational constants: A =      0.21437  B =      0.01457  C =      0.01389 [cm^-1]
  Rotational constants: A =   6426.76976  B =    436.73598  C =    416.28821 [MHz]
  Nuclear repulsion =  438.355618737117254

  Charge       = 0
  Multiplicity = 1
  Electrons    = 72
  Nalpha       = 36
  Nbeta        = 36

  ==> Algorithm <==

  SCF Algorithm Type is DF.
  DIIS enabled.
  MOM disabled.
  Fractional occupation disabled.
  Guess Type is CORE.
  Energy threshold   = 1.00e-08
  Density threshold  = 1.00e-08
  Integral threshold = 0.00e+00

  ==> Primary Basis <==

  Basis Set: 6-31G*
    Number of shells: 86
    Number of basis function: 167
    Number of Cartesian functions: 167
    Spherical Harmonics?: false
    Max angular momentum: 2

  ==> Pre-Iterations <==

   -------------------------------------------------------
    Irrep   Nso     Nmo     Nalpha   Nbeta   Ndocc  Nsocc
   -------------------------------------------------------
     A        167     167       0       0       0       0
   -------------------------------------------------------
    Total     167     167      36      36      36       0
   -------------------------------------------------------

 OEINTS: Overlap, kinetic, potential, dipole, and quadrupole integrals
         stored in file 35.

  ==> Integral Setup <==

  ==> DFJK: Density-Fitted J/K Matrices <==

    J tasked:                  Yes
    K tasked:                  Yes
    wK tasked:                  No
    OpenMP threads:              4
    Integrals threads:           4
    Memory (MB):              1430
    Algorithm:                Core
    Integral Cache:           NONE
    Schwarz Cutoff:          1E-12
    Fitting Condition:       1E-12

   => Auxiliary Basis Set <=

  Basis Set: 
    Number of shells: 360
    Number of basis function: 1129
    Number of Cartesian functions: 1129
    Spherical Harmonics?: false
    Max angular momentum: 3

  Minimum eigenvalue in the overlap matrix is 2.4661943884E-03.
  Using Symmetric Orthogonalization.
  SCF Guess: Core (One-Electron) Hamiltonian.

  ==> Iterations <==

                           Total Energy        Delta E     RMS |[F,P]|

   @DF-RHF iter   1:  -285.02268676232035   -2.85023e+02   6.19576e-02 
   @DF-RHF iter   2:  -121.34804375902712    1.63675e+02   7.22605e-02 DIIS
   @DF-RHF iter   3:  -283.82086352553011   -1.62473e+02   4.29756e-02 DIIS
   @DF-RHF iter   4:  -191.00042532774836    9.28204e+01   6.69088e-02 DIIS
   @DF-RHF iter   5:  -356.64652792294208   -1.65646e+02   2.84074e-02 DIIS
   @DF-RHF iter   6:  -371.21783743308362   -1.45713e+01   2.23815e-02 DIIS
   @DF-RHF iter   7:  -386.73845759532043   -1.55206e+01   5.01096e-03 DIIS
   @DF-RHF iter   8:  -387.07542262886506   -3.36965e-01   1.99933e-03 DIIS
   @DF-RHF iter   9:  -387.12862825524331   -5.32056e-02   5.83045e-04 DIIS
   @DF-RHF iter  10:  -387.13503832872271   -6.41007e-03   2.40639e-04 DIIS
   @DF-RHF iter  11:  -387.13618317502488   -1.14485e-03   9.33767e-05 DIIS
   @DF-RHF iter  12:  -387.13639139681180   -2.08222e-04   2.50978e-05 DIIS
   @DF-RHF iter  13:  -387.13641258707383   -2.11903e-05   9.39455e-06 DIIS
   @DF-RHF iter  14:  -387.13641563101413   -3.04394e-06   2.64750e-06 DIIS
   @DF-RHF iter  15:  -387.13641586517821   -2.34164e-07   8.50421e-07 DIIS
   @DF-RHF iter  16:  -387.13641588294496   -1.77668e-08   2.57684e-07 DIIS
   @DF-RHF iter  17:  -387.13641588501088   -2.06592e-09   7.21192e-08 DIIS
   @DF-RHF iter  18:  -387.13641588519312   -1.82240e-10   2.11361e-08 DIIS
   @DF-RHF iter  19:  -387.13641588520755   -1.44382e-11   6.86871e-09 DIIS

  ==> Post-Iterations <==

    Orbital Energies (a.u.)
    -----------------------

    Doubly Occupied:                                                      

       1A    -20.550480     2A    -11.326318     3A    -11.231894  
       4A    -11.228357     5A    -11.217105     6A    -11.216513  
       7A    -11.215391     8A    -11.213493     9A    -11.208312  
      10A     -1.395780    11A     -1.093634    12A     -1.056329  
      13A     -1.014518    14A     -0.969258    15A     -0.890711  
      16A     -0.814130    17A     -0.790817    18A     -0.729930  
      19A     -0.661494    20A     -0.651943    21A     -0.631925  
      22A     -0.624081    23A     -0.596012    24A     -0.584265  
      25A     -0.566336    26A     -0.560014    27A     -0.540163  
      28A     -0.526322    29A     -0.512609    30A     -0.489758  
      31A     -0.487877    32A     -0.473334    33A     -0.463771  
      34A     -0.462188    35A     -0.450740    36A     -0.399430  

    Virtual:                                                              

      37A      0.170630    38A      0.219693    39A      0.233483  
      40A      0.254886    41A      0.267537    42A      0.277169  
      43A      0.293047    44A      0.307130    45A      0.308097  
      46A      0.321724    47A      0.326119    48A      0.339193  
      49A      0.342889    50A      0.344297    51A      0.352554  
      52A      0.361379    53A      0.369849    54A      0.378292  
      55A      0.396471    56A      0.409400    57A      0.435172  
      58A      0.455214    59A      0.471712    60A      0.527971  
      61A      0.550581    62A      0.684981    63A      0.701802  
      64A      0.741641    65A      0.747295    66A      0.757672  
      67A      0.762586    68A      0.778705    69A      0.782246  
      70A      0.814689    71A      0.835300    72A      0.853654  
      73A      0.862254    74A      0.920266    75A      0.950557  
      76A      0.955762    77A      0.967781    78A      0.994312  
      79A      1.016095    80A      1.024741    81A      1.036213  
      82A      1.080507    83A      1.106323    84A      1.112116  
      85A      1.118443    86A      1.125548    87A      1.134651  
      88A      1.142018    89A      1.163852    90A      1.179876  
      91A      1.188167    92A      1.193952    93A      1.207768  
      94A      1.208308    95A      1.214779    96A      1.219565  
      97A      1.223859    98A      1.227731    99A      1.238664  
     100A      1.260159   101A      1.269596   102A      1.274066  
     103A      1.327766   104A      1.339771   105A      1.425003  
     106A      1.440763   107A      1.548743   108A      1.633511  
     109A      1.647080   110A      1.688864   111A      1.702746  
     112A      1.740757   113A      1.746663   114A      1.819238  
     115A      1.841231   116A      1.897095   117A      1.962196  
     118A      1.991821   119A      2.041482   120A      2.073256  
     121A      2.099322   122A      2.116372   123A      2.135915  
     124A      2.199213   125A      2.202614   126A      2.243368  
     127A      2.251533   128A      2.265606   129A      2.282788  
     130A      2.293764   131A      2.310087   132A      2.324876  
     133A      2.356539   134A      2.362590   135A      2.400734  
     136A      2.427027   137A      2.464729   138A      2.522309  
     139A      2.575758   140A      2.598020   141A      2.620600  
     142A      2.662382   143A      2.677537   144A      2.696393  
     145A      2.745976   146A      2.754627   147A      2.784567  
     148A      2.806535   149A      2.909467   150A      2.930345  
     151A      2.964634   152A      2.975289   153A      3.000281  
     154A      3.082025   155A      3.156987   156A      3.239932  
     157A      3.375300   158A      3.414247   159A      4.400938  
     160A      4.535647   161A      4.591842   162A      4.671107  
     163A      4.742424   164A      4.806244   165A      4.853257  
     166A      4.923842   167A      5.025558  

    Final Occupation by Irrep:
              A 
    DOCC [    36 ]

  Energy converged.

  @DF-RHF Final Energy:  -387.13641588520755

   => Energetics <=

    Nuclear Repulsion Energy =            438.3556187371172541
    One-Electron Energy =               -1393.2936073057201156
    Two-Electron Energy =                 567.8015726833950794
    DFT Exchange-Correlation Energy =       0.0000000000000000
    Empirical Dispersion Energy =           0.0000000000000000
    PCM Polarization Energy =               0.0000000000000000
    EFP Energy =                            0.0000000000000000
    Total Energy =                       -387.1364158852077253

    Alert: EFP and PCM quantities not currently incorporated into SCF psivars.

Properties will be evaluated at   0.000000,   0.000000,   0.000000 Bohr
  ==> Properties <==


Properties computed using the SCF density matrix

  Nuclear Dipole Moment: (a.u.)
     X:   -11.2185      Y:    -4.4401      Z:    -0.1810

  Electronic Dipole Moment: (a.u.)
     X:    11.1537      Y:     3.2853      Z:     0.1813

  Dipole Moment: (a.u.)
     X:    -0.0648      Y:    -1.1548      Z:     0.0004     Total:     1.1566

  Dipole Moment: (Debye)
     X:    -0.1648      Y:    -2.9351      Z:     0.0010     Total:     2.9397


  Saving occupied orbitals to File 180.

*** tstop() called on cx1-1-3-1.cx1.hpc.ic.ac.uk at Fri Sep  2 14:07:52 2016
Module time:
	user time   =      34.03 seconds =       0.57 minutes
	system time =       0.43 seconds =       0.01 minutes
	total time  =         11 seconds =       0.18 minutes
Total time:
	user time   =      34.03 seconds =       0.57 minutes
	system time =       0.43 seconds =       0.01 minutes
	total time  =         11 seconds =       0.18 minutes

*** tstart() called on cx1-1-3-1.cx1.hpc.ic.ac.uk
*** at Fri Sep  2 14:07:52 2016


         ------------------------------------------------------------
                                   SCF GRAD                          
                          Rob Parrish, Justin Turney,                
                       Andy Simmonett, and Alex Sokolov              
         ------------------------------------------------------------

  ==> Geometry <==

    Molecular point group: c1
    Full point group: C1

    Geometry (in Angstrom), charge = 0, multiplicity = 1:

       Center              X                  Y                   Z               Mass       
    ------------   -----------------  -----------------  -----------------  -----------------
           O          2.861414109216     1.355983649342     0.032135204062    15.994914619560
           C          2.842553109216     0.163338649342     0.031646204062    12.000000000000
           C          1.545583109216    -0.625842350658     0.031259204062    12.000000000000
           C          4.123212109216    -0.646024350658     0.031440204062    12.000000000000
           C          0.290093109216     0.241323649342     0.032857204062    12.000000000000
           H          1.556993109216    -1.285108350658    -0.835704795938     1.007825032070
           H          1.557711109216    -1.287313350658     0.896540204062     1.007825032070
           C         -0.995232890784    -0.587952350658     0.032130204062    12.000000000000
           H          0.308206109216     0.895079649342    -0.833401795938     1.007825032070
           H          0.308750109216     0.892727649342     0.900885204062     1.007825032070
           C         -2.260784890784     0.271180649342     0.032362204062    12.000000000000
           H         -1.005772890784    -1.241362350658    -0.839070795938     1.007825032070
           H         -1.006130890784    -1.242421350658     0.902543204062     1.007825032070
           C         -3.546671890784    -0.545129350658    -0.109568795938    12.000000000000
           H         -2.203768890784     0.995329649342    -0.778424795938     1.007825032070
           H         -2.302408890784     0.849523649342     0.953656204062     1.007825032070
           C         -4.806486890784     0.320058649342    -0.108734795938    12.000000000000
           H         -3.506748890784    -1.122765350658    -1.030745795938     1.007825032070
           H         -3.605540890784    -1.268339350658     0.701209204062     1.007825032070
           H         -4.793660890784     1.031876649342    -0.929282795938     1.007825032070
           H         -5.700955890784    -0.286650350658    -0.211348795938     1.007825032070
           H         -4.893783890784     0.884396649342     0.815412204062     1.007825032070
           H          4.164456109216    -1.289965350658    -0.842205795938     1.007825032070
           H          4.975306109216     0.019383649342     0.029953204062     1.007825032070
           H          4.165852109216    -1.287557350658     0.906798204062     1.007825032070

  Nuclear repulsion =  438.355618737117311

  ==> Basis Set <==

  Basis Set: 6-31G*
    Number of shells: 86
    Number of basis function: 167
    Number of Cartesian functions: 167
    Spherical Harmonics?: false
    Max angular momentum: 2

  ==> DFJKGrad: Density-Fitted SCF Gradients <==

    Gradient:                    1
    J tasked:                  Yes
    K tasked:                  Yes
    wK tasked:                  No
    OpenMP threads:              4
    Integrals threads:           4
    Memory (MB):              1430
    Schwarz Cutoff:          0E+00
    Fitting Condition:       1E-12

   => Auxiliary Basis Set <=

  Basis Set: 
    Number of shells: 360
    Number of basis function: 1129
    Number of Cartesian functions: 1129
    Spherical Harmonics?: false
    Max angular momentum: 3


  -Total Gradient:
     Atom            X                  Y                   Z
    ------   -----------------  -----------------  -----------------
       1        0.000001798520     0.000008660345     0.000003314316
       2       -0.000004189429    -0.000011911800     0.000003555614
       3       -0.000001640921    -0.000003922508    -0.000120801355
       4        0.000000397622    -0.000004847800    -0.000000900900
       5       -0.000051473009     0.000040444151    -0.000370902202
       6        0.000020899220    -0.000002145924     0.000009778660
       7       -0.000018724624     0.000003361187     0.000007439754
       8       -0.000089616233     0.000103392540     0.000085881375
       9        0.000036611315     0.000105224943    -0.000020621413
      10       -0.000020464113    -0.000102496138    -0.000016116258
      11        0.000086054127    -0.000121264733     0.000128127412
      12       -0.000247318762    -0.000226458368     0.000180664334
      13        0.000164402625     0.000247181943     0.000237689094
      14        0.000068755312    -0.000012426825    -0.000384399498
      15        0.000240145976     0.000221289688     0.000192476665
      16       -0.000178461705    -0.000267280754     0.000193592517
      17        0.000010995732     0.000013308007    -0.000097106769
      18       -0.000041564452    -0.000103221450    -0.000025680548
      19        0.000028551701     0.000107617070    -0.000007943770
      20       -0.000023292861     0.000007703146     0.000001293264
      21       -0.000004642983    -0.000002661083    -0.000004717534
      22        0.000021761968    -0.000005418066     0.000006280083
      23       -0.000000773240    -0.000001852167     0.000000011403
      24        0.000003211187     0.000004193232     0.000001891771
      25       -0.000001422974     0.000003531360    -0.000002806016


*** tstop() called on cx1-1-3-1.cx1.hpc.ic.ac.uk at Fri Sep  2 14:08:03 2016
Module time:
	user time   =      38.80 seconds =       0.65 minutes
	system time =       0.28 seconds =       0.00 minutes
	total time  =         11 seconds =       0.18 minutes
Total time:
	user time   =      72.86 seconds =       1.21 minutes
	system time =       0.71 seconds =       0.01 minutes
	total time  =         22 seconds =       0.37 minutes
CURRENT ENERGY: -387.1364158852

			-----------------------------------------
			 OPTKING 2.0: for geometry optimizations 
			  - R.A. King,  Bethel University        
			-----------------------------------------

	Internal coordinates to be generated automatically.
	Detected frag with atoms:  1 2 3 4 5 6 7 8 9 10 11 12 13 14 15 16 17 18 19 20
	 21 22 23 24 25
	---Fragment 1 Bond Connectivity---
	 1 : 2
	 2 : 1 3 4
	 3 : 2 5 6 7
	 4 : 2 23 24 25
	 5 : 3 8 9 10
	 6 : 3
	 7 : 3
	 8 : 5 11 12 13
	 9 : 5
	 10 : 5
	 11 : 8 14 15 16
	 12 : 8
	 13 : 8
	 14 : 11 17 18 19
	 15 : 11
	 16 : 11
	 17 : 14 20 21 22
	 18 : 14
	 19 : 14
	 20 : 17
	 21 : 17
	 22 : 17
	 23 : 4
	 24 : 4
	 25 : 4

	Assuming in current code that numbering for constraints corresponds to unified fragment.
	Frozen dihedral atom list: 
	    15    11     8    12
	---Fragment 1 Geometry and Gradient---
	 O           5.4072890192        2.5624377379        0.0607267349
	 C           5.3716468946        0.3086653142        0.0598026588
	 C           2.9207287920       -1.1826706451        0.0590713348
	 C           7.7917416742       -1.2208090979        0.0594133752
	 C           0.5481965295        0.4560356066        0.0620911172
	 H           2.9422905672       -2.4285028338       -1.5792531923
	 H           2.9436473906       -2.4326696800        1.6942154528
	 C          -1.8807176020       -1.1110689219        0.0607172863
	 H           0.5824251389        1.6914554044       -1.5749011530
	 H           0.5834531499        1.6870107685        1.7024263128
	 C          -4.2722642889        0.5124571598        0.0611557027
	 H          -1.9006353155       -2.3458348744       -1.5856140104
	 H          -1.9013118374       -2.3478360944        1.7055594788
	 C          -6.7022385568       -1.0301451797       -0.2070550170
	 H          -4.1645196638        1.8809004492       -1.4710096794
	 H          -4.3509222495        1.6053670407        1.8021490506
	 C          -9.0829438849        0.6048231937       -0.2054789854
	 H          -6.6267950204       -2.1217190242       -1.9478272669
	 H          -6.8134848445       -2.3968140163        1.3250933575
	 H          -9.0587062575        1.9499642702       -1.7560899843
	 H         -10.7732453292       -0.5416906586       -0.3993913428
	 H          -9.2479113071        1.6712674601        1.5409057511
	 H           7.8696815388       -2.4376812337       -1.5915383019
	 H           9.4019659737        0.0366297887        0.0566033525
	 H           7.8723195965       -2.4331307731        1.7136002635
	             0.0000017985        0.0000086603        0.0000033143
	            -0.0000041894       -0.0000119118        0.0000035556
	            -0.0000016409       -0.0000039225       -0.0001208014
	             0.0000003976       -0.0000048478       -0.0000009009
	            -0.0000514730        0.0000404442       -0.0003709022
	             0.0000208992       -0.0000021459        0.0000097787
	            -0.0000187246        0.0000033612        0.0000074398
	            -0.0000896162        0.0001033925        0.0000858814
	             0.0000366113        0.0001052249       -0.0000206214
	            -0.0000204641       -0.0001024961       -0.0000161163
	             0.0000860541       -0.0001212647        0.0001281274
	            -0.0002473188       -0.0002264584        0.0001806643
	             0.0001644026        0.0002471819        0.0002376891
	             0.0000687553       -0.0000124268       -0.0003843995
	             0.0002401460        0.0002212897        0.0001924767
	            -0.0001784617       -0.0002672808        0.0001935925
	             0.0000109957        0.0000133080       -0.0000971068
	            -0.0000415645       -0.0001032214       -0.0000256805
	             0.0000285517        0.0001076171       -0.0000079438
	            -0.0000232929        0.0000077031        0.0000012933
	            -0.0000046430       -0.0000026611       -0.0000047175
	             0.0000217620       -0.0000054181        0.0000062801
	            -0.0000007732       -0.0000018522        0.0000000114
	             0.0000032112        0.0000041932        0.0000018918
	            -0.0000014230        0.0000035314       -0.0000028060

	Previous optimization step data not found.  Starting new optimization.

	---Fragment 1 Intrafragment Coordinates---
	 - Coordinate -           - BOHR/RAD -       - ANG/DEG -
	 R(1,2)           =         2.254054	       1.192794
	 R(2,3)           =         2.868986	       1.518202
	 R(2,4)           =         2.862892	       1.514977
	 R(3,5)           =         2.883449	       1.525855
	 R(3,6)           =         2.058317	       1.089215
	 R(3,7)           =         2.058329	       1.089221
	 R(4,23)          =         2.052436	       1.086102
	 R(4,24)          =         2.043033	       1.081126
	 R(4,25)          =         2.052450	       1.086110
	 R(5,8)           =         2.890578	       1.529628
	 R(5,9)           =         2.051141	       1.085417
	 R(5,10)          =         2.051156	       1.085425
	 R(8,11)          =         2.890559	       1.529618
	 R(8,12)          =         2.058021	       1.089058
	 R(8,13)          =         2.058039	       1.089067
	 R(11,14)         =         2.890732	       1.529710
	 R(11,15)         =         2.057128	       1.088585
	 R(11,16)         =         2.057109	       1.088575
	 R(14,17)         =         2.888059	       1.528295
	 R(14,18)         =         2.056092	       1.088037
	 R(14,19)         =         2.056122	       1.088053
	 R(17,20)         =         2.052897	       1.086346
	 R(17,21)         =         2.051637	       1.085680
	 R(17,22)         =         2.052895	       1.086345
	 B(1,2,3)         =         2.133241	     122.225726
	 B(1,2,4)         =         2.118593	     121.386431
	 B(2,3,5)         =         1.990504	     114.047461
	 B(2,3,6)         =         1.881659	     107.811094
	 B(2,3,7)         =         1.881745	     107.816029
	 B(2,4,23)        =         1.927255	     110.423553
	 B(2,4,24)        =         1.914992	     109.720933
	 B(2,4,25)        =         1.926914	     110.404035
	 B(3,2,4)         =         2.031351	     116.387843
	 B(3,5,8)         =         1.964151	     112.537551
	 B(3,5,9)         =         1.904701	     109.131316
	 B(3,5,10)        =         1.904729	     109.132950
	 B(5,3,6)         =         1.932037	     110.697572
	 B(5,3,7)         =         1.932064	     110.699120
	 B(5,8,11)        =         1.972211	     112.999373
	 B(5,8,12)        =         1.911113	     109.498709
	 B(5,8,13)        =         1.911156	     109.501170
	 B(6,3,7)         =         1.838606	     105.344366
	 B(8,5,9)         =         1.917905	     109.887844
	 B(8,5,10)        =         1.917908	     109.888035
	 B(8,11,14)       =         1.977681	     113.312782
	 B(8,11,15)       =         1.907295	     109.279927
	 B(8,11,16)       =         1.907278	     109.278991
	 B(9,5,10)        =         1.850933	     106.050640
	 B(11,8,12)       =         1.906147	     109.214178
	 B(11,8,13)       =         1.906178	     109.215926
	 B(11,14,17)      =         1.972282	     113.003462
	 B(11,14,18)      =         1.908177	     109.330474
	 B(11,14,19)      =         1.908204	     109.332029
	 B(12,8,13)       =         1.853236	     106.182588
	 B(14,11,15)      =         1.907003	     109.263232
	 B(14,11,16)      =         1.906989	     109.262444
	 B(14,17,20)      =         1.939917	     111.149068
	 B(14,17,21)      =         1.941997	     111.268208
	 B(14,17,22)      =         1.939913	     111.148856
	 B(15,11,16)      =         1.853481	     106.196653
	 B(17,14,18)      =         1.908432	     109.345083
	 B(17,14,19)      =         1.908455	     109.346421
	 B(18,14,19)      =         1.854584	     106.259824
	 B(20,17,21)      =         1.880214	     107.728315
	 B(20,17,22)      =         1.878756	     107.644814
	 B(21,17,22)      =         1.880210	     107.728119
	 B(23,4,24)       =         1.911208	     109.504139
	 B(23,4,25)       =         1.871934	     107.253901
	 B(24,4,25)       =         1.911033	     109.494112
	 D(1,2,3,5)       =        -0.000937	      -0.053665
	 D(1,2,3,6)       =         2.152070	     123.304512
	 D(1,2,3,7)       =        -2.154042	    -123.417517
	 D(1,2,4,23)      =        -2.110057	    -120.897370
	 D(1,2,4,24)      =        -0.001810	      -0.103685
	 D(1,2,4,25)      =         2.106003	     120.665058
	 D(2,3,5,8)       =         3.141390	     179.988385
	 D(2,3,5,9)       =         1.007513	      57.726261
	 D(2,3,5,10)      =        -1.007894	     -57.748087
	 D(3,2,4,23)      =         1.031581	      59.105223
	 D(3,2,4,24)      =         3.139828	     179.898908
	 D(3,2,4,25)      =        -1.035545	     -59.332349
	 D(3,5,8,11)      =        -3.140628	    -179.944732
	 D(3,5,8,12)      =        -1.011737	     -57.968288
	 D(3,5,8,13)      =         1.013597	      58.074805
	 D(4,2,3,5)       =         3.140610	     179.943718
	 D(4,2,3,6)       =        -0.989569	     -56.698105
	 D(4,2,3,7)       =         0.987505	      56.579866
	 D(5,8,11,14)     =         3.040904	     174.230944
	 D(5,8,11,15)     =         0.909946	      52.136074
	 D(5,8,11,16)     =        -1.111354	     -63.675880
	 D(6,3,5,8)       =         1.015937	      58.208886
	 D(6,3,5,9)       =        -1.117940	     -64.053238
	 D(6,3,5,10)      =        -3.133347	    -179.527586
	 D(7,3,5,8)       =        -1.016209	     -58.224471
	 D(7,3,5,9)       =         3.133100	     179.513405
	 D(7,3,5,10)      =         1.117692	      64.039057
	 D(8,11,14,17)    =        -3.141427	    -179.990506
	 D(8,11,14,18)    =        -1.011675	     -57.964710
	 D(8,11,14,19)    =         1.011957	      57.980864
	 D(9,5,8,11)      =        -1.014224	     -58.110772
	 D(9,5,8,12)      =         1.114666	      63.865673
	 D(9,5,8,13)      =         3.140000	     179.908766
	 D(10,5,8,11)     =         1.016115	      58.219078
	 D(10,5,8,12)     =        -3.138180	    -179.804478
	 D(10,5,8,13)     =        -1.112846	     -63.761385
	 D(11,14,17,20)   =         1.045506	      59.903094
	 D(11,14,17,21)   =         3.140983	     179.965098
	 D(11,14,17,22)   =        -1.046731	     -59.973289
	 D(12,8,11,14)    =         0.909227	      52.094885
	*D(12,8,11,15)    =        -1.221730	     -69.999986
	 D(12,8,11,16)    =         3.040155	     174.188061
	 D(13,8,11,14)    =        -1.110528	     -63.628586
	 D(13,8,11,15)    =         3.041699	     174.276543
	 D(13,8,11,16)    =         1.020400	      58.464590
	 D(15,11,14,17)   =        -1.010307	     -57.886330
	 D(15,11,14,18)   =         1.119445	      64.139466
	 D(15,11,14,19)   =        -3.140108	    -179.914960
	 D(16,11,14,17)   =         1.010669	      57.907095
	 D(16,11,14,18)   =         3.140421	     179.932891
	 D(16,11,14,19)   =        -1.119132	     -64.121536
	 D(18,14,17,20)   =        -1.084103	     -62.114505
	 D(18,14,17,21)   =         1.011375	      57.947499
	 D(18,14,17,22)   =         3.106845	     178.009113
	 D(19,14,17,20)   =        -3.108019	    -178.076352
	 D(19,14,17,21)   =        -1.012541	     -58.014347
	 D(19,14,17,22)   =         1.082929	      62.047266

	Current energy   :      -387.1364158852

	Generating empirical Hessian (Schlegel '84) for each fragment.
	Taking RFO optimization step.
	Going to follow RFO solution 1.
	Using RFO vector 1.
	Norm of target step-size    0.17770
	Projected energy change by RFO approximation:         0.0002932771

	Back-transformation to cartesian coordinates...
	Successfully converged to displaced geometry.

	Back-transformation to cartesian coordinates to adjust frozen coordinates...
	Successfully converged to displaced geometry.

	--- Internal Coordinate Step in ANG or DEG, aJ/ANG or AJ/DEG ---
	 ---------------------------------------------------------------------------
	   Coordinate                Previous        Force       Change         New 
	   ----------                --------       ------       ------       ------
	    1 R(1,2)          =      1.192794    -0.000072    -0.000004     1.192790
	    2 R(2,3)          =      1.518202     0.000016     0.000003     1.518206
	    3 R(2,4)          =      1.514977    -0.000005    -0.000001     1.514976
	    4 R(3,5)          =      1.525855    -0.000021    -0.000005     1.525851
	    5 R(3,6)          =      1.089215     0.000052     0.000009     1.089224
	    6 R(3,7)          =      1.089221    -0.000030    -0.000006     1.089215
	    7 R(4,23)         =      1.086102    -0.000009    -0.000002     1.086101
	    8 R(4,24)         =      1.081126    -0.000042    -0.000008     1.081119
	    9 R(4,25)         =      1.086110     0.000036     0.000007     1.086116
	   10 R(5,8)          =      1.529628     0.000079     0.000017     1.529645
	   11 R(5,9)          =      1.085417    -0.000663    -0.000120     1.085296
	   12 R(5,10)         =      1.085425     0.000616     0.000112     1.085537
	   13 R(8,11)         =      1.529618     0.002171     0.000473     1.530091
	   14 R(8,12)         =      1.089058     0.000052     0.000009     1.089067
	   15 R(8,13)         =      1.089067    -0.000328    -0.000060     1.089007
	   16 R(11,14)        =      1.529710     0.000049     0.000011     1.529721
	   17 R(11,15)        =      1.088585    -0.000135    -0.000025     1.088561
	   18 R(11,16)        =      1.088575    -0.000236    -0.000043     1.088532
	   19 R(14,17)        =      1.528295    -0.000027    -0.000006     1.528289
	   20 R(14,18)        =      1.088037    -0.000618    -0.000113     1.087924
	   21 R(14,19)        =      1.088053     0.000651     0.000119     1.088172
	   22 R(17,20)        =      1.086346    -0.000031    -0.000006     1.086341
	   23 R(17,21)        =      1.085680    -0.000047    -0.000009     1.085671
	   24 R(17,22)        =      1.086345    -0.000006    -0.000001     1.086344
	   25 B(1,2,3)        =    122.225726    -0.000000    -0.000205   122.225522
	   26 B(1,2,4)        =    121.386431     0.000000     0.000654   121.387085
	   27 B(2,3,5)        =    114.047461    -0.000000    -0.000312   114.047149
	   28 B(2,3,6)        =    107.811094     0.000001    -0.000629   107.810465
	   29 B(2,3,7)        =    107.816029    -0.000001     0.001627   107.817656
	   30 B(2,4,23)       =    110.423553    -0.000000    -0.000688   110.422866
	   31 B(2,4,24)       =    109.720933     0.000000     0.000410   109.721343
	   32 B(2,4,25)       =    110.404035     0.000000     0.001354   110.405389
	   33 B(3,2,4)        =    116.387843    -0.000000    -0.000451   116.387391
	   34 B(3,5,8)        =    112.537551     0.000001     0.004581   112.542132
	   35 B(3,5,9)        =    109.131316     0.000004     0.016621   109.147937
	   36 B(3,5,10)       =    109.132950    -0.000004    -0.011873   109.121078
	   37 B(5,3,6)        =    110.697572    -0.000002    -0.015673   110.681899
	   38 B(5,3,7)        =    110.699120     0.000002     0.014877   110.713996
	   39 B(5,8,11)       =    112.999373     0.000005     0.124771   113.124145
	   40 B(5,8,12)       =    109.498709     0.000006     0.398325   109.897035
	   41 B(5,8,13)       =    109.501170    -0.000003    -0.102809   109.398361
	   42 B(6,3,7)        =    105.344366     0.000000     0.000184   105.344550
	   43 B(8,5,9)        =    109.887844    -0.000005    -0.041325   109.846519
	   44 B(8,5,10)       =    109.888035     0.000004     0.032781   109.920816
	   45 B(8,11,14)      =    113.312782     0.000005     0.124638   113.437419
	   46 B(8,11,15)      =    109.279927     0.000005     0.156674   109.436601
	   47 B(8,11,16)      =    109.278991    -0.000008    -0.256369   109.022622
	   48 B(9,5,10)       =    106.050640     0.000000    -0.001046   106.049594
	   49 B(11,8,12)      =    109.214178     0.000005     0.153508   109.367686
	   50 B(11,8,13)      =    109.215926    -0.000008    -0.252919   108.963007
	   51 B(11,14,17)     =    113.003462     0.000001     0.003830   113.007292
	   52 B(11,14,18)     =    109.330474    -0.000006    -0.045068   109.285406
	   53 B(11,14,19)     =    109.332029     0.000004     0.037035   109.369064
	   54 B(12,8,13)      =    106.182588    -0.000006    -0.355868   105.826720
	   55 B(14,11,15)     =    109.263232     0.000006     0.401009   109.664241
	   56 B(14,11,16)     =    109.262444    -0.000003    -0.105349   109.157095
	   57 B(14,17,20)     =    111.149068    -0.000003    -0.015936   111.133132
	   58 B(14,17,21)     =    111.268208    -0.000000     0.000007   111.268215
	   59 B(14,17,22)     =    111.148856     0.000003     0.015506   111.164362
	   60 B(15,11,16)     =    106.196653    -0.000006    -0.356488   105.840164
	   61 B(17,14,18)     =    109.345083     0.000004     0.015140   109.360223
	   62 B(17,14,19)     =    109.346421    -0.000004    -0.010834   109.335587
	   63 B(18,14,19)     =    106.259824     0.000000    -0.000360   106.259464
	   64 B(20,17,21)     =    107.728315     0.000001     0.002820   107.731134
	   65 B(20,17,22)     =    107.644814     0.000000     0.000092   107.644907
	   66 B(21,17,22)     =    107.728119    -0.000001    -0.002465   107.725654
	   67 B(23,4,24)      =    109.504139    -0.000000    -0.001366   109.502772
	   68 B(23,4,25)      =    107.253901    -0.000000    -0.000024   107.253877
	   69 B(24,4,25)      =    109.494112    -0.000000     0.000288   109.494400
	   70 D(1,2,3,5)      =     -0.053665     0.000000    -0.019101    -0.072766
	   71 D(1,2,3,6)      =    123.304512    -0.000000    -0.039969   123.264543
	   72 D(1,2,3,7)      =   -123.417517    -0.000000    -0.039270  -123.456786
	   73 D(1,2,4,23)     =   -120.897370     0.000000     0.012337  -120.885034
	   74 D(1,2,4,24)     =     -0.103685    -0.000000     0.010463    -0.093223
	   75 D(1,2,4,25)     =    120.665058     0.000000     0.011950   120.677008
	   76 D(2,3,5,8)      =    179.988385    -0.000001    -0.156338   179.832047
	   77 D(2,3,5,9)      =     57.726261     0.000000    -0.118548    57.607713
	   78 D(2,3,5,10)     =    -57.748087     0.000000    -0.119908   -57.867995
	   79 D(3,2,4,23)     =     59.105223     0.000000    -0.007368    59.097855
	   80 D(3,2,4,24)     =    179.898908    -0.000000    -0.009242   179.889666
	   81 D(3,2,4,25)     =    -59.332349     0.000000    -0.007754   -59.340103
	   82 D(3,5,8,11)     =   -179.944732    -0.000003    -2.631226  -182.575959
	   83 D(3,5,8,12)     =    -57.968288     0.000001    -2.056484   -60.024772
	   84 D(3,5,8,13)     =     58.074805    -0.000001    -2.317771    55.757034
	   85 D(4,2,3,5)      =    179.943718     0.000000     0.000783   179.944501
	   86 D(4,2,3,6)      =    -56.698105    -0.000000    -0.020085   -56.718190
	   87 D(4,2,3,7)      =     56.579866    -0.000000    -0.019385    56.560481
	   88 D(5,8,11,14)    =    174.230944     0.000007     1.428081   175.659025
	   89 D(5,8,11,15)    =     52.136074     0.000003     0.709281    52.845355
	   90 D(5,8,11,16)    =    -63.675880     0.000005     1.191282   -62.484598
	   91 D(6,3,5,8)      =     58.208886    -0.000001    -0.143396    58.065490
	   92 D(6,3,5,9)      =    -64.053238     0.000000    -0.105606   -64.158844
	   93 D(6,3,5,10)     =   -179.527586     0.000000    -0.106966  -179.634552
	   94 D(7,3,5,8)      =    -58.224471    -0.000001    -0.143134   -58.367605
	   95 D(7,3,5,9)      =    179.513405     0.000000    -0.105344   179.408061
	   96 D(7,3,5,10)     =     64.039057     0.000000    -0.106704    63.932353
	   97 D(8,11,14,17)   =   -179.990506    -0.000003    -2.530495  -182.521001
	   98 D(8,11,14,18)   =    -57.964710    -0.000002    -2.540945   -60.505654
	   99 D(8,11,14,19)   =     57.980864    -0.000003    -2.545902    55.434962
	  100 D(9,5,8,11)     =    -58.110772    -0.000002    -2.636279   -60.747050
	  101 D(9,5,8,12)     =     63.865673     0.000001    -2.061536    61.804137
	  102 D(9,5,8,13)     =    179.908766    -0.000000    -2.322823   177.585943
	  103 D(10,5,8,11)    =     58.219078    -0.000003    -2.642541    55.576536
	  104 D(10,5,8,12)    =   -179.804478     0.000001    -2.067799  -181.872277
	  105 D(10,5,8,13)    =    -63.761385    -0.000000    -2.329086   -66.090471
	  106 D(11,14,17,20)  =     59.903094    -0.000001    -0.075801    59.827292
	  107 D(11,14,17,21)  =    179.965098    -0.000001    -0.082960   179.882138
	  108 D(11,14,17,22)  =    -59.973289    -0.000001    -0.075628   -60.048917
	  109 D(12,8,11,14)   =     52.094885     0.000003     0.718800    52.813685
	  110 *D(12,8,11,15)  =    -69.999986    -0.000000    -0.000000   -69.999986
	  111 D(12,8,11,16)   =    174.188061     0.000002     0.482001   174.670062
	  112 D(13,8,11,14)   =    -63.628586     0.000005     1.198973   -62.429613
	  113 D(13,8,11,15)   =    174.276543     0.000002     0.480173   174.756716
	  114 D(13,8,11,16)   =     58.464590     0.000004     0.962174    59.426764
	  115 D(15,11,14,17)  =    -57.886330     0.000001    -1.946672   -59.833001
	  116 D(15,11,14,18)  =     64.139466     0.000001    -1.957121    62.182345
	  117 D(15,11,14,19)  =   -179.914960     0.000001    -1.962078  -181.877039
	  118 D(16,11,14,17)  =     57.907095    -0.000001    -2.209469    55.697626
	  119 D(16,11,14,18)  =    179.932891    -0.000000    -2.219918   177.712972
	  120 D(16,11,14,19)  =    -64.121536    -0.000000    -2.224875   -66.346411
	  121 D(18,14,17,20)  =    -62.114505     0.000000    -0.031557   -62.146062
	  122 D(18,14,17,21)  =     57.947499     0.000000    -0.038715    57.908785
	  123 D(18,14,17,22)  =    178.009113     0.000000    -0.031383   177.977729
	  124 D(19,14,17,20)  =   -178.076352     0.000000    -0.033541  -178.109893
	  125 D(19,14,17,21)  =    -58.014347     0.000000    -0.040699   -58.055047
	  126 D(19,14,17,22)  =     62.047266     0.000000    -0.033367    62.013898
	 ---------------------------------------------------------------------------

  ==> Convergence Check <==

  Measures of convergence in internal coordinates in au.
  Criteria marked as inactive (o), active & met (*), and active & unmet ( ).
  --------------------------------------------------------------------------------------------- ~
   Step     Total Energy     Delta E     MAX Force     RMS Force      MAX Disp      RMS Disp    ~
  --------------------------------------------------------------------------------------------- ~
    Convergence Criteria    1.00e-06 *    3.00e-04 *             o    1.20e-03 *             o  ~
  --------------------------------------------------------------------------------------------- ~
      1    -387.13641589   -3.87e+02      3.95e-04      8.25e-05 o    4.61e-02      1.58e-02 o  ~
  ---------------------------------------------------------------------------------------------

	Writing optimization data to binary file.
	Structure for next step:
	Cartesian Geometry (in Angstrom)
	    O     2.8648478248   1.3548841787   0.0079305371
	    C     2.8444365282   0.1626051235   0.0362539767
	    C     1.5467024016  -0.6252903965   0.0287970686
	    C     4.1237720933  -0.6475868164   0.0814480001
	    C     0.2925798291   0.2426949518  -0.0159148443
	    H     1.5745659192  -1.3051043644  -0.8217826671
	    H     1.5406627048  -1.2658956616   0.9096935958
	    C    -0.9935610389  -0.5852830432  -0.0263637180
	    H     0.3297182759   0.8768214020  -0.8958994085
	    H     0.2937399947   0.9134283387   0.8376109755
	    C    -2.2605339748   0.2723983101  -0.0078672330
	    H    -1.0094823890  -1.2342601617  -0.9008023679
	    H    -1.0031882353  -1.2494342100   0.8366233536
	    C    -3.5493025819  -0.5434156754  -0.1243495944
	    H    -2.2152858474   1.0028368421  -0.8137061762
	    H    -2.2850717902   0.8492036569   0.9149518667
	    C    -4.8100430119   0.3166024044  -0.0432964218
	    H    -3.5450922269  -1.0894590242  -1.0653049148
	    H    -3.5738213961  -1.2938488742   0.6632847295
	    H    -4.8315325529   1.0560799412  -0.8388134631
	    H    -5.7065085876  -0.2894888132  -0.1309582373
	    H    -4.8617176760   0.8487119235   0.9023952021
	    H     4.1816825332  -1.3126077409  -0.7752950700
	    H     4.9766007639   0.0168686222   0.0808899414
	    H     4.1480132597  -1.2676900459   0.9728139566
			--------------------------
			 OPTKING Finished Execution 
			--------------------------

    Structure for next step:
    Molecular point group: c1
    Full point group: C1

    Geometry (in Angstrom), charge = 0, multiplicity = 1:

    O            2.864292770477     1.354860689384     0.014595658393
    C            2.843881475513     0.162581725178     0.042919095886
    C            1.546147448019    -0.625313734643     0.035462188315
    C            4.123216942838    -0.647610152836     0.088113115827
    C            0.292024971277     0.242671547353    -0.009249721177
    H            1.574010963452    -1.305127650659    -0.815117482456
    H            1.540107751664    -1.265918950839     0.916358648285
    C           -0.994115798591    -0.585306384354    -0.019698594025
    H            0.329163415179     0.876797949182    -0.889234218145
    H            0.293185136722     0.913404883053     0.844276033503
    C           -2.261088637672     0.272374903432    -0.001202110471
    H           -1.010037147460    -1.234283453318    -0.894137177153
    H           -1.003742994173    -1.249457500503     0.843288411603
    C           -3.549857146391    -0.543439019757    -0.117684462990
    H           -2.215840513783     1.002813379648    -0.807040992098
    H           -2.285626451261     0.849180206154     0.921616918718
    C           -4.810597480062     0.316578994314    -0.036631296543
    H           -3.545646791737    -1.089482326842    -1.058639711501
    H           -3.574375958732    -1.293872161289     0.669949800772
    H           -4.832087019444     1.056056474665    -0.832148277139
    H           -5.707062987357    -0.289512176968    -0.124293105359
    H           -4.862272140229     0.848688472774     0.909060255094
    H            4.181127378363    -1.312631026538    -0.768629888811
    H            4.976045548361     0.016845234995     0.087555057145
    H            4.147458107472    -1.267713334970     0.979479004279

gradient() will perform analytic gradient computation.

*** tstart() called on cx1-1-3-1.cx1.hpc.ic.ac.uk
*** at Fri Sep  2 14:08:04 2016


         ---------------------------------------------------------
                                   SCF
            by Justin Turney, Rob Parrish, and Andy Simmonett
                              RHF Reference
                        4 Threads,   2000 MiB Core
         ---------------------------------------------------------

  ==> Geometry <==

    Molecular point group: c1
    Full point group: C1

    Geometry (in Angstrom), charge = 0, multiplicity = 1:

       Center              X                  Y                   Z               Mass       
    ------------   -----------------  -----------------  -----------------  -----------------
           O          2.864292770477     1.354860689384     0.014595658393    15.994914619560
           C          2.843881475513     0.162581725178     0.042919095886    12.000000000000
           C          1.546147448019    -0.625313734643     0.035462188315    12.000000000000
           C          4.123216942838    -0.647610152836     0.088113115827    12.000000000000
           C          0.292024971277     0.242671547353    -0.009249721177    12.000000000000
           H          1.574010963452    -1.305127650659    -0.815117482456     1.007825032070
           H          1.540107751664    -1.265918950839     0.916358648285     1.007825032070
           C         -0.994115798591    -0.585306384354    -0.019698594025    12.000000000000
           H          0.329163415179     0.876797949182    -0.889234218145     1.007825032070
           H          0.293185136722     0.913404883053     0.844276033503     1.007825032070
           C         -2.261088637672     0.272374903432    -0.001202110471    12.000000000000
           H         -1.010037147460    -1.234283453318    -0.894137177153     1.007825032070
           H         -1.003742994173    -1.249457500503     0.843288411603     1.007825032070
           C         -3.549857146391    -0.543439019757    -0.117684462990    12.000000000000
           H         -2.215840513783     1.002813379648    -0.807040992098     1.007825032070
           H         -2.285626451261     0.849180206154     0.921616918718     1.007825032070
           C         -4.810597480062     0.316578994314    -0.036631296543    12.000000000000
           H         -3.545646791737    -1.089482326842    -1.058639711501     1.007825032070
           H         -3.574375958732    -1.293872161289     0.669949800772     1.007825032070
           H         -4.832087019444     1.056056474665    -0.832148277139     1.007825032070
           H         -5.707062987357    -0.289512176968    -0.124293105359     1.007825032070
           H         -4.862272140229     0.848688472774     0.909060255094     1.007825032070
           H          4.181127378363    -1.312631026538    -0.768629888811     1.007825032070
           H          4.976045548361     0.016845234995     0.087555057145     1.007825032070
           H          4.147458107472    -1.267713334970     0.979479004279     1.007825032070

  Running in c1 symmetry.

  Rotational constants: A =      0.21485  B =      0.01455  C =      0.01387 [cm^-1]
  Rotational constants: A =   6441.15482  B =    436.27984  C =    415.88147 [MHz]
  Nuclear repulsion =  438.277429296665900

  Charge       = 0
  Multiplicity = 1
  Electrons    = 72
  Nalpha       = 36
  Nbeta        = 36

  ==> Algorithm <==

  SCF Algorithm Type is DF.
  DIIS enabled.
  MOM disabled.
  Fractional occupation disabled.
  Guess Type is READ.
  Energy threshold   = 1.00e-08
  Density threshold  = 1.00e-08
  Integral threshold = 0.00e+00

  ==> Primary Basis <==

  Basis Set: 6-31G*
    Number of shells: 86
    Number of basis function: 167
    Number of Cartesian functions: 167
    Spherical Harmonics?: false
    Max angular momentum: 2

  ==> Pre-Iterations <==

   -------------------------------------------------------
    Irrep   Nso     Nmo     Nalpha   Nbeta   Ndocc  Nsocc
   -------------------------------------------------------
     A        167     167       0       0       0       0
   -------------------------------------------------------
    Total     167     167      36      36      36       0
   -------------------------------------------------------

 OEINTS: Overlap, kinetic, potential, dipole, and quadrupole integrals
         stored in file 35.

  ==> Integral Setup <==

  ==> DFJK: Density-Fitted J/K Matrices <==

    J tasked:                  Yes
    K tasked:                  Yes
    wK tasked:                  No
    OpenMP threads:              4
    Integrals threads:           4
    Memory (MB):              1430
    Algorithm:                Core
    Integral Cache:           NONE
    Schwarz Cutoff:          1E-12
    Fitting Condition:       1E-12

   => Auxiliary Basis Set <=

  Basis Set: 
    Number of shells: 360
    Number of basis function: 1129
    Number of Cartesian functions: 1129
    Spherical Harmonics?: false
    Max angular momentum: 3

  Minimum eigenvalue in the overlap matrix is 2.4713583464E-03.
  Using Symmetric Orthogonalization.
  SCF Guess: Reading in previously saved MOs, projecting if necessary.

  Using orbitals from previous SCF, no projection.
  Recomputing DOCC and SOCC from number of alpha and beta electrons from previous calculation.
              A 
    DOCC [    36 ]

  ==> Iterations <==

                           Total Energy        Delta E     RMS |[F,P]|

   @DF-RHF iter   0:  -387.12926911689749   -3.87129e+02   5.49443e-04 
   @DF-RHF iter   1:  -387.13609112495249   -6.82201e-03   1.00885e-04 
   @DF-RHF iter   2:  -387.13636770190760   -2.76577e-04   3.41670e-05 DIIS
   @DF-RHF iter   3:  -387.13641049446608   -4.27926e-05   8.46531e-06 DIIS
   @DF-RHF iter   4:  -387.13641306564762   -2.57118e-06   4.21675e-06 DIIS
   @DF-RHF iter   5:  -387.13641431362771   -1.24798e-06   1.74022e-06 DIIS
   @DF-RHF iter   6:  -387.13641453725461   -2.23627e-07   7.92846e-07 DIIS
   @DF-RHF iter   7:  -387.13641457739129   -4.01367e-08   3.55043e-07 DIIS
   @DF-RHF iter   8:  -387.13641458444511   -7.05381e-09   1.61076e-07 DIIS
   @DF-RHF iter   9:  -387.13641458618474   -1.73964e-09   4.94829e-08 DIIS
   @DF-RHF iter  10:  -387.13641458633640   -1.51658e-10   1.12599e-08 DIIS
   @DF-RHF iter  11:  -387.13641458634095   -4.54747e-12   2.91967e-09 DIIS

  ==> Post-Iterations <==

    Orbital Energies (a.u.)
    -----------------------

    Doubly Occupied:                                                      

       1A    -20.550508     2A    -11.326348     3A    -11.231948  
       4A    -11.228377     5A    -11.217185     6A    -11.216583  
       7A    -11.215522     8A    -11.213514     9A    -11.208369  
      10A     -1.395812    11A     -1.093506    12A     -1.056330  
      13A     -1.014529    14A     -0.969277    15A     -0.890739  
      16A     -0.814326    17A     -0.791007    18A     -0.729970  
      19A     -0.661092    20A     -0.651997    21A     -0.631821  
      22A     -0.624084    23A     -0.595991    24A     -0.584385  
      25A     -0.566448    26A     -0.559862    27A     -0.540190  
      28A     -0.526279    29A     -0.512633    30A     -0.490070  
      31A     -0.487724    32A     -0.473310    33A     -0.463961  
      34A     -0.461645    35A     -0.451076    36A     -0.399479  

    Virtual:                                                              

      37A      0.170608    38A      0.219775    39A      0.233527  
      40A      0.254880    41A      0.267814    42A      0.277104  
      43A      0.293048    44A      0.307075    45A      0.308067  
      46A      0.321663    47A      0.326102    48A      0.339112  
      49A      0.342897    50A      0.344512    51A      0.352629  
      52A      0.360669    53A      0.369138    54A      0.377769  
      55A      0.397436    56A      0.409698    57A      0.435100  
      58A      0.455100    59A      0.471672    60A      0.527819  
      61A      0.550422    62A      0.685311    63A      0.701925  
      64A      0.741572    65A      0.747169    66A      0.757051  
      67A      0.762313    68A      0.778450    69A      0.782302  
      70A      0.814916    71A      0.835389    72A      0.853006  
      73A      0.862761    74A      0.920000    75A      0.951308  
      76A      0.954592    77A      0.967795    78A      0.994299  
      79A      1.016263    80A      1.024697    81A      1.036058  
      82A      1.080528    83A      1.106430    84A      1.112108  
      85A      1.119531    86A      1.124891    87A      1.135012  
      88A      1.141965    89A      1.163825    90A      1.180011  
      91A      1.188198    92A      1.193690    93A      1.207664  
      94A      1.208008    95A      1.214783    96A      1.220242  
      97A      1.223365    98A      1.227476    99A      1.238554  
     100A      1.260064   101A      1.269782   102A      1.274334  
     103A      1.327810   104A      1.339085   105A      1.425215  
     106A      1.439394   107A      1.547972   108A      1.633363  
     109A      1.646827   110A      1.688254   111A      1.702771  
     112A      1.740216   113A      1.748316   114A      1.818783  
     115A      1.841362   116A      1.896939   117A      1.960777  
     118A      1.991973   119A      2.041787   120A      2.072206  
     121A      2.099175   122A      2.116508   123A      2.135117  
     124A      2.200536   125A      2.200668   126A      2.243206  
     127A      2.251513   128A      2.266330   129A      2.281959  
     130A      2.293376   131A      2.309862   132A      2.324463  
     133A      2.355597   134A      2.361603   135A      2.401222  
     136A      2.426711   137A      2.464929   138A      2.522045  
     139A      2.575447   140A      2.598157   141A      2.619949  
     142A      2.662815   143A      2.677424   144A      2.696513  
     145A      2.746783   146A      2.753878   147A      2.783058  
     148A      2.807492   149A      2.909349   150A      2.930753  
     151A      2.964877   152A      2.975291   153A      3.001391  
     154A      3.082104   155A      3.156465   156A      3.239371  
     157A      3.375253   158A      3.414211   159A      4.400888  
     160A      4.535387   161A      4.591585   162A      4.670797  
     163A      4.742023   164A      4.805945   165A      4.853274  
     166A      4.923857   167A      5.025407  

    Final Occupation by Irrep:
              A 
    DOCC [    36 ]

  Energy converged.

  @DF-RHF Final Energy:  -387.13641458634095

   => Energetics <=

    Nuclear Repulsion Energy =            438.2774292966659004
    One-Electron Energy =               -1393.1358940616928521
    Two-Electron Energy =                 567.7220501786857767
    DFT Exchange-Correlation Energy =       0.0000000000000000
    Empirical Dispersion Energy =           0.0000000000000000
    PCM Polarization Energy =               0.0000000000000000
    EFP Energy =                            0.0000000000000000
    Total Energy =                       -387.1364145863411750

    Alert: EFP and PCM quantities not currently incorporated into SCF psivars.

Properties will be evaluated at   0.000000,   0.000000,   0.000000 Bohr
  ==> Properties <==


Properties computed using the SCF density matrix

  Nuclear Dipole Moment: (a.u.)
     X:   -11.2317      Y:    -4.4410      Z:    -0.0165

  Electronic Dipole Moment: (a.u.)
     X:    11.1656      Y:     3.2867      Z:     0.0419

  Dipole Moment: (a.u.)
     X:    -0.0662      Y:    -1.1543      Z:     0.0254     Total:     1.1565

  Dipole Moment: (Debye)
     X:    -0.1682      Y:    -2.9339      Z:     0.0646     Total:     2.9395


  Saving occupied orbitals to File 180.

*** tstop() called on cx1-1-3-1.cx1.hpc.ic.ac.uk at Fri Sep  2 14:08:13 2016
Module time:
	user time   =      28.49 seconds =       0.47 minutes
	system time =       0.35 seconds =       0.01 minutes
	total time  =          9 seconds =       0.15 minutes
Total time:
	user time   =     103.02 seconds =       1.72 minutes
	system time =       1.11 seconds =       0.02 minutes
	total time  =         32 seconds =       0.53 minutes

*** tstart() called on cx1-1-3-1.cx1.hpc.ic.ac.uk
*** at Fri Sep  2 14:08:13 2016


         ------------------------------------------------------------
                                   SCF GRAD                          
                          Rob Parrish, Justin Turney,                
                       Andy Simmonett, and Alex Sokolov              
         ------------------------------------------------------------

  ==> Geometry <==

    Molecular point group: c1
    Full point group: C1

    Geometry (in Angstrom), charge = 0, multiplicity = 1:

       Center              X                  Y                   Z               Mass       
    ------------   -----------------  -----------------  -----------------  -----------------
           O          2.864292770477     1.354860689384     0.014595658393    15.994914619560
           C          2.843881475513     0.162581725178     0.042919095886    12.000000000000
           C          1.546147448019    -0.625313734643     0.035462188315    12.000000000000
           C          4.123216942838    -0.647610152836     0.088113115827    12.000000000000
           C          0.292024971277     0.242671547353    -0.009249721177    12.000000000000
           H          1.574010963452    -1.305127650659    -0.815117482456     1.007825032070
           H          1.540107751664    -1.265918950839     0.916358648285     1.007825032070
           C         -0.994115798591    -0.585306384354    -0.019698594025    12.000000000000
           H          0.329163415179     0.876797949182    -0.889234218145     1.007825032070
           H          0.293185136722     0.913404883053     0.844276033503     1.007825032070
           C         -2.261088637672     0.272374903432    -0.001202110471    12.000000000000
           H         -1.010037147460    -1.234283453318    -0.894137177153     1.007825032070
           H         -1.003742994173    -1.249457500503     0.843288411603     1.007825032070
           C         -3.549857146391    -0.543439019757    -0.117684462990    12.000000000000
           H         -2.215840513783     1.002813379648    -0.807040992098     1.007825032070
           H         -2.285626451261     0.849180206154     0.921616918718     1.007825032070
           C         -4.810597480062     0.316578994314    -0.036631296543    12.000000000000
           H         -3.545646791737    -1.089482326842    -1.058639711501     1.007825032070
           H         -3.574375958732    -1.293872161289     0.669949800772     1.007825032070
           H         -4.832087019444     1.056056474665    -0.832148277139     1.007825032070
           H         -5.707062987357    -0.289512176968    -0.124293105359     1.007825032070
           H         -4.862272140229     0.848688472774     0.909060255094     1.007825032070
           H          4.181127378363    -1.312631026538    -0.768629888811     1.007825032070
           H          4.976045548361     0.016845234995     0.087555057145     1.007825032070
           H          4.147458107472    -1.267713334970     0.979479004279     1.007825032070

  Nuclear repulsion =  438.277429296665900

  ==> Basis Set <==

  Basis Set: 6-31G*
    Number of shells: 86
    Number of basis function: 167
    Number of Cartesian functions: 167
    Spherical Harmonics?: false
    Max angular momentum: 2

  ==> DFJKGrad: Density-Fitted SCF Gradients <==

    Gradient:                    1
    J tasked:                  Yes
    K tasked:                  Yes
    wK tasked:                  No
    OpenMP threads:              4
    Integrals threads:           4
    Memory (MB):              1430
    Schwarz Cutoff:          0E+00
    Fitting Condition:       1E-12

   => Auxiliary Basis Set <=

  Basis Set: 
    Number of shells: 360
    Number of basis function: 1129
    Number of Cartesian functions: 1129
    Spherical Harmonics?: false
    Max angular momentum: 3


  -Total Gradient:
     Atom            X                  Y                   Z
    ------   -----------------  -----------------  -----------------
       1        0.000004851475     0.000000240795    -0.000025330445
       2        0.000000930705    -0.000010008001     0.000084133656
       3        0.000007597248     0.000030669350     0.000148989868
       4        0.000005392993     0.000003237923    -0.000025360564
       5        0.000194619135     0.000078048870     0.000301695002
       6       -0.000017993870     0.000031937209     0.000006607406
       7        0.000027367493    -0.000043536391     0.000014590432
       8        0.000756468382     0.001023869573    -0.000840052980
       9       -0.000033483254    -0.000122779077    -0.000038253774
      10        0.000077269627     0.000123661114    -0.000038805575
      11       -0.000724058431    -0.000939452888    -0.000950851675
      12       -0.000725432454    -0.000787213266     0.000640811273
      13        0.000168530776     0.000059881937    -0.000188579727
      14       -0.000208471870    -0.000101218846     0.000241735811
      15        0.000662160214     0.000712903410     0.000741189168
      16       -0.000125721682    -0.000032511385    -0.000196823954
      17       -0.000010789162    -0.000043353768     0.000154401521
      18        0.000032832682     0.000133216432    -0.000018640755
      19       -0.000074475300    -0.000132520832    -0.000045835218
      20        0.000023751557    -0.000027055204    -0.000003957544
      21       -0.000009676813     0.000004495321     0.000031363252
      22       -0.000032721832     0.000039014870     0.000008484512
      23        0.000004652358    -0.000003138927     0.000000224022
      24        0.000001046610    -0.000000908380    -0.000001879374
      25       -0.000004646590     0.000002520158     0.000000145661


*** tstop() called on cx1-1-3-1.cx1.hpc.ic.ac.uk at Fri Sep  2 14:08:25 2016
Module time:
	user time   =      41.24 seconds =       0.69 minutes
	system time =       0.28 seconds =       0.00 minutes
	total time  =         12 seconds =       0.20 minutes
Total time:
	user time   =     144.27 seconds =       2.40 minutes
	system time =       1.40 seconds =       0.02 minutes
	total time  =         44 seconds =       0.73 minutes
CURRENT ENERGY: -387.1364145863

			-----------------------------------------
			 OPTKING 2.0: for geometry optimizations 
			  - R.A. King,  Bethel University        
			-----------------------------------------

	Previous internal coordinate definitions found.
	---Fragment 1 Geometry and Gradient---
	 O           5.4127289006        2.5603156511        0.0275817971
	 C           5.3741571431        0.3072349348        0.0811053371
	 C           2.9217952378       -1.1816717056        0.0670138240
	 C           7.7917508084       -1.2238058297        0.1665096576
	 C           0.5518472197        0.4585827647       -0.0174794398
	 H           2.9744496511       -2.4663338282       -1.5403488080
	 H           2.9103818658       -2.3922401235        1.7316668848
	 C          -1.8786066037       -1.1060687703       -0.0372249479
	 H           0.6220287077        1.6569079978       -1.6804091403
	 H           0.5540396146        1.7260850774        1.5954504839
	 C          -4.2728382874        0.5147139730       -0.0022716596
	 H          -1.9086935927       -2.3324576971       -1.6896743901
	 H          -1.8967993668       -2.3611324906        1.5935841490
	 C          -6.7082578175       -1.0269509173       -0.2223914051
	 H          -4.1873317252        1.8950426499       -1.5250864531
	 H          -4.3192080350        1.6047180271        1.7416035758
	 C          -9.0907117729        0.5982475987       -0.0692231184
	 H          -6.7003014003       -2.0588232244       -2.0005391281
	 H          -6.7545916580       -2.4450640358        1.2660216462
	 H          -9.1313211170        1.9956575180       -1.5725323457
	 H         -10.7847860692       -0.5470987266       -0.2348799293
	 H          -9.1883627286        1.6037887857        1.7178749204
	 H           7.9011856718       -2.4805131537       -1.4524999874
	 H           9.4033633112        0.0318328808        0.1654550796
	 H           7.8375599707       -2.3956310181        1.8509470710
	             0.0000048515        0.0000002408       -0.0000253304
	             0.0000009307       -0.0000100080        0.0000841337
	             0.0000075972        0.0000306694        0.0001489899
	             0.0000053930        0.0000032379       -0.0000253606
	             0.0001946191        0.0000780489        0.0003016950
	            -0.0000179939        0.0000319372        0.0000066074
	             0.0000273675       -0.0000435364        0.0000145904
	             0.0007564684        0.0010238696       -0.0008400530
	            -0.0000334833       -0.0001227791       -0.0000382538
	             0.0000772696        0.0001236611       -0.0000388056
	            -0.0007240584       -0.0009394529       -0.0009508517
	            -0.0007254325       -0.0007872133        0.0006408113
	             0.0001685308        0.0000598819       -0.0001885797
	            -0.0002084719       -0.0001012188        0.0002417358
	             0.0006621602        0.0007129034        0.0007411892
	            -0.0001257217       -0.0000325114       -0.0001968240
	            -0.0000107892       -0.0000433538        0.0001544015
	             0.0000328327        0.0001332164       -0.0000186408
	            -0.0000744753       -0.0001325208       -0.0000458352
	             0.0000237516       -0.0000270552       -0.0000039575
	            -0.0000096768        0.0000044953        0.0000313633
	            -0.0000327218        0.0000390149        0.0000084845
	             0.0000046524       -0.0000031389        0.0000002240
	             0.0000010466       -0.0000009084       -0.0000018794
	            -0.0000046466        0.0000025202        0.0000001457

	---Fragment 1 Intrafragment Coordinates---
	 - Coordinate -           - BOHR/RAD -       - ANG/DEG -
	 R(1,2)           =         2.254046	       1.192790
	 R(2,3)           =         2.868993	       1.518206
	 R(2,4)           =         2.862890	       1.514976
	 R(3,5)           =         2.883440	       1.525851
	 R(3,6)           =         2.058335	       1.089224
	 R(3,7)           =         2.058319	       1.089215
	 R(4,23)          =         2.052433	       1.086101
	 R(4,24)          =         2.043018	       1.081119
	 R(4,25)          =         2.052462	       1.086116
	 R(5,8)           =         2.890611	       1.529645
	 R(5,9)           =         2.050913	       1.085296
	 R(5,10)          =         2.051368	       1.085537
	 R(8,11)          =         2.891454	       1.530091
	 R(8,12)          =         2.058039	       1.089067
	 R(8,13)          =         2.057925	       1.089007
	 R(11,14)         =         2.890753	       1.529721
	 R(11,15)         =         2.057081	       1.088561
	 R(11,16)         =         2.057027	       1.088532
	 R(14,17)         =         2.888047	       1.528289
	 R(14,18)         =         2.055878	       1.087924
	 R(14,19)         =         2.056348	       1.088172
	 R(17,20)         =         2.052886	       1.086341
	 R(17,21)         =         2.051621	       1.085671
	 R(17,22)         =         2.052893	       1.086344
	 B(1,2,3)         =         2.133238	     122.225522
	 B(1,2,4)         =         2.118604	     121.387085
	 B(2,3,5)         =         1.990498	     114.047149
	 B(2,3,6)         =         1.881648	     107.810465
	 B(2,3,7)         =         1.881773	     107.817656
	 B(2,4,23)        =         1.927243	     110.422866
	 B(2,4,24)        =         1.914999	     109.721343
	 B(2,4,25)        =         1.926938	     110.405389
	 B(3,2,4)         =         2.031343	     116.387391
	 B(3,5,8)         =         1.964231	     112.542132
	 B(3,5,9)         =         1.904991	     109.147937
	 B(3,5,10)        =         1.904522	     109.121078
	 B(5,3,6)         =         1.931764	     110.681899
	 B(5,3,7)         =         1.932324	     110.713996
	 B(5,8,11)        =         1.974389	     113.124145
	 B(5,8,12)        =         1.918065	     109.897035
	 B(5,8,13)        =         1.909362	     109.398361
	 B(6,3,7)         =         1.838609	     105.344550
	 B(8,5,9)         =         1.917183	     109.846519
	 B(8,5,10)        =         1.918480	     109.920816
	 B(8,11,14)       =         1.979856	     113.437419
	 B(8,11,15)       =         1.910029	     109.436601
	 B(8,11,16)       =         1.902804	     109.022622
	 B(9,5,10)        =         1.850915	     106.049594
	 B(11,8,12)       =         1.908826	     109.367686
	 B(11,8,13)       =         1.901763	     108.963007
	 B(11,14,17)      =         1.972349	     113.007292
	 B(11,14,18)      =         1.907390	     109.285406
	 B(11,14,19)      =         1.908850	     109.369064
	 B(12,8,13)       =         1.847025	     105.826720
	 B(14,11,15)      =         1.914002	     109.664241
	 B(14,11,16)      =         1.905151	     109.157095
	 B(14,17,20)      =         1.939639	     111.133132
	 B(14,17,21)      =         1.941997	     111.268215
	 B(14,17,22)      =         1.940184	     111.164362
	 B(15,11,16)      =         1.847259	     105.840164
	 B(17,14,18)      =         1.908696	     109.360223
	 B(17,14,19)      =         1.908266	     109.335587
	 B(18,14,19)      =         1.854578	     106.259464
	 B(20,17,21)      =         1.880263	     107.731134
	 B(20,17,22)      =         1.878758	     107.644907
	 B(21,17,22)      =         1.880167	     107.725654
	 B(23,4,24)       =         1.911184	     109.502772
	 B(23,4,25)       =         1.871933	     107.253877
	 B(24,4,25)       =         1.911038	     109.494400
	 D(1,2,3,5)       =        -0.001270	      -0.072766
	 D(1,2,3,6)       =         2.151372	     123.264543
	 D(1,2,3,7)       =        -2.154727	    -123.456786
	 D(1,2,4,23)      =        -2.109842	    -120.885034
	 D(1,2,4,24)      =        -0.001627	      -0.093223
	 D(1,2,4,25)      =         2.106211	     120.677008
	 D(2,3,5,8)       =         3.138661	     179.832047
	 D(2,3,5,9)       =         1.005444	      57.607713
	 D(2,3,5,10)      =        -1.009987	     -57.867995
	 D(3,2,4,23)      =         1.031452	      59.097855
	 D(3,2,4,24)      =         3.139667	     179.889666
	 D(3,2,4,25)      =        -1.035680	     -59.340103
	 D(3,5,8,11)      =         3.096634	     177.424041
	 D(3,5,8,12)      =        -1.047630	     -60.024772
	 D(3,5,8,13)      =         0.973144	      55.757034
	 D(4,2,3,5)       =         3.140624	     179.944501
	 D(4,2,3,6)       =        -0.989919	     -56.718190
	 D(4,2,3,7)       =         0.987167	      56.560481
	 D(5,8,11,14)     =         3.065828	     175.659025
	 D(5,8,11,15)     =         0.922325	      52.845355
	 D(5,8,11,16)     =        -1.090562	     -62.484598
	 D(6,3,5,8)       =         1.013434	      58.065490
	 D(6,3,5,9)       =        -1.119783	     -64.158844
	 D(6,3,5,10)      =        -3.135214	    -179.634552
	 D(7,3,5,8)       =        -1.018707	     -58.367605
	 D(7,3,5,9)       =         3.131261	     179.408061
	 D(7,3,5,10)      =         1.115830	      63.932353
	 D(8,11,14,17)    =         3.097593	     177.478999
	 D(8,11,14,18)    =        -1.056023	     -60.505654
	 D(8,11,14,19)    =         0.967523	      55.434962
	 D(9,5,8,11)      =        -1.060236	     -60.747050
	 D(9,5,8,12)      =         1.078686	      61.804137
	 D(9,5,8,13)      =         3.099459	     177.585943
	 D(10,5,8,11)     =         0.969994	      55.576536
	 D(10,5,8,12)     =         3.108915	     178.127723
	 D(10,5,8,13)     =        -1.153496	     -66.090471
	 D(11,14,17,20)   =         1.044183	      59.827292
	 D(11,14,17,21)   =         3.139536	     179.882138
	 D(11,14,17,22)   =        -1.048051	     -60.048917
	 D(12,8,11,14)    =         0.921773	      52.813685
	*D(12,8,11,15)    =        -1.221730	     -69.999986
	 D(12,8,11,16)    =         3.048568	     174.670062
	 D(13,8,11,14)    =        -1.089602	     -62.429613
	 D(13,8,11,15)    =         3.050080	     174.756716
	 D(13,8,11,16)    =         1.037193	      59.426764
	 D(15,11,14,17)   =        -1.044283	     -59.833001
	 D(15,11,14,18)   =         1.085287	      62.182345
	 D(15,11,14,19)   =         3.108832	     178.122961
	 D(16,11,14,17)   =         0.972107	      55.697626
	 D(16,11,14,18)   =         3.101676	     177.712972
	 D(16,11,14,19)   =        -1.157963	     -66.346411
	 D(18,14,17,20)   =        -1.084653	     -62.146062
	 D(18,14,17,21)   =         1.010699	      57.908785
	 D(18,14,17,22)   =         3.106297	     177.977729
	 D(19,14,17,20)   =        -3.108604	    -178.109893
	 D(19,14,17,21)   =        -1.013252	     -58.055047
	 D(19,14,17,22)   =         1.082347	      62.013898

	Current energy   :      -387.1364145863

	Energy change for the previous step:
		Projected    :         0.0002932771
		Actual       :         0.0000012989

	Performing BFGS update.
	Previous computed or guess Hessian on step 1.
	Steps to be used in Hessian update: 1
	Taking RFO optimization step.
	Going to follow RFO solution 1.
	Using RFO vector 1.
	Norm of target step-size    0.13131
	Projected energy change by RFO approximation:        -0.0000387439

	Back-transformation to cartesian coordinates...
	Successfully converged to displaced geometry.

	Back-transformation to cartesian coordinates to adjust frozen coordinates...
	Successfully converged to displaced geometry.

	--- Internal Coordinate Step in ANG or DEG, aJ/ANG or AJ/DEG ---
	 ---------------------------------------------------------------------------
	   Coordinate                Previous        Force       Change         New 
	   ----------                --------       ------       ------       ------
	    1 R(1,2)          =      1.192790    -0.000008    -0.000001     1.192789
	    2 R(2,3)          =      1.518206    -0.000053    -0.000005     1.518201
	    3 R(2,4)          =      1.514976    -0.000031    -0.000003     1.514973
	    4 R(3,5)          =      1.525851    -0.000195    -0.000022     1.525829
	    5 R(3,6)          =      1.089224     0.000211     0.000021     1.089245
	    6 R(3,7)          =      1.089215    -0.000307    -0.000029     1.089186
	    7 R(4,23)         =      1.086101    -0.000016    -0.000002     1.086099
	    8 R(4,24)         =      1.081119    -0.000002    -0.000001     1.081118
	    9 R(4,25)         =      1.086116     0.000012     0.000002     1.086118
	   10 R(5,8)          =      1.529645    -0.002279    -0.000246     1.529399
	   11 R(5,9)          =      1.085296     0.000345     0.000014     1.085311
	   12 R(5,10)         =      1.085537    -0.000379    -0.000019     1.085519
	   13 R(8,11)         =      1.530091    -0.001398    -0.000086     1.530006
	   14 R(8,12)         =      1.089067     0.000287     0.000028     1.089095
	   15 R(8,13)         =      1.089007     0.001544     0.000134     1.089141
	   16 R(11,14)        =      1.529721    -0.002270    -0.000246     1.529474
	   17 R(11,15)        =      1.088561     0.000353     0.000029     1.088590
	   18 R(11,16)        =      1.088532     0.001493     0.000131     1.088663
	   19 R(14,17)        =      1.528289    -0.000158    -0.000018     1.528271
	   20 R(14,18)        =      1.087924     0.000417     0.000022     1.087946
	   21 R(14,19)        =      1.088172    -0.000493    -0.000028     1.088144
	   22 R(17,20)        =      1.086341     0.000132     0.000011     1.086352
	   23 R(17,21)        =      1.085671    -0.000024    -0.000003     1.085668
	   24 R(17,22)        =      1.086344    -0.000231    -0.000021     1.086323
	   25 B(1,2,3)        =    122.225522    -0.000000    -0.000377   122.225145
	   26 B(1,2,4)        =    121.387085     0.000001     0.000862   121.387947
	   27 B(2,3,5)        =    114.047149    -0.000002    -0.003350   114.043799
	   28 B(2,3,6)        =    107.810465    -0.000001     0.000656   107.811121
	   29 B(2,3,7)        =    107.817656     0.000002     0.002545   107.820201
	   30 B(2,4,23)       =    110.422866    -0.000001    -0.001778   110.421088
	   31 B(2,4,24)       =    109.721343    -0.000000    -0.000345   109.720998
	   32 B(2,4,25)       =    110.405389     0.000001     0.002019   110.407408
	   33 B(3,2,4)        =    116.387391    -0.000000    -0.000680   116.386711
[...]
	 D(12,8,11,14)    =         0.918340	      52.617001
	*D(12,8,11,15)    =        -1.221730	     -69.999986
	 D(12,8,11,16)    =         3.047334	     174.599387
	 D(13,8,11,14)    =        -1.094271	     -62.697125
	 D(13,8,11,15)    =         3.048844	     174.685888
	 D(13,8,11,16)    =         1.034723	      59.285261
	 D(15,11,14,17)   =        -1.018630	     -58.363192
	 D(15,11,14,18)   =         1.111107	      63.661732
	 D(15,11,14,19)   =         3.134567	     179.597485
	 D(16,11,14,17)   =         0.998480	      57.208699
	 D(16,11,14,18)   =         3.128217	     179.233623
	 D(16,11,14,19)   =        -1.131508	     -64.830624
	 D(18,14,17,20)   =        -1.086433	     -62.248043
	 D(18,14,17,21)   =         1.008956	      57.808895
	 D(18,14,17,22)   =         3.104496	     177.874500
	 D(19,14,17,20)   =        -3.110466	    -178.216602
	 D(19,14,17,21)   =        -1.015078	     -58.159664
	 D(19,14,17,22)   =         1.080462	      61.905941

	Current energy   :      -387.1364376147

	Energy change for the previous step:
		Projected    :         0.0000002157
		Actual       :        -0.0000000092

	Performing BFGS update.
	Previous computed or guess Hessian on step 1.
	Steps to be used in Hessian update: 5 4
	Taking RFO optimization step.
	Going to follow RFO solution 1.
	Using RFO vector 1.
	Norm of target step-size    0.00401
	Projected energy change by RFO approximation:        -0.0000000521

	Back-transformation to cartesian coordinates...
	Successfully converged to displaced geometry.

	Back-transformation to cartesian coordinates to adjust frozen coordinates...
	Successfully converged to displaced geometry.

	--- Internal Coordinate Step in ANG or DEG, aJ/ANG or AJ/DEG ---
	 ---------------------------------------------------------------------------
	   Coordinate                Previous        Force       Change         New 
	   ----------                --------       ------       ------       ------
	    1 R(1,2)          =      1.192789    -0.000000    -0.000000     1.192789
	    2 R(2,3)          =      1.518203     0.000001     0.000000     1.518204
	    3 R(2,4)          =      1.514971    -0.000002    -0.000001     1.514970
	    4 R(3,5)          =      1.525828     0.000012     0.000001     1.525829
	    5 R(3,6)          =      1.089230     0.000011     0.000001     1.089231
	    6 R(3,7)          =      1.089191    -0.000007    -0.000001     1.089190
	    7 R(4,23)         =      1.086102    -0.000003     0.000000     1.086102
	    8 R(4,24)         =      1.081120    -0.000001    -0.000000     1.081119
	    9 R(4,25)         =      1.086115     0.000003     0.000000     1.086115
	   10 R(5,8)          =      1.529226     0.000036    -0.000013     1.529213
	   11 R(5,9)          =      1.085336    -0.000003     0.000000     1.085336
	   12 R(5,10)         =      1.085494     0.000022     0.000002     1.085496
	   13 R(8,11)         =      1.529896     0.000043     0.000001     1.529897
	   14 R(8,12)         =      1.089133    -0.000006     0.000004     1.089138
	   15 R(8,13)         =      1.089232    -0.000014     0.000007     1.089239
	   16 R(11,14)        =      1.529303     0.000030    -0.000014     1.529289
	   17 R(11,15)        =      1.088627     0.000004     0.000005     1.088632
	   18 R(11,16)        =      1.088755    -0.000020     0.000006     1.088761
	   19 R(14,17)        =      1.528271     0.000013     0.000002     1.528273
	   20 R(14,18)        =      1.087976     0.000008     0.000001     1.087977
	   21 R(14,19)        =      1.088113     0.000013     0.000001     1.088114
	   22 R(17,20)        =      1.086341    -0.000000    -0.000000     1.086340
	   23 R(17,21)        =      1.085668    -0.000005    -0.000001     1.085668
	   24 R(17,22)        =      1.086325     0.000006     0.000000     1.086325
	   25 B(1,2,3)        =    122.224676     0.000000    -0.000017   122.224658
	   26 B(1,2,4)        =    121.388181     0.000000     0.000068   121.388248
	   27 B(2,3,5)        =    114.043418     0.000000    -0.000010   114.043409
	   28 B(2,3,6)        =    107.813102    -0.000000    -0.000106   107.812995
	   29 B(2,3,7)        =    107.819421     0.000000     0.000271   107.819692
	   30 B(2,4,23)       =    110.422213    -0.000000    -0.000035   110.422178
	   31 B(2,4,24)       =    109.721465     0.000000     0.000081   109.721545
	   32 B(2,4,25)       =    110.405618     0.000000    -0.000036   110.405581
	   33 B(3,2,4)        =    116.387144    -0.000000    -0.000051   116.387093
	   34 B(3,5,8)        =    112.542581     0.000000     0.001071   112.543652
	   35 B(3,5,9)        =    109.136740    -0.000000    -0.001239   109.135501
	   36 B(3,5,10)       =    109.140537    -0.000000     0.000199   109.140735
	   37 B(5,3,6)        =    110.688053     0.000000    -0.000107   110.687946
	   38 B(5,3,7)        =    110.705081    -0.000000    -0.000133   110.704948
	   39 B(5,8,11)       =    113.090213     0.000000     0.000667   113.090881
	   40 B(5,8,12)       =    109.773902     0.000000     0.001523   109.775425
	   41 B(5,8,13)       =    109.490027     0.000000     0.001059   109.491086
	   42 B(6,3,7)        =    105.347306    -0.000000     0.000103   105.347409
	   43 B(8,5,9)        =    109.877176    -0.000000    -0.000807   109.876369
	   44 B(8,5,10)       =    109.880918     0.000000     0.001300   109.882218
	   45 B(8,11,14)      =    113.403952     0.000000     0.001067   113.405019
	   46 B(8,11,15)      =    109.407557    -0.000000     0.000751   109.408309
	   47 B(8,11,16)      =    109.074662    -0.000000    -0.002345   109.072317
	   48 B(9,5,10)       =    106.050235    -0.000000    -0.000636   106.049599
	   49 B(11,8,12)      =    109.343365    -0.000000    -0.000401   109.342964
	   50 B(11,8,13)      =    109.011516    -0.000000    -0.000833   109.010684
	   51 B(11,14,17)     =    113.008831     0.000000     0.000954   113.009785
	   52 B(11,14,18)     =    109.316246    -0.000000     0.000625   109.316871
	   53 B(11,14,19)     =    109.328654     0.000000     0.000000   109.328654
	   54 B(12,8,13)      =    105.874847    -0.000000    -0.002226   105.872621
	   55 B(14,11,15)     =    109.546899    -0.000000     0.002406   109.549304
	   56 B(14,11,16)     =    109.243552    -0.000000     0.000240   109.243793
	   57 B(14,17,20)     =    111.140373    -0.000000    -0.000662   111.139711
	   58 B(14,17,21)     =    111.265534    -0.000000    -0.000078   111.265456
	   59 B(14,17,22)     =    111.153805     0.000000     0.000486   111.154291
	   60 B(15,11,16)     =    105.888569     0.000000    -0.002386   105.886183
	   61 B(17,14,18)     =    109.349553     0.000000     0.000379   109.349933
	   62 B(17,14,19)     =    109.353816    -0.000000    -0.001456   109.352359
	   63 B(18,14,19)     =    106.259865    -0.000000    -0.000598   106.259266
	   64 B(20,17,21)     =    107.730358     0.000000     0.000036   107.730394
	   65 B(20,17,22)     =    107.647647    -0.000000     0.000101   107.647748
	   66 B(21,17,22)     =    107.730058    -0.000000     0.000133   107.730191
	   67 B(23,4,24)      =    109.502928     0.000000    -0.000001   109.502927
	   68 B(23,4,25)      =    107.254030    -0.000000    -0.000008   107.254022
	   69 B(24,4,25)      =    109.494396    -0.000000    -0.000002   109.494394
	   70 D(1,2,3,5)      =     -0.069416     0.000000     0.000014    -0.069402
	   71 D(1,2,3,6)      =    123.275254     0.000000    -0.000210   123.275044
	   72 D(1,2,3,7)      =   -123.440734     0.000000    -0.000010  -123.440744
	   73 D(1,2,4,23)     =   -120.893896    -0.000000    -0.001806  -120.895701
	   74 D(1,2,4,24)     =     -0.102229    -0.000000    -0.001778    -0.104007
	   75 D(1,2,4,25)     =    120.668221    -0.000000    -0.001751   120.666471
	   76 D(2,3,5,8)      =    179.859294    -0.000000    -0.011585   179.847709
	   77 D(2,3,5,9)      =     57.603535    -0.000000    -0.010397    57.593138
	   78 D(2,3,5,10)     =    -57.877482     0.000000    -0.009067   -57.886548
	   79 D(3,2,4,23)     =     59.106111     0.000000     0.001850    59.107961
	   80 D(3,2,4,24)     =    179.897778     0.000000     0.001877   179.899655
	   81 D(3,2,4,25)     =    -59.331772     0.000000     0.001904   -59.329867
	   82 D(3,5,8,11)     =    179.044999     0.000000     0.048579   179.093578
	   83 D(3,5,8,12)     =    -58.549529     0.000000     0.049642   -58.499887
	   84 D(3,5,8,13)     =     57.272867     0.000000     0.048429    57.321296
	   85 D(4,2,3,5)      =    179.930577    -0.000000    -0.003674   179.926903
	   86 D(4,2,3,6)      =    -56.724753    -0.000000    -0.003898   -56.728651
	   87 D(4,2,3,7)      =     56.559259    -0.000000    -0.003698    56.555561
	   88 D(5,8,11,14)    =    175.262333     0.000000     0.006535   175.268868
	   89 D(5,8,11,15)    =     52.645347     0.000000     0.002128    52.647475
	   90 D(5,8,11,16)    =    -62.755280     0.000000     0.005864   -62.749416
	   91 D(6,3,5,8)      =     58.087301    -0.000000    -0.011357    58.075943
	   92 D(6,3,5,9)      =    -64.168458    -0.000000    -0.010170   -64.178628
	   93 D(6,3,5,10)     =   -179.649475     0.000000    -0.008839  -179.658314
	   94 D(7,3,5,8)      =    -58.347505    -0.000000    -0.011338   -58.358843
	   95 D(7,3,5,9)      =    179.396736    -0.000000    -0.010150   179.386586
	   96 D(7,3,5,10)     =     63.915719     0.000000    -0.008820    63.906900
	   97 D(8,11,14,17)   =    179.096944    -0.000000    -0.037611   179.059332
	   98 D(8,11,14,18)   =    -58.878132    -0.000000    -0.036027   -58.914159
	   99 D(8,11,14,19)   =     57.057621    -0.000000    -0.036394    57.021227
	  100 D(9,5,8,11)     =    -59.118266     0.000000     0.047149   -59.071117
	  101 D(9,5,8,12)     =     63.287206     0.000000     0.048212    63.335418
	  102 D(9,5,8,13)     =    179.109602     0.000000     0.046999   179.156601
	  103 D(10,5,8,11)    =     57.200734     0.000000     0.046665    57.247399
	  104 D(10,5,8,12)    =    179.606205     0.000000     0.047729   179.653934
	  105 D(10,5,8,13)    =    -64.571399     0.000000     0.046516   -64.524883
	  106 D(11,14,17,20)  =     59.758192     0.000000     0.047950    59.806141
	  107 D(11,14,17,21)  =    179.815129     0.000000     0.047496   179.862626
	  108 D(11,14,17,22)  =    -60.119266     0.000000     0.047940   -60.071326
	  109 D(12,8,11,14)   =     52.617001     0.000000     0.004407    52.621408
	  110 *D(12,8,11,15)  =    -69.999986    -0.000000     0.000000   -69.999986
	  111 D(12,8,11,16)   =    174.599387     0.000000     0.003736   174.603123
	  112 D(13,8,11,14)   =    -62.697125     0.000000     0.007740   -62.689385
	  113 D(13,8,11,15)   =    174.685888     0.000000     0.003333   174.689222
	  114 D(13,8,11,16)   =     59.285261     0.000000     0.007069    59.292331
	  115 D(15,11,14,17)  =    -58.363192    -0.000000    -0.034115   -58.397307
	  116 D(15,11,14,18)  =     63.661732     0.000000    -0.032530    63.629201
	  117 D(15,11,14,19)  =    179.597485     0.000000    -0.032897   179.564588
	  118 D(16,11,14,17)  =     57.208699    -0.000000    -0.035500    57.173199
	  119 D(16,11,14,18)  =    179.233623     0.000000    -0.033915   179.199708
	  120 D(16,11,14,19)  =    -64.830624     0.000000    -0.034282   -64.864906
	  121 D(18,14,17,20)  =    -62.248043     0.000000     0.046226   -62.201817
	  122 D(18,14,17,21)  =     57.808895     0.000000     0.045773    57.854668
	  123 D(18,14,17,22)  =    177.874500     0.000000     0.046217   177.920716
	  124 D(19,14,17,20)  =   -178.216602     0.000000     0.047549  -178.169052
	  125 D(19,14,17,21)  =    -58.159664     0.000000     0.047096   -58.112568
	  126 D(19,14,17,22)  =     61.905941     0.000000     0.047540    61.953481
	 ---------------------------------------------------------------------------

  ==> Convergence Check <==

  Measures of convergence in internal coordinates in au.
  Criteria marked as inactive (o), active & met (*), and active & unmet ( ).
  ---------------------------------------------------------------------------------------------
   Step     Total Energy     Delta E     MAX Force     RMS Force      MAX Disp      RMS Disp   
  ---------------------------------------------------------------------------------------------
    Convergence Criteria    1.00e-06 *    3.00e-04 *             o    1.20e-03 *             o
  ---------------------------------------------------------------------------------------------
      6    -387.13643761   -9.18e-09 *    5.20e-06 *    1.88e-06 o    8.66e-04 *    3.57e-04 o  ~
  ---------------------------------------------------------------------------------------------


  **** Optimization is complete! (in 6 steps) ****

  ==> Optimization Summary <==

  Measures of convergence in internal coordinates in au.
  --------------------------------------------------------------------------------------------------------------- ~
   Step         Total Energy             Delta E       MAX Force       RMS Force        MAX Disp        RMS Disp  ~
  --------------------------------------------------------------------------------------------------------------- ~
      1    -387.136415885208   -387.136415885208      0.00039528      0.00008247      0.04612105      0.01583088  ~
      2    -387.136414586341      0.000001298867      0.00031278      0.00008245      0.03173101      0.01169833  ~
      3    -387.136435832756     -0.000021246415      0.00014403      0.00003515      0.01268745      0.00395948  ~
      4    -387.136413400800      0.000022431956      0.00042417      0.00012937      0.01115728      0.00336942  ~
      5    -387.136437605513     -0.000024204714      0.00004945      0.00000802      0.00139943      0.00050719  ~
      6    -387.136437614689     -0.000000009176      0.00000520      0.00000188      0.00086642      0.00035701  ~
  --------------------------------------------------------------------------------------------------------------- ~

	Writing optimization data to binary file.
	Final energy is   -387.1364376146888
	Final (previous) structure:
	Cartesian Geometry (in Angstrom)
	    O     2.8625678345   1.3556572995   0.0293769853
	    C     2.8432541104   0.1630533656   0.0376098426
	    C     1.5460201572  -0.6256729688   0.0316174008
	    C     4.1235245050  -0.6467319802   0.0547168524
	    C     0.2909948899   0.2419781491   0.0160158586
	    H     1.5645792289  -1.2910352528  -0.8305719336
	    H     1.5503463929  -1.2809839689   0.9016094040
	    C    -0.9943720128  -0.5864421275   0.0068915756
	    H     0.3179144990   0.8909800683  -0.8534819278
	    H     0.3011464066   0.8981191688   0.8806971043
	    C    -2.2611218815   0.2713836879   0.0146733685
	    H    -1.0059586976  -1.2390286127  -0.8650072318
	    H    -1.0074856218  -1.2464838840   0.8732631627
	    C    -3.5483081153  -0.5448961716  -0.1102551479
	    H    -2.2107843094   0.9981937234  -0.7942277344
	    H    -2.2921781905   0.8517344123   0.9353341902
	    C    -4.8087411252   0.3188013542  -0.0794499934
	    H    -3.5244799805  -1.1149332783  -1.0366359051
	    H    -3.5915407899  -1.2747959229   0.6955781178
	    H    -4.8102808057   1.0388269075  -0.8928978519
	    H    -5.7041876591  -0.2878775509  -0.1732138245
	    H    -4.8810846270   0.8736871803   0.8516621536
	    H     4.1721997752  -1.2971289513  -0.8137478811
	    H     4.9758748088   0.0183373217   0.0558035460
	    H     4.1581895056  -1.2817904683   0.9351398606
	Saving final (previous) structure.
			--------------------------
			 OPTKING Finished Execution 
			--------------------------

    Final optimized geometry and variables:
    Molecular point group: c1
    Full point group: C1

    Geometry (in Angstrom), charge = 0, multiplicity = 1:

    O            2.862567615911     1.355657195959     0.029376983060
    C            2.843253893245     0.163053353156     0.037609839738
    C            1.546020039102    -0.625672921068     0.031617398363
    C            4.123524190104    -0.646731930849     0.054716848203
    C            0.290994867686     0.241978130589     0.016015857334
    H            1.564579109440    -1.291035154172    -0.830571870194
    H            1.550346274536    -1.280983871039     0.901609335120
    C           -0.994371936900    -0.586442082736     0.006891575079
    H            0.317914474762     0.890980000247    -0.853481862667
    H            0.301146383630     0.898119100225     0.880697037086
    C           -2.261121708882     0.271383667155     0.014673367384
    H           -1.005958620807    -1.239028518131    -0.865007165727
    H           -1.007485544866    -1.246483788837     0.873263096037
    C           -3.548307844315    -0.544896129982    -0.110255139476
    H           -2.210784140570     0.998193647208    -0.794227673775
    H           -2.292178015436     0.851734347241     0.935334118731
    C           -4.808740757977     0.318801329871    -0.079449987331
    H           -3.524479711406    -1.114933193200    -1.036635825927
    H           -3.591540515618    -1.274795825507     0.695578064650
    H           -4.810280438329     1.038826828165    -0.892897783672
    H           -5.704187223522    -0.287877528898    -0.173213811239
    H           -4.881084254259     0.873687113552     0.851662088531
    H            4.172199456625    -1.297128852219    -0.813747819001
    H            4.975874428776     0.018337320263     0.055803541722
    H            4.158189188114    -1.281790370461     0.935139789160

	Cleaning optimization helper files.


Properties will be evaluated at   0.000000,   0.000000,   0.000000 Bohr

Properties computed using the  density matrix

  Nuclear Dipole Moment: (a.u.)
     X:   -11.2244      Y:    -4.4410      Z:    -0.1224

  Electronic Dipole Moment: (a.u.)
     X:    11.1592      Y:     3.2863      Z:     0.1302

  Dipole Moment: (a.u.)
     X:    -0.0651      Y:    -1.1547      Z:     0.0079     Total:     1.1565

  Dipole Moment: (Debye)
     X:    -0.1655      Y:    -2.9349      Z:     0.0200     Total:     2.9396

  Quadrupole Moment: (Debye Ang)
    XX:   -58.5701     YY:   -62.9323     ZZ:   -56.9187
    XY:    -8.6136     XZ:     0.0407     YZ:    -0.1274

  Traceless Quadrupole Moment: (Debye Ang)
    XX:     0.9036     YY:    -3.4586     ZZ:     2.5550
    XY:    -8.6136     XZ:     0.0407     YZ:    -0.1274

  Mulliken Charges: (a.u.)
   Center  Symbol    Alpha    Beta     Spin     Total
       1     O     4.26116  4.26116  0.00000 -0.52231
       2     C     2.73570  2.73570  0.00000  0.52860
       3     C     3.21091  3.21091  0.00000 -0.42182
       4     C     3.28663  3.28663  0.00000 -0.57326
       5     C     3.14804  3.14804  0.00000 -0.29608
       6     H     0.40993  0.40993  0.00000  0.18014
       7     H     0.40998  0.40998  0.00000  0.18004
       8     C     3.15403  3.15403  0.00000 -0.30805
       9     H     0.41201  0.41201  0.00000  0.17598
      10     H     0.41217  0.41217  0.00000  0.17566
      11     C     3.15084  3.15084  0.00000 -0.30167
      12     H     0.42489  0.42489  0.00000  0.15022
      13     H     0.42490  0.42490  0.00000  0.15019
      14     C     3.15153  3.15153  0.00000 -0.30305
      15     H     0.42230  0.42230  0.00000  0.15540
      16     H     0.42261  0.42261  0.00000  0.15477
      17     C     3.23937  3.23937  0.00000 -0.47874
      18     H     0.42340  0.42340  0.00000  0.15321
      19     H     0.42355  0.42355  0.00000  0.15290
      20     H     0.42127  0.42127  0.00000  0.15747
      21     H     0.41953  0.41953  0.00000  0.16095
      22     H     0.42140  0.42140  0.00000  0.15721
      23     H     0.40873  0.40873  0.00000  0.18254
      24     H     0.39645  0.39645  0.00000  0.20709
      25     H     0.40869  0.40869  0.00000  0.18262

   Total alpha = 36.00000, Total beta = 36.00000, Total charge =  0.00000


*** PSI4 exiting successfully. Buy a developer a beer!
