    -----------------------------------------------------------------------
          Psi4: An Open-Source Ab Initio Electronic Structure Package
                              Psi4 (no tag) Driver

                          Git: Rev {detached?}  

    J. M. Turney, A. C. Simmonett, R. M. Parrish, E. G. Hohenstein,
    F. A. Evangelista, J. T. Fermann, B. J. Mintz, L. A. Burns, J. J. Wilke,
    M. L. Abrams, N. J. Russ, M. L. Leininger, C. L. Janssen, E. T. Seidl,
    W. D. Allen, H. F. Schaefer, R. A. King, E. F. Valeev, C. D. Sherrill,
    and T. D. Crawford, WIREs Comput. Mol. Sci. 2, 556-565 (2012)
    (doi: 10.1002/wcms.93)

                         Additional Contributions by
    A. E. DePrince, M. Saitow, U. Bozkaya, A. Yu. Sokolov
    -----------------------------------------------------------------------


    Psi4 started on: Thu Sep  1 22:41:13 2016

    Process ID:  31524
    PSI4DATADIR: /export131/home/mjharvey/miniconda3/share
    Memory level set to 256.000 MB

  ==> Input File <==

--------------------------------------------------------------------------
set {
	reference rhf
	basis 6-31G*
}


set_num_threads( 1 )
memory 2 gb

molecule MOL {
0 1

H	 -4.139419	 0.664057	 -0.384538
O	 -3.517110	 -0.026191	 -0.205115
C	 -2.306886	 0.532354	 0.237577
C	 -1.177863	 -0.397191	 -0.171080
H	 -2.156308	 1.517575	 -0.201710
H	 -2.315015	 0.655684	 1.319734
C	 0.198102	 0.111031	 0.262842
H	 -1.208843	 -0.518759	 -1.250427
H	 -1.368741	 -1.376554	 0.258909
C	 1.331804	 -0.827780	 -0.158768
H	 0.361943	 1.100838	 -0.156218
H	 0.217265	 0.229072	 1.345532
C	 2.723619	 -0.410569	 0.329459
H	 1.342964	 -0.912588	 -1.244120
H	 1.116806	 -1.824343	 0.220779
C	 3.243875	 0.895854	 -0.272975
H	 3.424222	 -1.207124	 0.091250
H	 2.714788	 -0.329854	 1.414619
H	 3.251977	 0.848779	 -1.358681
H	 2.637085	 1.747371	 0.016682
H	 4.259473	 1.094070	 0.055697

	symmetry c1
}
set optking {
	frozen_dihedral = ("
		2 3 4 8,
		8 4 7 10,
		4 7 10 14,
		16 13 10 14
	")
}

ee = energy('scf')
oeprop('DIPOLE', 'QUADRUPOLE', 'MULLIKEN_CHARGES')
f=open( 'psi4out.xyz', 'w' )
f.write( "21  " )
f.write( str(ee) + "\n" )
f.write( MOL.save_string_xyz() )
f.close()
--------------------------------------------------------------------------

  Memory set to   2.000 GiB by Python script.

*** tstart() called on cx1-3-15-4.cx1.hpc.ic.ac.uk
*** at Thu Sep  1 22:41:13 2016


         ---------------------------------------------------------
                                   SCF
            by Justin Turney, Rob Parrish, and Andy Simmonett
                              RHF Reference
                        1 Threads,   2000 MiB Core
         ---------------------------------------------------------

  ==> Geometry <==

    Molecular point group: c1
    Full point group: C1

    Geometry (in Angstrom), charge = 0, multiplicity = 1:

       Center              X                  Y                   Z               Mass       
    ------------   -----------------  -----------------  -----------------  -----------------
           H         -4.140377004088     0.662814159170    -0.380349827057     1.007825032070
           O         -3.518068004088    -0.027433840830    -0.200926827057    15.994914619560
           C         -2.307844004088     0.531111159170     0.241765172943    12.000000000000
           C         -1.178821004088    -0.398433840830    -0.166891827057    12.000000000000
           H         -2.157266004088     1.516332159170    -0.197521827057     1.007825032070
           H         -2.315973004088     0.654441159170     1.323922172943     1.007825032070
           C          0.197143995912     0.109788159170     0.267030172943    12.000000000000
           H         -1.209801004088    -0.520001840830    -1.246238827057     1.007825032070
           H         -1.369699004088    -1.377796840830     0.263097172943     1.007825032070
           C          1.330845995912    -0.829022840830    -0.154579827057    12.000000000000
           H          0.360984995912     1.099595159170    -0.152029827057     1.007825032070
           H          0.216306995912     0.227829159170     1.349720172943     1.007825032070
           C          2.722660995912    -0.411811840830     0.333647172943    12.000000000000
           H          1.342005995912    -0.913830840830    -1.239931827057     1.007825032070
           H          1.115847995912    -1.825585840830     0.224967172943     1.007825032070
           C          3.242916995912     0.894611159170    -0.268786827057    12.000000000000
           H          3.423263995912    -1.208366840830     0.095438172943     1.007825032070
           H          2.713829995912    -0.331096840830     1.418807172943     1.007825032070
           H          3.251018995912     0.847536159170    -1.354492827057     1.007825032070
           H          2.636126995912     1.746128159170     0.020870172943     1.007825032070
           H          4.258514995912     1.092827159170     0.059885172943     1.007825032070

  Running in c1 symmetry.

  Rotational constants: A =      0.28722  B =      0.02717  C =      0.02604 [cm^-1]
  Rotational constants: A =   8610.57729  B =    814.41998  C =    780.64656 [MHz]
  Nuclear repulsion =  312.495645649802384

  Charge       = 0
  Multiplicity = 1
  Electrons    = 58
  Nalpha       = 29
  Nbeta        = 29

  ==> Algorithm <==

  SCF Algorithm Type is DF.
  DIIS enabled.
  MOM disabled.
  Fractional occupation disabled.
  Guess Type is CORE.
  Energy threshold   = 1.00e-06
  Density threshold  = 1.00e-06
  Integral threshold = 0.00e+00

  ==> Primary Basis <==

  Basis Set: 6-31G*
    Number of shells: 70
    Number of basis function: 133
    Number of Cartesian functions: 133
    Spherical Harmonics?: false
    Max angular momentum: 2

  ==> Pre-Iterations <==

   -------------------------------------------------------
    Irrep   Nso     Nmo     Nalpha   Nbeta   Ndocc  Nsocc
   -------------------------------------------------------
     A        133     133       0       0       0       0
   -------------------------------------------------------
    Total     133     133      29      29      29       0
   -------------------------------------------------------

 OEINTS: Overlap, kinetic, potential, dipole, and quadrupole integrals
         stored in file 35.

  ==> Integral Setup <==

  ==> DFJK: Density-Fitted J/K Matrices <==

    J tasked:                  Yes
    K tasked:                  Yes
    wK tasked:                  No
    OpenMP threads:              1
    Integrals threads:           1
    Memory (MB):              1430
    Algorithm:                Core
    Integral Cache:           NONE
    Schwarz Cutoff:          1E-12
    Fitting Condition:       1E-12

   => Auxiliary Basis Set <=

  Basis Set: 
    Number of shells: 294
    Number of basis function: 917
    Number of Cartesian functions: 917
    Spherical Harmonics?: false
    Max angular momentum: 3

  Minimum eigenvalue in the overlap matrix is 3.0801225641E-03.
  Using Symmetric Orthogonalization.
  SCF Guess: Core (One-Electron) Hamiltonian.

  ==> Iterations <==

                           Total Energy        Delta E     RMS |[F,P]|

   @DF-RHF iter   1:  -236.47931511619544   -2.36479e+02   6.55578e-02 
   @DF-RHF iter   2:   -91.20505958257752    1.45274e+02   7.68926e-02 DIIS
   @DF-RHF iter   3:  -239.40155605025114   -1.48196e+02   4.86897e-02 DIIS
   @DF-RHF iter   4:  -207.36809667208826    3.20335e+01   6.54451e-02 DIIS
   @DF-RHF iter   5:  -309.86921704565037   -1.02501e+02   5.94117e-03 DIIS
   @DF-RHF iter   6:  -310.17247466056057   -3.03258e-01   2.17067e-03 DIIS
   @DF-RHF iter   7:  -310.20835729840172   -3.58826e-02   5.35822e-04 DIIS
   @DF-RHF iter   8:  -310.21145539232549   -3.09809e-03   1.44136e-04 DIIS
   @DF-RHF iter   9:  -310.21175959784711   -3.04206e-04   5.43753e-05 DIIS
   @DF-RHF iter  10:  -310.21179311274369   -3.35149e-05   1.74649e-05 DIIS
   @DF-RHF iter  11:  -310.21179742430633   -4.31156e-06   5.97231e-06 DIIS
   @DF-RHF iter  12:  -310.21179801119325   -5.86887e-07   1.76736e-06 DIIS
   @DF-RHF iter  13:  -310.21179805774426   -4.65510e-08   5.44734e-07 DIIS

  ==> Post-Iterations <==

    Orbital Energies (a.u.)
    -----------------------

    Doubly Occupied:                                                      

       1A    -20.551527     2A    -11.267198     3A    -11.215341  
       4A    -11.215078     5A    -11.213488     6A    -11.209917  
       7A    -11.208311     8A     -1.358769     9A     -1.086078  
      10A     -1.033028    11A     -0.954319    12A     -0.875766  
      13A     -0.807551    14A     -0.778869    15A     -0.695996  
      16A     -0.657306    17A     -0.622927    18A     -0.604325  
      19A     -0.588268    20A     -0.570519    21A     -0.535351  
      22A     -0.520741    23A     -0.511045    24A     -0.484314  
      25A     -0.481100    26A     -0.461049    27A     -0.456141  
      28A     -0.450085    29A     -0.426806  

    Virtual:                                                              

      30A      0.225788    31A      0.228172    32A      0.257895  
      33A      0.266684    34A      0.273720    35A      0.306105  
      36A      0.312763    37A      0.313731    38A      0.334470  
      39A      0.340099    40A      0.344805    41A      0.353798  
      42A      0.367335    43A      0.380855    44A      0.388885  
      45A      0.397320    46A      0.431173    47A      0.450727  
      48A      0.489131    49A      0.500990    50A      0.699568  
      51A      0.720557    52A      0.731479    53A      0.745671  
      54A      0.765020    55A      0.778272    56A      0.795008  
      57A      0.852581    58A      0.883538    59A      0.902074  
      60A      0.941453    61A      0.954932    62A      0.979631  
      63A      0.997773    64A      1.046373    65A      1.064297  
      66A      1.102844    67A      1.117186    68A      1.125672  
      69A      1.149398    70A      1.163232    71A      1.168810  
      72A      1.180898    73A      1.195099    74A      1.200105  
      75A      1.203509    76A      1.218601    77A      1.224348  
      78A      1.250172    79A      1.260868    80A      1.266200  
      81A      1.281643    82A      1.289524    83A      1.303363  
      84A      1.425287    85A      1.476919    86A      1.513963  
      87A      1.610771    88A      1.666682    89A      1.702649  
      90A      1.722313    91A      1.788430    92A      1.836372  
      93A      1.858015    94A      1.915734    95A      1.944772  
      96A      2.049976    97A      2.063615    98A      2.142076  
      99A      2.179778   100A      2.193366   101A      2.244215  
     102A      2.264695   103A      2.282731   104A      2.294027  
     105A      2.318189   106A      2.349442   107A      2.363915  
     108A      2.448061   109A      2.462513   110A      2.491254  
     111A      2.556779   112A      2.593369   113A      2.658821  
     114A      2.677162   115A      2.691519   116A      2.740312  
     117A      2.759035   118A      2.799202   119A      2.853826  
     120A      2.907442   121A      2.954133   122A      2.967378  
     123A      2.991894   124A      3.086471   125A      3.201649  
     126A      3.263800   127A      4.209520   128A      4.558802  
     129A      4.641911   130A      4.740325   131A      4.826148  
     132A      4.894375   133A      5.000032  

    Final Occupation by Irrep:
              A 
    DOCC [    29 ]

  Energy converged.

  @DF-RHF Final Energy:  -310.21179805774426

   => Energetics <=

    Nuclear Repulsion Energy =            312.4956456498023840
    One-Electron Energy =               -1039.7329242237306062
    Two-Electron Energy =                 417.0254805161843024
    DFT Exchange-Correlation Energy =       0.0000000000000000
    Empirical Dispersion Energy =           0.0000000000000000
    PCM Polarization Energy =               0.0000000000000000
    EFP Energy =                            0.0000000000000000
    Total Energy =                       -310.2117980577439766

    Alert: EFP and PCM quantities not currently incorporated into SCF psivars.

Properties will be evaluated at   0.000000,   0.000000,   0.000000 Bohr
  ==> Properties <==


Properties computed using the SCF density matrix

  Nuclear Dipole Moment: (a.u.)
     X:     7.5998      Y:     1.5662      Z:     0.1735

  Electronic Dipole Moment: (a.u.)
     X:    -7.4656      Y:    -0.9247      Z:    -0.1363

  Dipole Moment: (a.u.)
     X:     0.1342      Y:     0.6416      Z:     0.0373     Total:     0.6565

  Dipole Moment: (Debye)
     X:     0.3411      Y:     1.6307      Z:     0.0947     Total:     1.6686


  Saving occupied orbitals to File 180.

*** tstop() called on cx1-3-15-4.cx1.hpc.ic.ac.uk at Thu Sep  1 22:41:25 2016
Module time:
	user time   =      11.34 seconds =       0.19 minutes
	system time =       0.06 seconds =       0.00 minutes
	total time  =         12 seconds =       0.20 minutes
Total time:
	user time   =      11.34 seconds =       0.19 minutes
	system time =       0.06 seconds =       0.00 minutes
	total time  =         12 seconds =       0.20 minutes


Properties will be evaluated at   0.000000,   0.000000,   0.000000 Bohr

Properties computed using the  density matrix

  Nuclear Dipole Moment: (a.u.)
     X:     7.5998      Y:     1.5662      Z:     0.1735

  Electronic Dipole Moment: (a.u.)
     X:    -7.4656      Y:    -0.9247      Z:    -0.1363

  Dipole Moment: (a.u.)
     X:     0.1342      Y:     0.6416      Z:     0.0373     Total:     0.6565

  Dipole Moment: (Debye)
     X:     0.3411      Y:     1.6307      Z:     0.0947     Total:     1.6686

  Quadrupole Moment: (Debye Ang)
    XX:   -47.1492     YY:   -46.0538     ZZ:   -46.5859
    XY:    -7.2094     XZ:     0.3200     YZ:    -0.7049

  Traceless Quadrupole Moment: (Debye Ang)
    XX:    -0.5529     YY:     0.5425     ZZ:     0.0104
    XY:    -7.2094     XZ:     0.3200     YZ:    -0.7049

  Mulliken Charges: (a.u.)
   Center  Symbol    Alpha    Beta     Spin     Total
       1     H     0.28054  0.28054  0.00000  0.43892
       2     O     4.37217  4.37217  0.00000 -0.74435
       3     C     2.99086  2.99086  0.00000  0.01828
       4     C     3.15749  3.15749  0.00000 -0.31498
       5     H     0.43379  0.43379  0.00000  0.13242
       6     H     0.42973  0.42973  0.00000  0.14055
       7     C     3.16229  3.16229  0.00000 -0.32458
       8     H     0.41698  0.41698  0.00000  0.16604
       9     H     0.41448  0.41448  0.00000  0.17103
      10     C     3.15165  3.15165  0.00000 -0.30330
      11     H     0.42238  0.42238  0.00000  0.15523
      12     H     0.42366  0.42366  0.00000  0.15268
      13     C     3.15248  3.15248  0.00000 -0.30496
      14     H     0.42335  0.42335  0.00000  0.15330
      15     H     0.42084  0.42084  0.00000  0.15833
      16     C     3.24114  3.24114  0.00000 -0.48229
      17     H     0.42067  0.42067  0.00000  0.15866
      18     H     0.42341  0.42341  0.00000  0.15318
      19     H     0.42217  0.42217  0.00000  0.15567
      20     H     0.42071  0.42071  0.00000  0.15858
      21     H     0.41921  0.41921  0.00000  0.16158

   Total alpha = 29.00000, Total beta = 29.00000, Total charge =  0.00000


*** PSI4 exiting successfully. Buy a developer a beer!
