    -----------------------------------------------------------------------
          Psi4: An Open-Source Ab Initio Electronic Structure Package
                              Psi4 (no tag) Driver

                          Git: Rev {detached?}  

    J. M. Turney, A. C. Simmonett, R. M. Parrish, E. G. Hohenstein,
    F. A. Evangelista, J. T. Fermann, B. J. Mintz, L. A. Burns, J. J. Wilke,
    M. L. Abrams, N. J. Russ, M. L. Leininger, C. L. Janssen, E. T. Seidl,
    W. D. Allen, H. F. Schaefer, R. A. King, E. F. Valeev, C. D. Sherrill,
    and T. D. Crawford, WIREs Comput. Mol. Sci. 2, 556-565 (2012)
    (doi: 10.1002/wcms.93)

                         Additional Contributions by
    A. E. DePrince, M. Saitow, U. Bozkaya, A. Yu. Sokolov
    -----------------------------------------------------------------------


    Psi4 started on: Fri Sep  2 11:56:45 2016

    Process ID:   3150
    PSI4DATADIR: /export131/home/mjharvey/miniconda3/share
    Memory level set to 256.000 MB

  ==> Input File <==

--------------------------------------------------------------------------
set {
	reference rhf
	basis 6-31G*
}


set_num_threads( 4 )
memory 2 gb

molecule MOL {
0 1

H	 2.612987	 1.638072	 2.139937
O	 1.678345	 1.529849	 2.246422
C	 1.117919	 1.028062	 1.124582
C	 1.862338	 0.727818	 -0.008996
C	 -0.249503	 0.814644	 1.130886
H	 2.926383	 0.894656	 -0.011816
C	 1.239531	 0.214857	 -1.134453
H	 -0.825678	 1.046129	 2.005822
C	 -0.865228	 0.300799	 0.000000
H	 1.826083	 -0.013643	 -2.005730
C	 -0.126583	 -0.001609	 -1.136980
C	 -2.333960	 0.069074	 0.000000
H	 -0.612401	 -0.399969	 -2.010076
O	 -2.847347	 -1.003763	 0.000000
H	 -2.943845	 0.977528	 0.000000

	symmetry c1
}
set optking {
	frozen_dihedral = ("
		11 9 12 14
	")
}

ee = optimize('scf')
oeprop('DIPOLE', 'QUADRUPOLE', 'MULLIKEN_CHARGES')
f=open( 'psi4out.xyz', 'w' )
f.write( "15  " )
f.write( str(ee) + "\n" )
f.write( MOL.save_string_xyz() )
f.close()
--------------------------------------------------------------------------

  Memory set to   2.000 GiB by Python script.
gradient() will perform analytic gradient computation.

*** tstart() called on cx1-5-7-1.cx1.hpc.ic.ac.uk
*** at Fri Sep  2 11:56:45 2016


         ---------------------------------------------------------
                                   SCF
            by Justin Turney, Rob Parrish, and Andy Simmonett
                              RHF Reference
                        4 Threads,   2000 MiB Core
         ---------------------------------------------------------

  ==> Geometry <==

    Molecular point group: c1
    Full point group: C1

    Geometry (in Angstrom), charge = 0, multiplicity = 1:

       Center              X                  Y                   Z               Mass       
    ------------   -----------------  -----------------  -----------------  -----------------
           H          2.678189015385     1.224806169657     1.846985500609     1.007825032070
           O          1.743547015385     1.116583169657     1.953470500609    15.994914619560
           C          1.183121015385     0.614796169657     0.831630500609    12.000000000000
           C          1.927540015385     0.314552169657    -0.301947499391    12.000000000000
           C         -0.184300984615     0.401378169657     0.837934500609    12.000000000000
           H          2.991585015385     0.481390169657    -0.304767499391     1.007825032070
           C          1.304733015385    -0.198408830343    -1.427404499391    12.000000000000
           H         -0.760475984615     0.632863169657     1.712870500609     1.007825032070
           C         -0.800025984615    -0.112466830343    -0.292951499391    12.000000000000
           H          1.891285015385    -0.426908830343    -2.298681499391     1.007825032070
           C         -0.061380984615    -0.414874830343    -1.429931499391    12.000000000000
           C         -2.268757984615    -0.344191830343    -0.292951499391    12.000000000000
           H         -0.547198984615    -0.813234830343    -2.303027499391     1.007825032070
           O         -2.782144984615    -1.417028830343    -0.292951499391    15.994914619560
           H         -2.878642984615     0.564262169657    -0.292951499391     1.007825032070

  Running in c1 symmetry.

  Rotational constants: A =      0.11360  B =      0.03931  C =      0.03007 [cm^-1]
  Rotational constants: A =   3405.54864  B =   1178.44168  C =    901.58930 [MHz]
  Nuclear repulsion =  402.042564931992217

  Charge       = 0
  Multiplicity = 1
  Electrons    = 64
  Nalpha       = 32
  Nbeta        = 32

  ==> Algorithm <==

  SCF Algorithm Type is DF.
  DIIS enabled.
  MOM disabled.
  Fractional occupation disabled.
  Guess Type is CORE.
  Energy threshold   = 1.00e-08
  Density threshold  = 1.00e-08
  Integral threshold = 0.00e+00

  ==> Primary Basis <==

  Basis Set: 6-31G*
    Number of shells: 66
    Number of basis function: 147
    Number of Cartesian functions: 147
    Spherical Harmonics?: false
    Max angular momentum: 2

  ==> Pre-Iterations <==

   -------------------------------------------------------
    Irrep   Nso     Nmo     Nalpha   Nbeta   Ndocc  Nsocc
   -------------------------------------------------------
     A        147     147       0       0       0       0
   -------------------------------------------------------
    Total     147     147      32      32      32       0
   -------------------------------------------------------

 OEINTS: Overlap, kinetic, potential, dipole, and quadrupole integrals
         stored in file 35.

  ==> Integral Setup <==

  ==> DFJK: Density-Fitted J/K Matrices <==

    J tasked:                  Yes
    K tasked:                  Yes
    wK tasked:                  No
    OpenMP threads:              4
    Integrals threads:           4
    Memory (MB):              1430
    Algorithm:                Core
    Integral Cache:           NONE
    Schwarz Cutoff:          1E-12
    Fitting Condition:       1E-12

   => Auxiliary Basis Set <=

  Basis Set: 
    Number of shells: 270
    Number of basis function: 879
    Number of Cartesian functions: 879
    Spherical Harmonics?: false
    Max angular momentum: 3

  Minimum eigenvalue in the overlap matrix is 4.1925578342E-04.
  Using Symmetric Orthogonalization.
  SCF Guess: Core (One-Electron) Hamiltonian.

  ==> Iterations <==

                           Total Energy        Delta E     RMS |[F,P]|

   @DF-RHF iter   1:  -337.54247359835773   -3.37542e+02   6.27051e-02 
   @DF-RHF iter   2:  -245.33989071789387    9.22026e+01   7.25364e-02 DIIS
   @DF-RHF iter   3:  -328.48895461841681   -8.31491e+01   5.41163e-02 DIIS
   @DF-RHF iter   4:  -341.76308489879381   -1.32741e+01   5.67249e-02 DIIS
   @DF-RHF iter   5:  -416.34146891318352   -7.45784e+01   1.15392e-02 DIIS
   @DF-RHF iter   6:  -417.88571557649965   -1.54425e+00   6.36724e-03 DIIS
   @DF-RHF iter   7:  -418.23850905410239   -3.52793e-01   1.72688e-03 DIIS
   @DF-RHF iter   8:  -418.27161133843566   -3.31023e-02   3.41891e-04 DIIS
   @DF-RHF iter   9:  -418.27432576303096   -2.71442e-03   1.53483e-04 DIIS
   @DF-RHF iter  10:  -418.27474394807047   -4.18185e-04   6.40866e-05 DIIS
   @DF-RHF iter  11:  -418.27484630988221   -1.02362e-04   2.26563e-05 DIIS
   @DF-RHF iter  12:  -418.27486046684231   -1.41570e-05   1.08014e-05 DIIS
   @DF-RHF iter  13:  -418.27486410652745   -3.63969e-06   4.49849e-06 DIIS
   @DF-RHF iter  14:  -418.27486488898063   -7.82453e-07   1.58353e-06 DIIS
   @DF-RHF iter  15:  -418.27486502857931   -1.39599e-07   7.53263e-07 DIIS
   @DF-RHF iter  16:  -418.27486505163398   -2.30547e-08   3.09851e-07 DIIS
   @DF-RHF iter  17:  -418.27486505532687   -3.69289e-09   1.60255e-07 DIIS
   @DF-RHF iter  18:  -418.27486505625740   -9.30527e-10   4.66355e-08 DIIS
   @DF-RHF iter  19:  -418.27486505636108   -1.03682e-10   1.62437e-08 DIIS
   @DF-RHF iter  20:  -418.27486505637700   -1.59162e-11   8.41253e-09 DIIS

  ==> Post-Iterations <==

    Orbital Energies (a.u.)
    -----------------------

    Doubly Occupied:                                                      

       1A    -20.603395     2A    -20.572515     3A    -11.335755  
       4A    -11.314646     5A    -11.256287     6A    -11.251845  
       7A    -11.243341     8A    -11.241535     9A    -11.239637  
      10A     -1.422845    11A     -1.410256    12A     -1.168494  
      13A     -1.049782    14A     -1.024317    15A     -0.901210  
      16A     -0.843019    17A     -0.816973    18A     -0.738443  
      19A     -0.700221    20A     -0.671150    21A     -0.668111  
      22A     -0.637123    23A     -0.615100    24A     -0.601149  
      25A     -0.582483    26A     -0.541520    27A     -0.530053  
      28A     -0.512213    29A     -0.491595    30A     -0.424138  
      31A     -0.353544    32A     -0.324385  

    Virtual:                                                              

      33A      0.114080    34A      0.147062    35A      0.167610  
      36A      0.213001    37A      0.239927    38A      0.285556  
      39A      0.295568    40A      0.303171    41A      0.335168  
      42A      0.364992    43A      0.419659    44A      0.440664  
      45A      0.456567    46A      0.470295    47A      0.505535  
      48A      0.551047    49A      0.592156    50A      0.640302  
      51A      0.712835    52A      0.732211    53A      0.738432  
      54A      0.762877    55A      0.770118    56A      0.811153  
      57A      0.817418    58A      0.818651    59A      0.832879  
      60A      0.866984    61A      0.882776    62A      0.895458  
      63A      0.905020    64A      0.923064    65A      0.957917  
      66A      0.996583    67A      1.003042    68A      1.035060  
      69A      1.081844    70A      1.102483    71A      1.107762  
      72A      1.115911    73A      1.118060    74A      1.133862  
      75A      1.159633    76A      1.180518    77A      1.199811  
      78A      1.228597    79A      1.237237    80A      1.254301  
      81A      1.305953    82A      1.328404    83A      1.352777  
      84A      1.372587    85A      1.403167    86A      1.429290  
      87A      1.454532    88A      1.484511    89A      1.550962  
      90A      1.613777    91A      1.623559    92A      1.687099  
      93A      1.719027    94A      1.742579    95A      1.744795  
      96A      1.806824    97A      1.828994    98A      1.873110  
      99A      1.972087   100A      2.014668   101A      2.029617  
     102A      2.051967   103A      2.083475   104A      2.090682  
     105A      2.161936   106A      2.173490   107A      2.223372  
     108A      2.237287   109A      2.276704   110A      2.287916  
     111A      2.305192   112A      2.337908   113A      2.398163  
     114A      2.437506   115A      2.457885   116A      2.466355  
     117A      2.529784   118A      2.557372   119A      2.623969  
     120A      2.638535   121A      2.705758   122A      2.753884  
     123A      2.808153   124A      2.845133   125A      2.889306  
     126A      2.918884   127A      2.962420   128A      3.017820  
     129A      3.023799   130A      3.075240   131A      3.120805  
     132A      3.123205   133A      3.280063   134A      3.296135  
     135A      3.322310   136A      3.359845   137A      3.520517  
     138A      3.832159   139A      4.266847   140A      4.359260  
     141A      4.519365   142A      4.531325   143A      4.607214  
     144A      4.622915   145A      4.783394   146A      4.875741  
     147A      5.188990  

    Final Occupation by Irrep:
              A 
    DOCC [    32 ]

  Energy converged.

  @DF-RHF Final Energy:  -418.27486505637700

   => Energetics <=

    Nuclear Repulsion Energy =            402.0425649319922172
    One-Electron Energy =               -1366.4607034646473949
    Two-Electron Energy =                 546.1432734762787504
    DFT Exchange-Correlation Energy =       0.0000000000000000
    Empirical Dispersion Energy =           0.0000000000000000
    PCM Polarization Energy =               0.0000000000000000
    EFP Energy =                            0.0000000000000000
    Total Energy =                       -418.2748650563763704

    Alert: EFP and PCM quantities not currently incorporated into SCF psivars.

Properties will be evaluated at   0.000000,   0.000000,   0.000000 Bohr
  ==> Properties <==


Properties computed using the SCF density matrix

  Nuclear Dipole Moment: (a.u.)
     X:     3.1587      Y:     1.5577      Z:    -1.5291

  Electronic Dipole Moment: (a.u.)
     X:    -1.8948      Y:    -0.6468      Z:     1.1736

  Dipole Moment: (a.u.)
     X:     1.2640      Y:     0.9109      Z:    -0.3554     Total:     1.5980

  Dipole Moment: (Debye)
     X:     3.2127      Y:     2.3153      Z:    -0.9034     Total:     4.0618


  Saving occupied orbitals to File 180.

*** tstop() called on cx1-5-7-1.cx1.hpc.ic.ac.uk at Fri Sep  2 11:56:52 2016
Module time:
	user time   =      19.95 seconds =       0.33 minutes
	system time =       0.20 seconds =       0.00 minutes
	total time  =          7 seconds =       0.12 minutes
Total time:
	user time   =      19.95 seconds =       0.33 minutes
	system time =       0.20 seconds =       0.00 minutes
	total time  =          7 seconds =       0.12 minutes

*** tstart() called on cx1-5-7-1.cx1.hpc.ic.ac.uk
*** at Fri Sep  2 11:56:52 2016


         ------------------------------------------------------------
                                   SCF GRAD                          
                          Rob Parrish, Justin Turney,                
                       Andy Simmonett, and Alex Sokolov              
         ------------------------------------------------------------

  ==> Geometry <==

    Molecular point group: c1
    Full point group: C1

    Geometry (in Angstrom), charge = 0, multiplicity = 1:

       Center              X                  Y                   Z               Mass       
    ------------   -----------------  -----------------  -----------------  -----------------
           H          2.678189015385     1.224806169657     1.846985500609     1.007825032070
           O          1.743547015385     1.116583169657     1.953470500609    15.994914619560
           C          1.183121015385     0.614796169657     0.831630500609    12.000000000000
           C          1.927540015385     0.314552169657    -0.301947499391    12.000000000000
           C         -0.184300984615     0.401378169657     0.837934500609    12.000000000000
           H          2.991585015385     0.481390169657    -0.304767499391     1.007825032070
           C          1.304733015385    -0.198408830343    -1.427404499391    12.000000000000
           H         -0.760475984615     0.632863169657     1.712870500609     1.007825032070
           C         -0.800025984615    -0.112466830343    -0.292951499391    12.000000000000
           H          1.891285015385    -0.426908830343    -2.298681499391     1.007825032070
           C         -0.061380984615    -0.414874830343    -1.429931499391    12.000000000000
           C         -2.268757984615    -0.344191830343    -0.292951499391    12.000000000000
           H         -0.547198984615    -0.813234830343    -2.303027499391     1.007825032070
           O         -2.782144984615    -1.417028830343    -0.292951499391    15.994914619560
           H         -2.878642984615     0.564262169657    -0.292951499391     1.007825032070

  Nuclear repulsion =  402.042564931992217

  ==> Basis Set <==

  Basis Set: 6-31G*
    Number of shells: 66
    Number of basis function: 147
    Number of Cartesian functions: 147
    Spherical Harmonics?: false
    Max angular momentum: 2

  ==> DFJKGrad: Density-Fitted SCF Gradients <==

    Gradient:                    1
    J tasked:                  Yes
    K tasked:                  Yes
    wK tasked:                  No
    OpenMP threads:              4
    Integrals threads:           4
    Memory (MB):              1430
    Schwarz Cutoff:          0E+00
    Fitting Condition:       1E-12

   => Auxiliary Basis Set <=

  Basis Set: 
    Number of shells: 270
    Number of basis function: 879
    Number of Cartesian functions: 879
    Spherical Harmonics?: false
    Max angular momentum: 3


  -Total Gradient:
     Atom            X                  Y                   Z
    ------   -----------------  -----------------  -----------------
       1       -0.000100166864     0.000270437975     0.000252389292
       2        0.001094366726     0.000160619530     0.000077839994
       3       -0.003554822331     0.000416166473     0.000834323904
       4       -0.001185860854    -0.000510131134    -0.001013153038
       5        0.004828653701    -0.000794969644     0.004800387388
       6        0.000015209973    -0.000130182424    -0.000293552776
       7        0.001134616640    -0.001507888082    -0.002492412764
       8       -0.001317845354    -0.001175390372    -0.002480640071
       9       -0.009670110573     0.002865146575     0.001695080860
      10        0.000229348029     0.000001866327     0.000076932711
      11        0.000004969011     0.001924104423     0.001492851366
      12        0.010011430865     0.000363439192    -0.003133386758
      13       -0.000095024409     0.000332514472    -0.001196745532
      14       -0.002830778474    -0.003049527788     0.003169620382
      15        0.001436013916     0.000833794481    -0.001789534959


*** tstop() called on cx1-5-7-1.cx1.hpc.ic.ac.uk at Fri Sep  2 11:56:58 2016
Module time:
	user time   =      24.46 seconds =       0.41 minutes
	system time =       0.25 seconds =       0.00 minutes
	total time  =          6 seconds =       0.10 minutes
Total time:
	user time   =      44.43 seconds =       0.74 minutes
	system time =       0.45 seconds =       0.01 minutes
	total time  =         13 seconds =       0.22 minutes
CURRENT ENERGY: -418.2748650564

			-----------------------------------------
			 OPTKING 2.0: for geometry optimizations 
			  - R.A. King,  Bethel University        
			-----------------------------------------

	Internal coordinates to be generated automatically.
	Detected frag with atoms:  1 2 3 4 5 6 7 8 9 10 11 12 13 14 15
	---Fragment 1 Bond Connectivity---
	 1 : 2
	 2 : 1 3
	 3 : 2 4 5
	 4 : 3 6 7
	 5 : 3 8 9
	 6 : 4
	 7 : 4 10 11
	 8 : 5
	 9 : 5 11 12
	 10 : 7
	 11 : 7 9 13
	 12 : 9 14 15
	 13 : 11
	 14 : 12
	 15 : 12

	Assuming in current code that numbering for constraints corresponds to unified fragment.
	Frozen dihedral atom list: 
	    11     9    12    14
	---Fragment 1 Geometry and Gradient---
	 H           5.0610437712        2.3145482265        3.4902967676
	 O           3.2948263589        2.1100363952        3.6915242548
	 C           2.2357747011        1.1617963882        1.5715538899
	 C           3.6425227393        0.5944174552       -0.5705980804
	 C          -0.3482783869        0.7584948164        1.5834667234
	 H           5.6532763823        0.9096955837       -0.5759271081
	 C           2.4655880756       -0.3749383517       -2.6974035847
	 H          -1.4370913416        1.1959380702        3.2368561472
	 C          -1.5118300101       -0.2125315084       -0.5535981041
	 H           3.5740107183       -0.8067407731       -4.3438785006
	 C          -0.1159932507       -0.7839998088       -2.7021789226
	 C          -4.2873312527       -0.6504282965       -0.5535981041
	 H          -1.0340562211       -1.5367911111       -4.3520912504
	 O          -5.2574920829       -2.6777964118       -0.5535981041
	 H          -5.4398468753        1.0663009678       -0.5535981041
	            -0.0001001669        0.0002704380        0.0002523893
	             0.0010943667        0.0001606195        0.0000778400
	            -0.0035548223        0.0004161665        0.0008343239
	            -0.0011858609       -0.0005101311       -0.0010131530
	             0.0048286537       -0.0007949696        0.0048003874
	             0.0000152100       -0.0001301824       -0.0002935528
	             0.0011346166       -0.0015078881       -0.0024924128
	            -0.0013178454       -0.0011753904       -0.0024806401
	            -0.0096701106        0.0028651466        0.0016950809
	             0.0002293480        0.0000018663        0.0000769327
	             0.0000049690        0.0019241044        0.0014928514
	             0.0100114309        0.0003634392       -0.0031333868
	            -0.0000950244        0.0003325145       -0.0011967455
	            -0.0028307785       -0.0030495278        0.0031696204
	             0.0014360139        0.0008337945       -0.0017895350

	Previous optimization step data not found.  Starting new optimization.

	---Fragment 1 Intrafragment Coordinates---
	 - Coordinate -           - BOHR/RAD -       - ANG/DEG -
	 R(1,2)           =         1.789369	       0.946893
	 R(2,3)           =         2.552454	       1.350701
	 R(3,4)           =         2.624819	       1.388994
	 R(3,5)           =         2.615363	       1.383991
	 R(4,6)           =         2.035328	       1.077049
	 R(4,7)           =         2.616893	       1.384800
	 R(5,8)           =         2.027453	       1.072882
	 R(5,9)           =         2.619884	       1.386383
	 R(7,10)          =         2.031239	       1.074886
	 R(7,11)          =         2.613793	       1.383160
	 R(9,11)          =         2.625135	       1.389162
	 R(9,12)          =         2.809833	       1.486900
	 R(11,13)         =         2.032669	       1.075642
	 R(12,14)         =         2.247539	       1.189347
	 R(12,15)         =         2.067717	       1.094189
	 B(1,2,3)         =         1.937568	     111.014481
	 B(2,3,4)         =         2.136212	     122.395909
	 B(2,3,5)         =         2.052683	     117.610079
	 B(3,4,6)         =         2.092229	     119.875915
	 B(3,4,7)         =         2.097061	     120.152757
	 B(3,5,8)         =         2.095607	     120.069423
	 B(3,5,9)         =         2.085463	     119.488249
	 B(4,3,5)         =         2.094291	     119.994012
	 B(4,7,10)        =         2.085294	     119.478528
	 B(4,7,11)        =         2.098625	     120.242362
	 B(5,9,11)        =         2.108500	     120.808138
	 B(5,9,12)        =         2.090311	     119.765982
	 B(6,4,7)         =         2.093895	     119.971328
	 B(7,11,9)        =         2.082431	     119.314482
	 B(7,11,13)       =         2.100793	     120.366556
	 B(8,5,9)         =         2.102115	     120.442328
	 B(9,11,13)       =         2.099962	     120.318961
	 B(9,12,14)       =         2.173605	     124.538387
	 B(9,12,15)       =         2.005548	     114.909420
	 B(10,7,11)       =         2.099267	     120.279111
	 B(11,9,12)       =         2.084375	     119.425880
	 B(14,12,15)      =         2.104033	     120.552193
	 D(1,2,3,4)       =        -0.000000	      -0.000000
	 D(1,2,3,5)       =         3.141593	     180.000000
	 D(2,3,4,6)       =        -0.000000	      -0.000000
	 D(2,3,4,7)       =         3.141593	     180.000000
	 D(2,3,5,8)       =        -0.000000	      -0.000000
	 D(2,3,5,9)       =         3.141593	     180.000000
	 D(3,4,7,10)      =         3.141593	     180.000000
	 D(3,4,7,11)      =        -0.000000	      -0.000000
	 D(3,5,9,11)      =        -0.000000	      -0.000000
	 D(3,5,9,12)      =         3.141593	     180.000000
	 D(4,3,5,8)       =         3.141593	     180.000000
	 D(4,3,5,9)       =         0.000000	       0.000000
	 D(4,7,11,9)      =         0.000000	       0.000000
	 D(4,7,11,13)     =         3.141593	     180.000000
	 D(5,3,4,6)       =         3.141593	     180.000000
	 D(5,3,4,7)       =         0.000000	       0.000000
	 D(5,9,11,7)      =         0.000000	       0.000000
	 D(5,9,11,13)     =         3.141593	     180.000000
	 D(5,9,12,14)     =        -1.919863	    -110.000022
	 D(5,9,12,15)     =         1.221730	      69.999978
	 D(6,4,7,10)      =         0.000000	       0.000000
	 D(6,4,7,11)      =         3.141593	     180.000000
	 D(7,11,9,12)     =         3.141593	     180.000000
	 D(8,5,9,11)      =         3.141593	     180.000000
	 D(8,5,9,12)      =         0.000000	       0.000000
	 D(9,11,7,10)     =         3.141593	     180.000000
	 D(10,7,11,13)    =        -0.000000	      -0.000000
	*D(11,9,12,14)    =         1.221731	      70.000005
	 D(11,9,12,15)    =        -1.919862	    -109.999995
	 D(12,9,11,13)    =         0.000000	       0.000000

	Current energy   :      -418.2748650564

	Generating empirical Hessian (Schlegel '84) for each fragment.
	Taking RFO optimization step.
	Going to follow RFO solution 1.
	Using RFO vector 1.
	Norm of target step-size    0.32434
	Projected energy change by RFO approximation:        -0.0028510673

	Back-transformation to cartesian coordinates...
	Successfully converged to displaced geometry.

	Back-transformation to cartesian coordinates to adjust frozen coordinates...
	Successfully converged to displaced geometry.

	--- Internal Coordinate Step in ANG or DEG, aJ/ANG or AJ/DEG ---
	 ---------------------------------------------------------------------------
	   Coordinate                Previous        Force       Change         New 
	   ----------                --------       ------       ------       ------
	    1 R(1,2)          =      0.946893     0.000794     0.000087     0.946980
	    2 R(2,3)          =      1.350701    -0.006978    -0.000814     1.349886
	    3 R(3,4)          =      1.388994    -0.019236    -0.002637     1.386358
	    4 R(3,5)          =      1.383991     0.015734     0.002075     1.386065
	    5 R(4,6)          =      1.077049     0.000036     0.000006     1.077055
	    6 R(4,7)          =      1.384800    -0.000152    -0.000056     1.384744
	    7 R(5,8)          =      1.072882     0.012925     0.002243     1.075125
	    8 R(5,9)          =      1.386383    -0.008185    -0.001057     1.385326
	    9 R(7,10)         =      1.074886    -0.000514    -0.000090     1.074796
	   10 R(7,11)         =      1.383160     0.005192     0.000692     1.383852
	   11 R(9,11)         =      1.389162    -0.004088    -0.000508     1.388654
	   12 R(9,12)         =      1.486900     0.067745     0.012819     1.499719
	   13 R(11,13)        =      1.075642    -0.007342    -0.001286     1.074357
	   14 R(12,14)        =      1.189347    -0.032730    -0.001902     1.187445
	   15 R(12,15)        =      1.094189     0.000891     0.000166     1.094354
	   16 B(1,2,3)        =    111.014481    -0.000044    -0.206080   110.808401
	   17 B(2,3,4)        =    122.395909     0.000033     0.101041   122.496950
	   18 B(2,3,5)        =    117.610079    -0.000066    -0.196182   117.413897
	   19 B(3,4,6)        =    119.875915     0.000035     0.092804   119.968719
	   20 B(3,4,7)        =    120.152757    -0.000120    -0.418116   119.734641
	   21 B(3,5,8)        =    120.069423    -0.000227    -1.031320   119.038104
	   22 B(3,5,9)        =    119.488249     0.000052     0.180544   119.668793
	   23 B(4,3,5)        =    119.994012     0.000033     0.093477   120.087489
	   24 B(4,7,10)       =    119.478528    -0.000054    -0.161017   119.317511
	   25 B(4,7,11)       =    120.242362     0.000144     0.483067   120.725429
	   26 B(5,9,11)       =    120.808138    -0.000048    -0.171438   120.636699
	   27 B(5,9,12)       =    119.765982    -0.000099    -0.336306   119.429676
	   28 B(6,4,7)        =    119.971328     0.000085     0.324272   120.295600
	   29 B(7,11,9)       =    119.314482    -0.000061    -0.204023   119.110459
	   30 B(7,11,13)      =    120.366556     0.000067     0.270651   120.637207
	   31 B(8,5,9)        =    120.442328     0.000175     0.845011   121.287338
	   32 B(9,11,13)      =    120.318961    -0.000006    -0.069111   120.249850
	   33 B(9,12,14)      =    124.538387    -0.000228    -1.016193   123.522194
	   34 B(9,12,15)      =    114.909420     0.000244     0.753143   115.662563
	   35 B(10,7,11)      =    120.279111    -0.000089    -0.324139   119.954972
	   36 B(11,9,12)      =    119.425880     0.000147     0.396844   119.822724
	   37 B(14,12,15)     =    120.552193    -0.000016    -0.465499   120.086694
	   38 D(1,2,3,4)      =      0.000000    -0.000004    -0.895408    -0.895408
	   39 D(1,2,3,5)      =    180.000000    -0.000001    -0.425864   179.574136
	   40 D(2,3,4,6)      =      0.000000    -0.000000    -0.026462    -0.026462
	   41 D(2,3,4,7)      =    180.000000     0.000001     0.343442   180.343442
	   42 D(2,3,5,8)      =      0.000000     0.000002     0.375794     0.375794
	   43 D(2,3,5,9)      =    180.000000     0.000007     1.237809   181.237809
	   44 D(3,4,7,10)     =    180.000000    -0.000001    -0.315559   179.684441
	   45 D(3,4,7,11)     =      0.000000    -0.000005    -0.841588    -0.841588
	   46 D(3,5,9,11)     =      0.000000    -0.000012    -2.303987    -2.303987
	   47 D(3,5,9,12)     =    180.000000     0.000007     1.531345   181.531345
	   48 D(4,3,5,8)      =    180.000000     0.000005     0.833485   180.833485
	   49 D(4,3,5,9)      =      0.000000     0.000010     1.695500     1.695500
	   50 D(4,7,11,9)     =      0.000000     0.000003     0.249111     0.249111
	   51 D(4,7,11,13)    =    180.000000     0.000006     0.820964   180.820964
	   52 D(5,3,4,6)      =    180.000000    -0.000003    -0.508184   179.491816
	   53 D(5,3,4,7)      =      0.000000    -0.000001    -0.138280    -0.138280
	   54 D(5,9,11,7)     =      0.000000     0.000006     1.331535     1.331535
	   55 D(5,9,11,13)    =    180.000000     0.000002     0.761950   180.761950
	   56 D(5,9,12,14)    =   -110.000022    -0.000019    -3.803639  -113.803661
	   57 D(5,9,12,15)    =     69.999978    -0.000039   -13.602064    56.397914
	   58 D(6,4,7,10)     =      0.000000     0.000001     0.055572     0.055572
	   59 D(6,4,7,11)     =    180.000000    -0.000003    -0.470457   179.529543
	   60 D(7,11,9,12)    =    180.000000    -0.000013    -2.518811   177.481189
	   61 D(8,5,9,11)     =    180.000000    -0.000007    -1.422076   178.577924
	   62 D(8,5,9,12)     =      0.000000     0.000012     2.413256     2.413256
	   63 D(9,11,7,10)    =    180.000000    -0.000001    -0.280258   179.719742
	   64 D(10,7,11,13)   =      0.000000     0.000002     0.291595     0.291595
	   65 *D(11,9,12,14)  =     70.000005    -0.000000    -0.000000    70.000005
	   66 D(11,9,12,15)   =   -109.999995    -0.000020    -9.798426  -119.798421
	   67 D(12,9,11,13)   =      0.000000    -0.000016    -3.088396    -3.088396
	 ---------------------------------------------------------------------------

  ==> Convergence Check <==

  Measures of convergence in internal coordinates in au.
  Criteria marked as inactive (o), active & met (*), and active & unmet ( ).
  --------------------------------------------------------------------------------------------- ~
   Step     Total Energy     Delta E     MAX Force     RMS Force      MAX Disp      RMS Disp    ~
  --------------------------------------------------------------------------------------------- ~
    Convergence Criteria    1.00e-06 *    3.00e-04 *             o    1.20e-03 *             o  ~
  --------------------------------------------------------------------------------------------- ~
      1    -418.27486506   -4.18e+02      8.22e-03      1.55e-03 o    2.37e-01      3.96e-02 o  ~
  ---------------------------------------------------------------------------------------------

	Writing optimization data to binary file.
	Structure for next step:
	Cartesian Geometry (in Angstrom)
	    H     2.6622140286   1.2245408235   1.8515834502
	    O     1.7252235355   1.1257144041   1.9467368657
	    C     1.1800935804   0.6160728723   0.8218848751
	    C     1.9349627672   0.3145557128  -0.3011679838
	    C    -0.1899202563   0.4058460050   0.8152396155
	    H     2.9982210049   0.4863434995  -0.2967710992
	    C     1.3151092534  -0.1997998628  -1.4275499565
	    H    -0.7608639872   0.6582274932   1.6905794728
	    C    -0.7945694551  -0.1393824512  -0.3055875071
	    H     1.9060359031  -0.4263860223  -2.2962562758
	    C    -0.0488858216  -0.4330781052  -1.4396328884
	    C    -2.2817268327  -0.3325317820  -0.3201477657
	    H    -0.5262867421  -0.8444435528  -2.3097530796
	    O    -2.8043342763  -1.3984238357  -0.3480775931
	    H    -2.8782012086   0.5662614703  -0.1357547780
			--------------------------
			 OPTKING Finished Execution 
			--------------------------

    Structure for next step:
    Molecular point group: c1
    Full point group: C1

    Geometry (in Angstrom), charge = 0, multiplicity = 1:

    H            2.665915925924     1.223755774791     1.866506695856
    O            1.728925504456     1.124929362958     1.961660104040
    C            1.183795590897     0.615287870057     0.836808199327
    C            1.938664720049     0.313770733614    -0.286244573733
    C           -0.186218141174     0.405061018781     0.830162940292
    H            3.001922876613     0.485558507202    -0.281847689460
    C            1.318811253671    -0.200584802731    -1.412626460455
    H           -0.757161828409     0.657442487698     1.705502730748
    C           -0.790867293769    -0.140167395788    -0.290664096736
    H            1.909737858250    -0.427170944940    -2.281332713393
    C           -0.045183717211    -0.433863027326    -1.424709391442
    C           -2.278024557755    -0.333316711761    -0.305224354196
    H           -0.522584601273    -0.845228443471    -2.294829516173
    O           -2.800631961457    -1.399208684154    -0.333154179475
    H           -2.874498888203     0.565476471871    -0.120831380611

gradient() will perform analytic gradient computation.

*** tstart() called on cx1-5-7-1.cx1.hpc.ic.ac.uk
*** at Fri Sep  2 11:56:59 2016


         ---------------------------------------------------------
                                   SCF
            by Justin Turney, Rob Parrish, and Andy Simmonett
                              RHF Reference
                        4 Threads,   2000 MiB Core
         ---------------------------------------------------------

  ==> Geometry <==

    Molecular point group: c1
    Full point group: C1

    Geometry (in Angstrom), charge = 0, multiplicity = 1:

       Center              X                  Y                   Z               Mass       
    ------------   -----------------  -----------------  -----------------  -----------------
           H          2.665915925924     1.223755774791     1.866506695856     1.007825032070
           O          1.728925504456     1.124929362958     1.961660104040    15.994914619560
           C          1.183795590897     0.615287870057     0.836808199327    12.000000000000
           C          1.938664720049     0.313770733614    -0.286244573733    12.000000000000
           C         -0.186218141174     0.405061018781     0.830162940292    12.000000000000
           H          3.001922876613     0.485558507202    -0.281847689460     1.007825032070
           C          1.318811253671    -0.200584802731    -1.412626460455    12.000000000000
           H         -0.757161828409     0.657442487698     1.705502730748     1.007825032070
           C         -0.790867293769    -0.140167395788    -0.290664096736    12.000000000000
           H          1.909737858250    -0.427170944940    -2.281332713393     1.007825032070
           C         -0.045183717211    -0.433863027326    -1.424709391442    12.000000000000
           C         -2.278024557755    -0.333316711761    -0.305224354196    12.000000000000
           H         -0.522584601273    -0.845228443471    -2.294829516173     1.007825032070
           O         -2.800631961457    -1.399208684154    -0.333154179475    15.994914619560
           H         -2.874498888203     0.565476471871    -0.120831380611     1.007825032070

  Running in c1 symmetry.

  Rotational constants: A =      0.11406  B =      0.03914  C =      0.02993 [cm^-1]
  Rotational constants: A =   3419.34284  B =   1173.32548  C =    897.36464 [MHz]
  Nuclear repulsion =  401.789520049137082

  Charge       = 0
  Multiplicity = 1
  Electrons    = 64
  Nalpha       = 32
  Nbeta        = 32

  ==> Algorithm <==

  SCF Algorithm Type is DF.
  DIIS enabled.
  MOM disabled.
  Fractional occupation disabled.
  Guess Type is READ.
  Energy threshold   = 1.00e-08
  Density threshold  = 1.00e-08
  Integral threshold = 0.00e+00

  ==> Primary Basis <==

  Basis Set: 6-31G*
    Number of shells: 66
    Number of basis function: 147
    Number of Cartesian functions: 147
    Spherical Harmonics?: false
    Max angular momentum: 2

  ==> Pre-Iterations <==

   -------------------------------------------------------
    Irrep   Nso     Nmo     Nalpha   Nbeta   Ndocc  Nsocc
   -------------------------------------------------------
     A        147     147       0       0       0       0
   -------------------------------------------------------
    Total     147     147      32      32      32       0
   -------------------------------------------------------

 OEINTS: Overlap, kinetic, potential, dipole, and quadrupole integrals
         stored in file 35.

  ==> Integral Setup <==

  ==> DFJK: Density-Fitted J/K Matrices <==

    J tasked:                  Yes
    K tasked:                  Yes
    wK tasked:                  No
    OpenMP threads:              4
    Integrals threads:           4
    Memory (MB):              1430
    Algorithm:                Core
    Integral Cache:           NONE
    Schwarz Cutoff:          1E-12
    Fitting Condition:       1E-12

   => Auxiliary Basis Set <=

  Basis Set: 
    Number of shells: 270
    Number of basis function: 879
    Number of Cartesian functions: 879
    Spherical Harmonics?: false
    Max angular momentum: 3

  Minimum eigenvalue in the overlap matrix is 4.2121063657E-04.
  Using Symmetric Orthogonalization.
  SCF Guess: Reading in previously saved MOs, projecting if necessary.

  Using orbitals from previous SCF, no projection.
  Recomputing DOCC and SOCC from number of alpha and beta electrons from previous calculation.
              A 
    DOCC [    32 ]

  ==> Iterations <==

                           Total Energy        Delta E     RMS |[F,P]|

   @DF-RHF iter   0:  -418.26598001826801   -4.18266e+02   6.72759e-04 
   @DF-RHF iter   1:  -418.27375135364082   -7.77134e-03   1.39912e-04 
   @DF-RHF iter   2:  -418.27434819596624   -5.96842e-04   6.96819e-05 DIIS
   @DF-RHF iter   3:  -418.27457383937281   -2.25643e-04   3.93771e-05 DIIS
   @DF-RHF iter   4:  -418.27464175777345   -6.79184e-05   1.94058e-05 DIIS
   @DF-RHF iter   5:  -418.27466836009046   -2.66023e-05   8.49682e-06 DIIS
   @DF-RHF iter   6:  -418.27467268353826   -4.32345e-06   3.71318e-06 DIIS
   @DF-RHF iter   7:  -418.27467332888989   -6.45352e-07   1.64802e-06 DIIS
   @DF-RHF iter   8:  -418.27467343549756   -1.06608e-07   5.55355e-07 DIIS
   @DF-RHF iter   9:  -418.27467344490083   -9.40327e-09   1.81405e-07 DIIS
   @DF-RHF iter  10:  -418.27467344606544   -1.16461e-09   6.55516e-08 DIIS
   @DF-RHF iter  11:  -418.27467344620277   -1.37334e-10   2.43082e-08 DIIS
   @DF-RHF iter  12:  -418.27467344622119   -1.84173e-11   8.84850e-09 DIIS

  ==> Post-Iterations <==

    Orbital Energies (a.u.)
    -----------------------

    Doubly Occupied:                                                      

       1A    -20.603544     2A    -20.572230     3A    -11.336140  
       4A    -11.314218     5A    -11.256890     6A    -11.251463  
       7A    -11.243331     8A    -11.241513     9A    -11.239096  
      10A     -1.423459    11A     -1.411522    12A     -1.168002  
      13A     -1.048621    14A     -1.023493    15A     -0.899157  
      16A     -0.842843    17A     -0.816262    18A     -0.738591  
      19A     -0.699896    20A     -0.670444    21A     -0.669043  
      22A     -0.635289    23A     -0.613315    24A     -0.601617  
      25A     -0.582148    26A     -0.542287    27A     -0.532476  
      28A     -0.512935    29A     -0.490575    30A     -0.423166  
      31A     -0.353503    32A     -0.324016  

    Virtual:                                                              

      33A      0.110172    34A      0.146860    35A      0.173329  
      36A      0.212744    37A      0.240414    38A      0.282270  
      39A      0.297815    40A      0.304776    41A      0.334675  
      42A      0.366727    43A      0.420793    44A      0.441174  
      45A      0.452902    46A      0.470071    47A      0.505663  
      48A      0.549196    49A      0.593160    50A      0.636877  
      51A      0.712458    52A      0.731603    53A      0.737785  
      54A      0.759631    55A      0.766864    56A      0.813699  
      57A      0.816610    58A      0.822136    59A      0.837158  
      60A      0.868118    61A      0.871842    62A      0.891946  
      63A      0.903343    64A      0.931269    65A      0.966547  
      66A      0.999760    67A      1.003466    68A      1.041636  
      69A      1.081601    70A      1.101669    71A      1.107272  
      72A      1.118038    73A      1.126160    74A      1.134344  
      75A      1.154993    76A      1.181106    77A      1.197663  
      78A      1.223684    79A      1.235245    80A      1.256574  
      81A      1.307154    82A      1.330572    83A      1.342532  
      84A      1.376118    85A      1.401470    86A      1.433772  
      87A      1.454620    88A      1.486465    89A      1.550223  
      90A      1.613358    91A      1.620497    92A      1.694083  
      93A      1.717755    94A      1.737602    95A      1.744665  
      96A      1.791978    97A      1.848334    98A      1.860090  
      99A      1.968230   100A      2.014709   101A      2.028650  
     102A      2.049749   103A      2.080524   104A      2.089307  
     105A      2.153947   106A      2.166988   107A      2.224717  
     108A      2.236431   109A      2.279090   110A      2.286895  
     111A      2.306160   112A      2.348600   113A      2.394967  
     114A      2.438928   115A      2.456014   116A      2.476362  
     117A      2.531294   118A      2.571217   119A      2.620451  
     120A      2.637904   121A      2.698811   122A      2.750680  
     123A      2.802077   124A      2.842439   125A      2.888156  
     126A      2.916713   127A      2.965478   128A      3.019570  
     129A      3.024849   130A      3.069577   131A      3.118059  
     132A      3.128195   133A      3.279778   134A      3.294529  
     135A      3.314844   136A      3.360437   137A      3.520175  
     138A      3.830230   139A      4.257952   140A      4.357862  
     141A      4.516309   142A      4.524928   143A      4.607673  
     144A      4.618842   145A      4.784793   146A      4.875789  
     147A      5.187411  

    Final Occupation by Irrep:
              A 
    DOCC [    32 ]

  Energy converged.

  @DF-RHF Final Energy:  -418.27467344622119

   => Energetics <=

    Nuclear Repulsion Energy =            401.7895200491370815
    One-Electron Energy =               -1365.9662140532968806
    Two-Electron Energy =                 545.9020205579381582
    DFT Exchange-Correlation Energy =       0.0000000000000000
    Empirical Dispersion Energy =           0.0000000000000000
    PCM Polarization Energy =               0.0000000000000000
    EFP Energy =                            0.0000000000000000
    Total Energy =                       -418.2746734462216409

    Alert: EFP and PCM quantities not currently incorporated into SCF psivars.

Properties will be evaluated at   0.000000,   0.000000,   0.000000 Bohr
  ==> Properties <==


Properties computed using the SCF density matrix

  Nuclear Dipole Moment: (a.u.)
     X:     3.2041      Y:     1.5547      Z:    -1.3110

  Electronic Dipole Moment: (a.u.)
     X:    -1.9291      Y:    -0.6571      Z:     1.0025

  Dipole Moment: (a.u.)
     X:     1.2750      Y:     0.8977      Z:    -0.3086     Total:     1.5896

  Dipole Moment: (Debye)
     X:     3.2408      Y:     2.2816      Z:    -0.7843     Total:     4.0403


  Saving occupied orbitals to File 180.

*** tstop() called on cx1-5-7-1.cx1.hpc.ic.ac.uk at Fri Sep  2 11:57:06 2016
Module time:
	user time   =      19.93 seconds =       0.33 minutes
	system time =       0.23 seconds =       0.00 minutes
	total time  =          7 seconds =       0.12 minutes
Total time:
	user time   =      65.69 seconds =       1.09 minutes
	system time =       0.73 seconds =       0.01 minutes
	total time  =         21 seconds =       0.35 minutes

*** tstart() called on cx1-5-7-1.cx1.hpc.ic.ac.uk
*** at Fri Sep  2 11:57:06 2016


         ------------------------------------------------------------
                                   SCF GRAD                          
                          Rob Parrish, Justin Turney,                
                       Andy Simmonett, and Alex Sokolov              
         ------------------------------------------------------------

  ==> Geometry <==

    Molecular point group: c1
    Full point group: C1

    Geometry (in Angstrom), charge = 0, multiplicity = 1:

       Center              X                  Y                   Z               Mass       
    ------------   -----------------  -----------------  -----------------  -----------------
           H          2.665915925924     1.223755774791     1.866506695856     1.007825032070
           O          1.728925504456     1.124929362958     1.961660104040    15.994914619560
           C          1.183795590897     0.615287870057     0.836808199327    12.000000000000
           C          1.938664720049     0.313770733614    -0.286244573733    12.000000000000
           C         -0.186218141174     0.405061018781     0.830162940292    12.000000000000
           H          3.001922876613     0.485558507202    -0.281847689460     1.007825032070
           C          1.318811253671    -0.200584802731    -1.412626460455    12.000000000000
           H         -0.757161828409     0.657442487698     1.705502730748     1.007825032070
           C         -0.790867293769    -0.140167395788    -0.290664096736    12.000000000000
           H          1.909737858250    -0.427170944940    -2.281332713393     1.007825032070
           C         -0.045183717211    -0.433863027326    -1.424709391442    12.000000000000
           C         -2.278024557755    -0.333316711761    -0.305224354196    12.000000000000
           H         -0.522584601273    -0.845228443471    -2.294829516173     1.007825032070
           O         -2.800631961457    -1.399208684154    -0.333154179475    15.994914619560
           H         -2.874498888203     0.565476471871    -0.120831380611     1.007825032070

  Nuclear repulsion =  401.789520049137082

  ==> Basis Set <==

  Basis Set: 6-31G*
    Number of shells: 66
    Number of basis function: 147
    Number of Cartesian functions: 147
    Spherical Harmonics?: false
    Max angular momentum: 2

  ==> DFJKGrad: Density-Fitted SCF Gradients <==

    Gradient:                    1
    J tasked:                  Yes
    K tasked:                  Yes
    wK tasked:                  No
    OpenMP threads:              4
    Integrals threads:           4
    Memory (MB):              1430
    Schwarz Cutoff:          0E+00
    Fitting Condition:       1E-12

   => Auxiliary Basis Set <=

  Basis Set: 
    Number of shells: 270
    Number of basis function: 879
    Number of Cartesian functions: 879
    Spherical Harmonics?: false
    Max angular momentum: 3


  -Total Gradient:
     Atom            X                  Y                   Z
    ------   -----------------  -----------------  -----------------
       1       -0.000065591476    -0.000049776085    -0.000153707935
       2        0.000171482821    -0.000056005256    -0.000236383313
       3       -0.000480685481     0.000381313719    -0.000058916621
       4       -0.000117167617    -0.000540911479    -0.000046694636
       5        0.002802272174     0.000283996644     0.000612969507
       6        0.000125825607     0.000014605363     0.000212868098
       7        0.000470738160     0.001308213342     0.000072316308
       8       -0.000392150852    -0.000330059806    -0.000194449897
       9        0.000553524033    -0.006795193721     0.010337034167
      10       -0.000026260429    -0.000191242918     0.000303776551
      11       -0.002308374877     0.003326620950    -0.001263833112
      12       -0.001425676235     0.003176915165    -0.027330123500
      13       -0.000032531695     0.000018166850    -0.000080720033
      14        0.001076688835     0.000454638075     0.011813572146
      15       -0.000352092972    -0.001001280841     0.006012292265


*** tstop() called on cx1-5-7-1.cx1.hpc.ic.ac.uk at Fri Sep  2 11:57:12 2016
Module time:
	user time   =      22.54 seconds =       0.38 minutes
	system time =       0.19 seconds =       0.00 minutes
	total time  =          6 seconds =       0.10 minutes
Total time:
	user time   =      88.26 seconds =       1.47 minutes
	system time =       0.92 seconds =       0.02 minutes
	total time  =         27 seconds =       0.45 minutes
CURRENT ENERGY: -418.2746734462

			-----------------------------------------
			 OPTKING 2.0: for geometry optimizations 
			  - R.A. King,  Bethel University        
			-----------------------------------------

	Previous internal coordinate definitions found.
	---Fragment 1 Geometry and Gradient---
	 H           5.0378509933        2.3125632679        3.5271864804
	 O           3.2671957076        2.1258084148        3.7070003624
	 C           2.2370494641        1.1627255673        1.5813383225
	 C           3.6635453844        0.5929407550       -0.5409238514
	 C          -0.3519012878        0.7654543926        1.5687806028
	 H           5.6728121088        0.9175726001       -0.5326149443
	 C           2.4921920904       -0.3790503436       -2.6694771383
	 H          -1.4308284940        1.2423862499        3.2229330800
	 C          -1.4945225927       -0.2648779908       -0.5492755395
	 H           3.6088815377       -0.8072360979       -4.3110940463
	 C          -0.0853848512       -0.8198823008       -2.6923105688
	 C          -4.3048425381       -0.6298773007       -0.5767904385
	 H          -0.9875417777       -1.5972502779       -4.3365993072
	 O          -5.2924274062       -2.6441212158       -0.6295701592
	 H          -5.4320156680        1.0685956664       -0.2283382176
	            -0.0000655915       -0.0000497761       -0.0001537079
	             0.0001714828       -0.0000560053       -0.0002363833
	            -0.0004806855        0.0003813137       -0.0000589166
	            -0.0001171676       -0.0005409115       -0.0000466946
	             0.0028022722        0.0002839966        0.0006129695
	             0.0001258256        0.0000146054        0.0002128681
	             0.0004707382        0.0013082133        0.0000723163
	            -0.0003921509       -0.0003300598       -0.0001944499
	             0.0005535240       -0.0067951937        0.0103370342
	            -0.0000262604       -0.0001912429        0.0003037766
	            -0.0023083749        0.0033266209       -0.0012638331
	            -0.0014256762        0.0031769152       -0.0273301235
	            -0.0000325317        0.0000181669       -0.0000807200
	             0.0010766888        0.0004546381        0.0118135721
	            -0.0003520930       -0.0010012808        0.0060122923

	---Fragment 1 Intrafragment Coordinates---
	 - Coordinate -           - BOHR/RAD -       - ANG/DEG -
	 R(1,2)           =         1.789534	       0.946980
	 R(2,3)           =         2.550915	       1.349886
	 R(3,4)           =         2.619836	       1.386358
	 R(3,5)           =         2.619284	       1.386065
	 R(4,6)           =         2.035340	       1.077055
	 R(4,7)           =         2.616787	       1.384744
	 R(5,8)           =         2.031691	       1.075125
	 R(5,9)           =         2.617887	       1.385326
	 R(7,10)          =         2.031070	       1.074796
	 R(7,11)          =         2.615102	       1.383852
	 R(9,11)          =         2.624176	       1.388654
	 R(9,12)          =         2.834057	       1.499719
	 R(11,13)         =         2.030240	       1.074357
	 R(12,14)         =         2.243945	       1.187445
	 R(12,15)         =         2.068030	       1.094354
	 B(1,2,3)         =         1.933971	     110.808401
	 B(2,3,4)         =         2.137975	     122.496950
	 B(2,3,5)         =         2.049259	     117.413897
	 B(3,4,6)         =         2.093849	     119.968719
	 B(3,4,7)         =         2.089764	     119.734641
	 B(3,5,8)         =         2.077607	     119.038104
	 B(3,5,9)         =         2.088614	     119.668793
	 B(4,3,5)         =         2.095922	     120.087489
	 B(4,7,10)        =         2.082483	     119.317511
	 B(4,7,11)        =         2.107056	     120.725429
	 B(5,9,11)        =         2.105508	     120.636699
	 B(5,9,12)        =         2.084441	     119.429676
	 B(6,4,7)         =         2.099554	     120.295600
	 B(7,11,9)        =         2.078870	     119.110459
	 B(7,11,13)       =         2.105516	     120.637207
	 B(8,5,9)         =         2.116863	     121.287338
	 B(9,11,13)       =         2.098756	     120.249850
	 B(9,12,14)       =         2.155869	     123.522194
	 B(9,12,15)       =         2.018693	     115.662563
	 B(10,7,11)       =         2.093609	     119.954972
	 B(11,9,12)       =         2.091301	     119.822724
	 B(14,12,15)      =         2.095908	     120.086694
	 D(1,2,3,4)       =        -0.015628	      -0.895408
	 D(1,2,3,5)       =         3.134160	     179.574136
	 D(2,3,4,6)       =        -0.000462	      -0.026462
	 D(2,3,4,7)       =        -3.135598	    -179.656558
	 D(2,3,5,8)       =         0.006559	       0.375794
	 D(2,3,5,9)       =        -3.119989	    -178.762191
	 D(3,4,7,10)      =         3.136085	     179.684441
	 D(3,4,7,11)      =        -0.014688	      -0.841588
	 D(3,5,9,11)      =        -0.040212	      -2.303987
	 D(3,5,9,12)      =        -3.114866	    -178.468655
	 D(4,3,5,8)       =        -3.127046	    -179.166515
	 D(4,3,5,9)       =         0.029592	       1.695500
	 D(4,7,11,9)      =         0.004348	       0.249111
	 D(4,7,11,13)     =        -3.127264	    -179.179036
	 D(5,3,4,6)       =         3.132723	     179.491816
	 D(5,3,4,7)       =        -0.002413	      -0.138280
	 D(5,9,11,7)      =         0.023240	       1.331535
	 D(5,9,11,13)     =        -3.128294	    -179.238050
	 D(5,9,12,14)     =        -1.986249	    -113.803661
	 D(5,9,12,15)     =         0.984329	      56.397914
	 D(6,4,7,10)      =         0.000970	       0.055572
	 D(6,4,7,11)      =         3.133382	     179.529543
	 D(7,11,9,12)     =         3.097631	     177.481189
	 D(8,5,9,11)      =         3.116773	     178.577924
	 D(8,5,9,12)      =         0.042119	       2.413256
	 D(9,11,7,10)     =         3.136701	     179.719742
	 D(10,7,11,13)    =         0.005089	       0.291595
	*D(11,9,12,14)    =         1.221731	      70.000005
	 D(11,9,12,15)    =        -2.090877	    -119.798421
	 D(12,9,11,13)    =        -0.053903	      -3.088396

	Current energy   :      -418.2746734462

	Energy change for the previous step:
		Projected    :        -0.0028510673
		Actual       :         0.0001916102

	Performing BFGS update.
	Previous computed or guess Hessian on step 1.
	Steps to be used in Hessian update: 1
	Taking RFO optimization step.
	Going to follow RFO solution 1.
	Using RFO vector 1.
	Norm of target step-size    0.28202
	Projected energy change by RFO approximation:        -0.0018194276

	Back-transformation to cartesian coordinates...
	Successfully converged to displaced geometry.

	Back-transformation to cartesian coordinates to adjust frozen coordinates...
	Successfully converged to displaced geometry.

	--- Internal Coordinate Step in ANG or DEG, aJ/ANG or AJ/DEG ---
	 ---------------------------------------------------------------------------
	   Coordinate                Previous        Force       Change         New 
	   ----------                --------       ------       ------       ------
	    1 R(1,2)          =      0.946980     0.000450     0.000097     0.947078
	    2 R(2,3)          =      1.349886     0.002655    -0.000555     1.349331
	    3 R(3,4)          =      1.386358     0.003331    -0.002166     1.384192
	    4 R(3,5)          =      1.386065     0.003837     0.001986     1.388051
	    5 R(4,6)          =      1.077055    -0.001050    -0.000080     1.076976
	    6 R(4,7)          =      1.384744     0.002674     0.000024     1.384768
	    7 R(5,8)          =      1.075125     0.000227     0.001936     1.077061
	    8 R(5,9)          =      1.385326    -0.010055    -0.001433     1.383893
	    9 R(7,10)         =      1.074796     0.001810     0.000069     1.074864
	   10 R(7,11)         =      1.383852    -0.005642     0.000275     1.384127
	   11 R(9,11)         =      1.388654     0.006462     0.000083     1.388737
	   12 R(9,12)         =      1.499719    -0.003697     0.010641     1.510360
	   13 R(11,13)        =      1.074357    -0.000600    -0.001148     1.073209
	   14 R(12,14)        =      1.187445     0.009555    -0.001375     1.186069
	   15 R(12,15)        =      1.094354    -0.003152    -0.000128     1.094227
	   16 B(1,2,3)        =    110.808401     0.000022    -0.127552   110.680848
	   17 B(2,3,4)        =    122.496950     0.000036     0.137155   122.634105
	   18 B(2,3,5)        =    117.413897    -0.000038    -0.217943   117.195954
	   19 B(3,4,6)        =    119.968719     0.000016     0.118216   120.086935
	   20 B(3,4,7)        =    119.734641    -0.000002    -0.373755   119.360886
	   21 B(3,5,8)        =    119.038104    -0.000034    -0.964510   118.073594
	   22 B(3,5,9)        =    119.668793    -0.000012     0.142848   119.811641
	   23 B(4,3,5)        =    120.087489     0.000002     0.073895   120.161383
	   24 B(4,7,10)       =    119.317511     0.000016    -0.108837   119.208673
	   25 B(4,7,11)       =    120.725429    -0.000022     0.378618   121.104047
	   26 B(5,9,11)       =    120.636699     0.000012    -0.251282   120.385417
	   27 B(5,9,12)       =    119.429676    -0.000215    -0.740209   118.689467
	   28 B(6,4,7)        =    120.295600    -0.000014     0.249964   120.545563
	   29 B(7,11,9)       =    119.110459     0.000019    -0.127728   118.982731
	   30 B(7,11,13)      =    120.637207    -0.000009     0.204680   120.841887
	   31 B(8,5,9)        =    121.287338     0.000046     0.804180   122.091518
	   32 B(9,11,13)      =    120.249850    -0.000011    -0.088353   120.161498
	   33 B(9,12,14)      =    123.522194     0.000121    -0.270110   123.252084
	   34 B(9,12,15)      =    115.662563    -0.000046     0.965166   116.627730
	   35 B(10,7,11)      =    119.954972     0.000006    -0.269328   119.685644
	   36 B(11,9,12)      =    119.822724     0.000196     0.443939   120.266663
	   37 B(14,12,15)     =    120.086694    -0.000002     0.023231   120.109925
	   38 D(1,2,3,4)      =     -0.895408    -0.000001    -0.838646    -1.734054
	   39 D(1,2,3,5)      =    179.574136     0.000001    -0.244262   179.329874
	   40 D(2,3,4,6)      =     -0.026462     0.000000     0.029799     0.003337
	   41 D(2,3,4,7)      =   -179.656558     0.000003     0.590396  -179.066162
	   42 D(2,3,5,8)      =      0.375794     0.000002     0.482024     0.857818
	   43 D(2,3,5,9)      =   -178.762191     0.000004     1.336906  -177.425285
	   44 D(3,4,7,10)     =    179.684441    -0.000006    -0.738698   178.945743
	   45 D(3,4,7,11)     =     -0.841588     0.000001    -0.679464    -1.521051
	   46 D(3,5,9,11)     =     -2.303987    -0.000015    -3.125825    -5.429812
	   47 D(3,5,9,12)     =   -178.468655     0.000011     2.313213  -176.155443
	   48 D(4,3,5,8)      =   -179.166515     0.000004     1.060592  -178.105923
	   49 D(4,3,5,9)      =      1.695500     0.000006     1.915475     3.610975
	   50 D(4,7,11,9)     =      0.249111    -0.000009    -0.508305    -0.259194
	   51 D(4,7,11,13)    =   -179.179036    -0.000005     0.273189  -178.905847
	   52 D(5,3,4,6)      =    179.491816    -0.000002    -0.582970   178.908846
	   53 D(5,3,4,7)      =     -0.138280     0.000001    -0.022372    -0.160652
	   54 D(5,9,11,7)     =      1.331535     0.000016     2.415547     3.747082
	   55 D(5,9,11,13)    =   -179.238050     0.000012     1.641221  -177.596828
	   56 D(5,9,12,14)    =   -113.803661    -0.000027    -5.459368  -119.263028
	   57 D(5,9,12,15)    =     56.397914     0.000085     5.505525    61.903439
	   58 D(6,4,7,10)     =      0.055572    -0.000003    -0.174962    -0.119390
	   59 D(6,4,7,11)     =    179.529543     0.000004    -0.115727   179.413816
	   60 D(7,11,9,12)    =    177.481189    -0.000013    -3.155244   174.325946
	   61 D(8,5,9,11)     =    178.577924    -0.000012    -2.219597   176.358328
	   62 D(8,5,9,12)     =      2.413256     0.000013     3.219441     5.632697
	   63 D(9,11,7,10)    =    179.719742    -0.000002    -0.447929   179.271813
	   64 D(10,7,11,13)   =      0.291595     0.000002     0.333565     0.625160
	   65 *D(11,9,12,14)  =     70.000005    -0.000000     0.000000    70.000005
	   66 D(11,9,12,15)   =   -119.798421     0.000113    10.964893  -108.833528
	   67 D(12,9,11,13)   =     -3.088396    -0.000017    -3.929570    -7.017965
	 ---------------------------------------------------------------------------

  ==> Convergence Check <==

  Measures of convergence in internal coordinates in au.
  Criteria marked as inactive (o), active & met (*), and active & unmet ( ).
  ---------------------------------------------------------------------------------------------
   Step     Total Energy     Delta E     MAX Force     RMS Force      MAX Disp      RMS Disp   
  ---------------------------------------------------------------------------------------------
    Convergence Criteria    1.00e-06 *    3.00e-04 *             o    1.20e-03 *             o
  ---------------------------------------------------------------------------------------------
      2    -418.27467345    1.92e-04      6.45e-03      1.21e-03 o    1.91e-01      3.44e-02 o  ~
  ---------------------------------------------------------------------------------------------

	Writing optimization data to binary file.
	Structure for next step:
	Cartesian Geometry (in Angstrom)
	    H     2.6718049405   1.2263852036   1.8652829297
	    O     1.7352984832   1.1243281739   1.9627323003
	    C     1.1928737898   0.6078930430   0.8403396001
	    C     1.9426173432   0.3206376141  -0.2872043846
	    C    -0.1776364817   0.3879228871   0.8412297596
	    H     3.0031168097   0.5082241647  -0.2926242897
	    C     1.3125291338  -0.1901663359  -1.4095463959
	    H    -0.7328453178   0.6522503015   1.7255005521
	    C    -0.7824959002  -0.1894206933  -0.2614843474
	    H     1.8943259628  -0.3963115588  -2.2895180830
	    C    -0.0475780357  -0.4469015390  -1.4113498564
	    C    -2.2856268941  -0.3367780924  -0.2697870647
	    H    -0.5285406545  -0.8591049133  -2.2776868833
	    O    -2.8359519754  -1.3847625049  -0.3448272395
	    H    -2.8692881963   0.5875465897  -0.2218804225
			--------------------------
			 OPTKING Finished Execution 
			--------------------------

    Structure for next step:
    Molecular point group: c1
    Full point group: C1

    Geometry (in Angstrom), charge = 0, multiplicity = 1:

    H            2.674125206210     1.231260208279     1.858055226610
    O            1.737618820462     1.129203186409     1.955504589725
    C            1.195194168513     0.612768094920     0.833111975281
    C            1.944937664592     0.325512688030    -0.294431923315
    C           -0.175315998362     0.392797955802     0.834002134638
    H            3.005437050143     0.513099224261    -0.299851828034
    C            1.314849503349    -0.185291223015    -1.416773848897
    H           -0.730524792077     0.657125350067     1.718272859603
    C           -0.780175370666    -0.184545580513    -0.268711888142
    H            1.896646287906    -0.391436430154    -2.296745468844
    C           -0.045257562345    -0.442026406539    -1.418577309346
    C           -2.283306249758    -0.331902968326    -0.277014604778
    H           -0.526220144335    -0.854229749296    -2.284914270070
    O           -2.833631289047    -1.379887300832    -0.352054773863
    H           -2.866967507426     0.592421643209    -0.229107966255

gradient() will perform analytic gradient computation.

*** tstart() called on cx1-5-7-1.cx1.hpc.ic.ac.uk
*** at Fri Sep  2 11:57:12 2016


         ---------------------------------------------------------
                                   SCF
            by Justin Turney, Rob Parrish, and Andy Simmonett
                              RHF Reference
                        4 Threads,   2000 MiB Core
         ---------------------------------------------------------

  ==> Geometry <==

    Molecular point group: c1
    Full point group: C1

    Geometry (in Angstrom), charge = 0, multiplicity = 1:

       Center              X                  Y                   Z               Mass       
    ------------   -----------------  -----------------  -----------------  -----------------
           H          2.674125206210     1.231260208279     1.858055226610     1.007825032070
           O          1.737618820462     1.129203186409     1.955504589725    15.994914619560
           C          1.195194168513     0.612768094920     0.833111975281    12.000000000000
           C          1.944937664592     0.325512688030    -0.294431923315    12.000000000000
           C         -0.175315998362     0.392797955802     0.834002134638    12.000000000000
           H          3.005437050143     0.513099224261    -0.299851828034     1.007825032070
           C          1.314849503349    -0.185291223015    -1.416773848897    12.000000000000
           H         -0.730524792077     0.657125350067     1.718272859603     1.007825032070
           C         -0.780175370666    -0.184545580513    -0.268711888142    12.000000000000
           H          1.896646287906    -0.391436430154    -2.296745468844     1.007825032070
           C         -0.045257562345    -0.442026406539    -1.418577309346    12.000000000000
           C         -2.283306249758    -0.331902968326    -0.277014604778    12.000000000000
           H         -0.526220144335    -0.854229749296    -2.284914270070     1.007825032070
           O         -2.833631289047    -1.379887300832    -0.352054773863    15.994914619560
           H         -2.866967507426     0.592421643209    -0.229107966255     1.007825032070

  Running in c1 symmetry.

  Rotational constants: A =      0.11487  B =      0.03884  C =      0.02974 [cm^-1]
  Rotational constants: A =   3443.79388  B =   1164.32444  C =    891.63520 [MHz]
  Nuclear repulsion =  401.424305145363405

  Charge       = 0
  Multiplicity = 1
  Electrons    = 64
  Nalpha       = 32
  Nbeta        = 32

  ==> Algorithm <==

  SCF Algorithm Type is DF.
  DIIS enabled.
  MOM disabled.
  Fractional occupation disabled.
  Guess Type is READ.
  Energy threshold   = 1.00e-08
  Density threshold  = 1.00e-08
  Integral threshold = 0.00e+00

  ==> Primary Basis <==

  Basis Set: 6-31G*
    Number of shells: 66
    Number of basis function: 147
    Number of Cartesian functions: 147
    Spherical Harmonics?: false
    Max angular momentum: 2

  ==> Pre-Iterations <==

   -------------------------------------------------------
    Irrep   Nso     Nmo     Nalpha   Nbeta   Ndocc  Nsocc
   -------------------------------------------------------
     A        147     147       0       0       0       0
   -------------------------------------------------------
    Total     147     147      32      32      32       0
   -------------------------------------------------------

 OEINTS: Overlap, kinetic, potential, dipole, and quadrupole integrals
         stored in file 35.

  ==> Integral Setup <==

  ==> DFJK: Density-Fitted J/K Matrices <==

    J tasked:                  Yes
    K tasked:                  Yes
    wK tasked:                  No
    OpenMP threads:              4
    Integrals threads:           4
    Memory (MB):              1430
    Algorithm:                Core
    Integral Cache:           NONE
    Schwarz Cutoff:          1E-12
    Fitting Condition:       1E-12

   => Auxiliary Basis Set <=

  Basis Set: 
    Number of shells: 270
    Number of basis function: 879
    Number of Cartesian functions: 879
    Spherical Harmonics?: false
    Max angular momentum: 3

  Minimum eigenvalue in the overlap matrix is 4.2910130271E-04.
  Using Symmetric Orthogonalization.
  SCF Guess: Reading in previously saved MOs, projecting if necessary.

  Using orbitals from previous SCF, no projection.
  Recomputing DOCC and SOCC from number of alpha and beta electrons from previous calculation.
              A 
    DOCC [    32 ]

  ==> Iterations <==

                           Total Energy        Delta E     RMS |[F,P]|

   @DF-RHF iter   0:  -418.26572854866697   -4.18266e+02   8.97766e-04 
   @DF-RHF iter   1:  -418.27411714118580   -8.38859e-03   1.33445e-04 
   @DF-RHF iter   2:  -418.27456544644895   -4.48305e-04   5.72554e-05 DIIS
   @DF-RHF iter   3:  -418.27469222021159   -1.26774e-04   3.11918e-05 DIIS
   @DF-RHF iter   4:  -418.27472813085512   -3.59106e-05   1.57012e-05 DIIS
   @DF-RHF iter   5:  -418.27474626142885   -1.81306e-05   7.12808e-06 DIIS
   @DF-RHF iter   6:  -418.27475011658180   -3.85515e-06   2.26767e-06 DIIS
   @DF-RHF iter   7:  -418.27475039202136   -2.75440e-07   9.09892e-07 DIIS
   @DF-RHF iter   8:  -418.27475041576326   -2.37419e-08   3.23264e-07 DIIS
   @DF-RHF iter   9:  -418.27475041820765   -2.44438e-09   1.05279e-07 DIIS
   @DF-RHF iter  10:  -418.27475041851926   -3.11616e-10   4.54585e-08 DIIS
   @DF-RHF iter  11:  -418.27475041858133   -6.20730e-11   1.74406e-08 DIIS
   @DF-RHF iter  12:  -418.27475041859486   -1.35287e-11   7.72339e-09 DIIS

  ==> Post-Iterations <==

    Orbital Energies (a.u.)
    -----------------------

    Doubly Occupied:                                                      

       1A    -20.603543     2A    -20.571575     3A    -11.336653  
       4A    -11.313526     5A    -11.257547     6A    -11.251634  
       7A    -11.243082     8A    -11.240637     9A    -11.239501  
      10A     -1.423737    11A     -1.412097    12A     -1.167841  
      13A     -1.047950    14A     -1.022879    15A     -0.897567  
      16A     -0.842086    17A     -0.816147    18A     -0.738890  
      19A     -0.699567    20A     -0.671661    21A     -0.668771  
      22A     -0.634620    23A     -0.612406    24A     -0.601606  
      25A     -0.582240    26A     -0.543171    27A     -0.531341  
      28A     -0.512610    29A     -0.491356    30A     -0.422386  
      31A     -0.353794    32A     -0.323806  

    Virtual:                                                              

      33A      0.112156    34A      0.147181    35A      0.171457  
      36A      0.212746    37A      0.240458    38A      0.283670  
      39A      0.295962    40A      0.304718    41A      0.334063  
      42A      0.367635    43A      0.419802    44A      0.442349  
      45A      0.451840    46A      0.470036    47A      0.500415  
      48A      0.551627    49A      0.587665    50A      0.639593  
      51A      0.712311    52A      0.730866    53A      0.739802  
      54A      0.765208    55A      0.769076    56A      0.812550  
      57A      0.815685    58A      0.822067    59A      0.835468  
      60A      0.866380    61A      0.877537    62A      0.891889  
      63A      0.906940    64A      0.920924    65A      0.958969  
      66A      1.001157    67A      1.001944    68A      1.033507  
      69A      1.076533    70A      1.102799    71A      1.105255  
      72A      1.118255    73A      1.123305    74A      1.134715  
      75A      1.157803    76A      1.182602    77A      1.196931  
      78A      1.225420    79A      1.239242    80A      1.254276  
      81A      1.296521    82A      1.328845    83A      1.344475  
      84A      1.368003    85A      1.399382    86A      1.432591  
      87A      1.454636    88A      1.495551    89A      1.550511  
      90A      1.612724    91A      1.616645    92A      1.696041  
      93A      1.716431    94A      1.737875    95A      1.745439  
      96A      1.792394    97A      1.824906    98A      1.873509  
      99A      1.963257   100A      2.013580   101A      2.029625  
     102A      2.045980   103A      2.077265   104A      2.091335  
     105A      2.159145   106A      2.170983   107A      2.221902  
     108A      2.231905   109A      2.280088   110A      2.289621  
     111A      2.307055   112A      2.337418   113A      2.395882  
     114A      2.438734   115A      2.458314   116A      2.478376  
     117A      2.530250   118A      2.567359   119A      2.616979  
     120A      2.639157   121A      2.701564   122A      2.746628  
     123A      2.793542   124A      2.841817   125A      2.890282  
     126A      2.915875   127A      2.965490   128A      3.013549  
     129A      3.030111   130A      3.069639   131A      3.114010  
     132A      3.135209   133A      3.277305   134A      3.291381  
     135A      3.309888   136A      3.363751   137A      3.521559  
     138A      3.826269   139A      4.254428   140A      4.356691  
     141A      4.513685   142A      4.524878   143A      4.609675  
     144A      4.618749   145A      4.784818   146A      4.876300  
     147A      5.184770  

    Final Occupation by Irrep:
              A 
    DOCC [    32 ]

  Energy converged.

  @DF-RHF Final Energy:  -418.27475041859486

   => Energetics <=

    Nuclear Repulsion Energy =            401.4243051453634052
    One-Electron Energy =               -1365.2456610365202323
    Two-Electron Energy =                 545.5466054725616232
    DFT Exchange-Correlation Energy =       0.0000000000000000
    Empirical Dispersion Energy =           0.0000000000000000
    PCM Polarization Energy =               0.0000000000000000
    EFP Energy =                            0.0000000000000000
    Total Energy =                       -418.2747504185952039

    Alert: EFP and PCM quantities not currently incorporated into SCF psivars.

Properties will be evaluated at   0.000000,   0.000000,   0.000000 Bohr
  ==> Properties <==


Properties computed using the SCF density matrix

  Nuclear Dipole Moment: (a.u.)
     X:     3.2313      Y:     1.6377      Z:    -1.4306

  Electronic Dipole Moment: (a.u.)
     X:    -1.9439      Y:    -0.7339      Z:     1.1369

  Dipole Moment: (a.u.)
     X:     1.2875      Y:     0.9038      Z:    -0.2938     Total:     1.6002

  Dipole Moment: (Debye)
     X:     3.2725      Y:     2.2972      Z:    -0.7467     Total:     4.0674


  Saving occupied orbitals to File 180.

*** tstop() called on cx1-5-7-1.cx1.hpc.ic.ac.uk at Fri Sep  2 11:57:19 2016
Module time:
	user time   =      18.99 seconds =       0.32 minutes
	system time =       0.19 seconds =       0.00 minutes
	total time  =          7 seconds =       0.12 minutes
Total time:
	user time   =     107.78 seconds =       1.80 minutes
	system time =       1.12 seconds =       0.02 minutes
	total time  =         34 seconds =       0.57 minutes

*** tstart() called on cx1-5-7-1.cx1.hpc.ic.ac.uk
*** at Fri Sep  2 11:57:19 2016


         ------------------------------------------------------------
                                   SCF GRAD                          
                          Rob Parrish, Justin Turney,                
                       Andy Simmonett, and Alex Sokolov              
         ------------------------------------------------------------

  ==> Geometry <==

    Molecular point group: c1
    Full point group: C1

    Geometry (in Angstrom), charge = 0, multiplicity = 1:

       Center              X                  Y                   Z               Mass       
    ------------   -----------------  -----------------  -----------------  -----------------
           H          2.674125206210     1.231260208279     1.858055226610     1.007825032070
           O          1.737618820462     1.129203186409     1.955504589725    15.994914619560
           C          1.195194168513     0.612768094920     0.833111975281    12.000000000000
           C          1.944937664592     0.325512688030    -0.294431923315    12.000000000000
           C         -0.175315998362     0.392797955802     0.834002134638    12.000000000000
           H          3.005437050143     0.513099224261    -0.299851828034     1.007825032070
           C          1.314849503349    -0.185291223015    -1.416773848897    12.000000000000
           H         -0.730524792077     0.657125350067     1.718272859603     1.007825032070
           C         -0.780175370666    -0.184545580513    -0.268711888142    12.000000000000
           H          1.896646287906    -0.391436430154    -2.296745468844     1.007825032070
           C         -0.045257562345    -0.442026406539    -1.418577309346    12.000000000000
           C         -2.283306249758    -0.331902968326    -0.277014604778    12.000000000000
           H         -0.526220144335    -0.854229749296    -2.284914270070     1.007825032070
           O         -2.833631289047    -1.379887300832    -0.352054773863    15.994914619560
           H         -2.866967507426     0.592421643209    -0.229107966255     1.007825032070

  Nuclear repulsion =  401.424305145363405

  ==> Basis Set <==

  Basis Set: 6-31G*
    Number of shells: 66
    Number of basis function: 147
    Number of Cartesian functions: 147
    Spherical Harmonics?: false
    Max angular momentum: 2

  ==> DFJKGrad: Density-Fitted SCF Gradients <==

    Gradient:                    1
    J tasked:                  Yes
    K tasked:                  Yes
    wK tasked:                  No
    OpenMP threads:              4
    Integrals threads:           4
    Memory (MB):              1430
    Schwarz Cutoff:          0E+00
    Fitting Condition:       1E-12

   => Auxiliary Basis Set <=

  Basis Set: 
    Number of shells: 270
    Number of basis function: 879
    Number of Cartesian functions: 879
    Spherical Harmonics?: false
    Max angular momentum: 3


  -Total Gradient:
     Atom            X                  Y                   Z
    ------   -----------------  -----------------  -----------------
       1       -0.000022990209    -0.000332407215    -0.000429012389
       2       -0.000797850417    -0.000189160099    -0.000326207985
       3        0.001805407504    -0.000495196457    -0.000959837584
       4        0.000638709881    -0.000531988542     0.000420740660
       5       -0.002271393405     0.002326376609    -0.003476573235
       6        0.000138451261     0.000238707312     0.000516916853
       7        0.000249189818     0.002357309060     0.001987165754
       8        0.000394253292     0.001022882036     0.001653504212
       9        0.009492336205    -0.017546394199     0.002194276278
      10       -0.000064829331    -0.000120425746     0.000328801495
      11       -0.001933157132     0.006259724761    -0.002784257738
      12       -0.007062316583     0.004994887282     0.000095035785
      13       -0.000058813057     0.000164689856     0.000919592408
      14        0.002392808959     0.002471171826     0.002738131789
      15       -0.002899806782    -0.000620176487    -0.002878276308


*** tstop() called on cx1-5-7-1.cx1.hpc.ic.ac.uk at Fri Sep  2 11:57:25 2016
Module time:
	user time   =      21.92 seconds =       0.37 minutes
	system time =       0.22 seconds =       0.00 minutes
	total time  =          6 seconds =       0.10 minutes
Total time:
	user time   =     129.71 seconds =       2.16 minutes
	system time =       1.34 seconds =       0.02 minutes
	total time  =         40 seconds =       0.67 minutes
CURRENT ENERGY: -418.2747504186

[...]
       4        0.000011248960    -0.000112225527    -0.000149986200
       5        0.000128892744     0.000072035382     0.000028163531
       6       -0.000004555523     0.000016182394     0.000001631003
       7        0.000110287114     0.000048453625     0.000057341143
       8       -0.000004003748    -0.000002258819    -0.000000259967
       9        0.000783111716    -0.006166974047     0.004360180126
      10       -0.000007146529    -0.000012269297    -0.000008185337
      11       -0.000635960164     0.004183750599    -0.001354775098
      12       -0.000249209094     0.002123678228    -0.008384402058
      13        0.000005854894    -0.000005242104    -0.000000602887
      14       -0.000000144914    -0.000172023767     0.005349545304
      15        0.000015037537     0.000004823525    -0.000004726189


*** tstop() called on cx1-5-7-1.cx1.hpc.ic.ac.uk at Fri Sep  2 11:58:01 2016
Module time:
	user time   =      23.24 seconds =       0.39 minutes
	system time =       0.21 seconds =       0.00 minutes
	total time  =          6 seconds =       0.10 minutes
Total time:
	user time   =     251.02 seconds =       4.18 minutes
	system time =       2.51 seconds =       0.04 minutes
	total time  =         76 seconds =       1.27 minutes
CURRENT ENERGY: -418.2754393581

			-----------------------------------------
			 OPTKING 2.0: for geometry optimizations 
			  - R.A. King,  Bethel University        
			-----------------------------------------

	Previous internal coordinate definitions found.
	---Fragment 1 Geometry and Gradient---
	 H           5.0478052269        2.3155270219        3.5186447581
	 O           3.2779120278        2.1213329885        3.6993178229
	 C           2.2457963506        1.1600138262        1.5733557761
	 C           3.6627691476        0.6072448068       -0.5594193410
	 C          -0.3435163794        0.7512112988        1.5726411138
	 H           5.6696721073        0.9439869521       -0.5657960200
	 C           2.4834217366       -0.3682072871       -2.6838186217
	 H          -1.4087116527        1.2223525730        3.2372937269
	 C          -1.4912993959       -0.2773338080       -0.5404791239
	 H           3.5906364303       -0.7800453959       -4.3366256827
	 C          -0.0910779014       -0.8155943607       -2.6954534947
	 C          -4.3018213521       -0.6358356948       -0.5464086783
	 H          -0.9985168652       -1.5932762008       -4.3366009871
	 O          -5.3100674387       -2.6395996282       -0.6061798808
	 H          -5.4187225594        1.0980089388       -0.4137369323
	             0.0000035869        0.0000097343        0.0000160208
	             0.0000342660        0.0000011226       -0.0000007263
	            -0.0001912659        0.0000112129        0.0000907820
	             0.0000112490       -0.0001122255       -0.0001499862
	             0.0001288927        0.0000720354        0.0000281635
	            -0.0000045555        0.0000161824        0.0000016310
	             0.0001102871        0.0000484536        0.0000573411
	            -0.0000040037       -0.0000022588       -0.0000002600
	             0.0007831117       -0.0061669740        0.0043601801
	            -0.0000071465       -0.0000122693       -0.0000081853
	            -0.0006359602        0.0041837506       -0.0013547751
	            -0.0002492091        0.0021236782       -0.0083844021
	             0.0000058549       -0.0000052421       -0.0000006029
	            -0.0000001449       -0.0001720238        0.0053495453
	             0.0000150375        0.0000048235       -0.0000047262

	---Fragment 1 Intrafragment Coordinates---
	 - Coordinate -           - BOHR/RAD -       - ANG/DEG -
	 R(1,2)           =         1.789658	       0.947046
	 R(2,3)           =         2.551296	       1.350088
	 R(3,4)           =         2.619560	       1.386212
	 R(3,5)           =         2.621385	       1.387177
	 R(4,6)           =         2.034968	       1.076859
	 R(4,7)           =         2.618289	       1.385539
	 R(5,8)           =         2.031670	       1.075114
	 R(5,9)           =         2.615452	       1.384038
	 R(7,10)          =         2.031577	       1.075064
	 R(7,11)          =         2.613109	       1.382798
	 R(9,11)          =         2.625692	       1.389457
	 R(9,12)          =         2.833301	       1.499318
	 R(11,13)         =         2.030172	       1.074321
	 R(12,14)         =         2.243926	       1.187434
	 R(12,15)         =         2.066709	       1.093656
	 B(1,2,3)         =         1.935679	     110.906257
	 B(2,3,4)         =         2.140192	     122.623958
	 B(2,3,5)         =         2.047198	     117.295789
	 B(3,4,6)         =         2.095657	     120.072328
	 B(3,4,7)         =         2.089281	     119.706993
	 B(3,5,8)         =         2.073154	     118.782954
	 B(3,5,9)         =         2.088661	     119.671466
	 B(4,3,5)         =         2.095749	     120.077589
	 B(4,7,10)        =         2.083042	     119.349524
	 B(4,7,11)        =         2.107340	     120.741693
	 B(5,9,11)        =         2.105615	     120.642837
	 B(5,9,12)        =         2.079184	     119.128442
	 B(6,4,7)         =         2.098235	     120.219991
	 B(7,11,9)        =         2.079043	     119.120378
	 B(7,11,13)       =         2.105464	     120.634192
	 B(8,5,9)         =         2.121275	     121.540086
	 B(9,11,13)       =         2.098582	     120.239914
	 B(9,12,14)       =         2.163680	     123.969737
	 B(9,12,15)       =         2.015060	     115.454451
	 B(10,7,11)       =         2.092803	     119.908769
	 B(11,9,12)       =         2.095936	     120.088261
	 B(14,12,15)      =         2.103698	     120.533035
	 D(1,2,3,4)       =        -0.019894	      -1.139845
	 D(1,2,3,5)       =         3.132066	     179.454190
	 D(2,3,4,6)       =        -0.001184	      -0.067817
	 D(2,3,4,7)       =        -3.137520	    -179.766630
	 D(2,3,5,8)       =         0.007276	       0.416879
	 D(2,3,5,9)       =        -3.119666	    -178.743714
	 D(3,4,7,10)      =         3.133716	     179.548715
	 D(3,4,7,11)      =        -0.008638	      -0.494913
	 D(3,5,9,11)      =        -0.042727	      -2.448056
	 D(3,5,9,12)      =        -3.109197	    -178.143861
	 D(4,3,5,8)       =        -3.124226	    -179.004958
	 D(4,3,5,9)       =         0.032017	       1.834450
	 D(4,7,11,9)      =        -0.001731	      -0.099177
	 D(4,7,11,13)     =        -3.128449	    -179.246901
	 D(5,3,4,6)       =         3.129762	     179.322150
	 D(5,3,4,7)       =        -0.006574	      -0.376663
	 D(5,9,11,7)      =         0.027562	       1.579178
	 D(5,9,11,13)     =        -3.128846	    -179.269658
	 D(5,9,12,14)     =        -1.994559	    -114.279805
	 D(5,9,12,15)     =         1.105592	      63.345756
	 D(6,4,7,10)      =        -0.002612	      -0.149647
	 D(6,4,7,11)      =         3.138219	     179.806725
	 D(7,11,9,12)     =         3.093312	     177.233732
	 D(8,5,9,11)      =         3.113932	     178.415164
	 D(8,5,9,12)      =         0.047462	       2.719359
	 D(9,11,7,10)     =         3.139096	     179.856952
	 D(10,7,11,13)    =         0.012378	       0.709227
	*D(11,9,12,14)    =         1.221731	      70.000005
	 D(11,9,12,15)    =        -1.961304	    -112.374434
	 D(12,9,11,13)    =        -0.063095	      -3.615104

	Current energy   :      -418.2754393581

	Energy change for the previous step:
		Projected    :         0.0000021914
		Actual       :        -0.0000012802

	Performing BFGS update.
	Previous computed or guess Hessian on step 1.
	Steps to be used in Hessian update: 5 4
	Taking RFO optimization step.
	Going to follow RFO solution 1.
	Rejecting RFO root 1 because normalization gives large value.
	Using RFO vector 2.
	Norm of target step-size    0.00186
	Projected energy change by RFO approximation:        -0.0000007251

	Back-transformation to cartesian coordinates...
	Successfully converged to displaced geometry.

	Back-transformation to cartesian coordinates to adjust frozen coordinates...
	Successfully converged to displaced geometry.

	--- Internal Coordinate Step in ANG or DEG, aJ/ANG or AJ/DEG ---
	 ---------------------------------------------------------------------------
	   Coordinate                Previous        Force       Change         New 
	   ----------                --------       ------       ------       ------
	    1 R(1,2)          =      0.947046    -0.000025    -0.000001     0.947045
	    2 R(2,3)          =      1.350088    -0.000265    -0.000020     1.350068
	    3 R(3,4)          =      1.386212    -0.001000    -0.000133     1.386078
	    4 R(3,5)          =      1.387177     0.000789     0.000122     1.387299
	    5 R(4,6)          =      1.076859     0.000015    -0.000001     1.076858
	    6 R(4,7)          =      1.385539     0.000694     0.000106     1.385645
	    7 R(5,8)          =      1.075114    -0.000011    -0.000006     1.075108
	    8 R(5,9)          =      1.384038    -0.000508    -0.000086     1.383951
	    9 R(7,10)         =      1.075064    -0.000043    -0.000002     1.075062
	   10 R(7,11)         =      1.382798    -0.000383    -0.000075     1.382722
	   11 R(9,11)         =      1.389457     0.000406     0.000066     1.389522
	   12 R(9,12)         =      1.499318     0.000072     0.000036     1.499355
	   13 R(11,13)        =      1.074321     0.000001     0.000003     1.074324
	   14 R(12,14)        =      1.187434    -0.000092    -0.000012     1.187422
	   15 R(12,15)        =      1.093656     0.000036     0.000004     1.093660
	   16 B(1,2,3)        =    110.906257    -0.000003    -0.007990   110.898267
	   17 B(2,3,4)        =    122.623958     0.000001     0.005841   122.629800
	   18 B(2,3,5)        =    117.295789    -0.000002    -0.006806   117.288983
	   19 B(3,4,6)        =    120.072328     0.000001     0.006154   120.078481
	   20 B(3,4,7)        =    119.706993    -0.000001    -0.003943   119.703050
	   21 B(3,5,8)        =    118.782954    -0.000001    -0.006107   118.776846
	   22 B(3,5,9)        =    119.671466     0.000001     0.002108   119.673574
	   23 B(4,3,5)        =    120.077589     0.000001     0.000855   120.078444
	   24 B(4,7,10)       =    119.349524    -0.000002    -0.005974   119.343549
	   25 B(4,7,11)       =    120.741693     0.000001     0.004611   120.746304
	   26 B(5,9,11)       =    120.642837    -0.000001    -0.001331   120.641506
	   27 B(5,9,12)       =    119.128442    -0.000004    -0.016708   119.111734
	   28 B(6,4,7)        =    120.219991     0.000000    -0.002066   120.217925
	   29 B(7,11,9)       =    119.120378    -0.000000    -0.001493   119.118885
	   30 B(7,11,13)      =    120.634192     0.000001     0.001384   120.635576
	   31 B(8,5,9)        =    121.540086    -0.000000     0.004234   121.544320
	   32 B(9,11,13)      =    120.239914    -0.000000     0.000564   120.240479
	   33 B(9,12,14)      =    123.969737    -0.000001    -0.007971   123.961766
	   34 B(9,12,15)      =    115.454451     0.000002     0.008883   115.463334
	   35 B(10,7,11)      =    119.908769     0.000000     0.001368   119.910137
	   36 B(11,9,12)      =    120.088261     0.000005     0.018026   120.106287
	   37 B(14,12,15)     =    120.533035    -0.000000    -0.001299   120.531735
	   38 D(1,2,3,4)      =     -1.139845    -0.000000    -0.022213    -1.162058
	   39 D(1,2,3,5)      =    179.454190    -0.000000    -0.010150   179.444040
	   40 D(2,3,4,6)      =     -0.067817     0.000000     0.019907    -0.047909
	   41 D(2,3,4,7)      =   -179.766630    -0.000000    -0.013513  -179.780143
	   42 D(2,3,5,8)      =      0.416879     0.000000     0.009819     0.426697
	   43 D(2,3,5,9)      =   -178.743714    -0.000000    -0.008328  -178.752042
	   44 D(3,4,7,10)     =    179.548715     0.000000     0.010189   179.558905
	   45 D(3,4,7,11)     =     -0.494913     0.000000     0.018122    -0.476791
	   46 D(3,5,9,11)     =     -2.448056     0.000000     0.027594    -2.420462
	   47 D(3,5,9,12)     =   -178.143861     0.000000     0.027013  -178.116848
	   48 D(4,3,5,8)      =   -179.004958     0.000000     0.021526  -178.983432
	   49 D(4,3,5,9)      =      1.834450    -0.000000     0.003379     1.837829
	   50 D(4,7,11,9)     =     -0.099177     0.000000     0.012346    -0.086831
	   51 D(4,7,11,13)    =   -179.246901    -0.000000    -0.023556  -179.270457
	   52 D(5,3,4,6)      =    179.322150     0.000000     0.007476   179.329626
	   53 D(5,3,4,7)      =     -0.376663    -0.000000    -0.025944    -0.402607
	   54 D(5,9,11,7)     =      1.579178    -0.000000    -0.035301     1.543877
	   55 D(5,9,11,13)    =   -179.269658    -0.000000     0.000463  -179.269196
	   56 D(5,9,12,14)    =   -114.279805     0.000000    -0.000264  -114.280069
	   57 D(5,9,12,15)    =     63.345756    -0.000000    -0.010989    63.334767
	   58 D(6,4,7,10)     =     -0.149647    -0.000000    -0.023303    -0.172950
	   59 D(6,4,7,11)     =    179.806725    -0.000000    -0.015370   179.791354
	   60 D(7,11,9,12)    =    177.233732    -0.000000    -0.036216   177.197516
	   61 D(8,5,9,11)     =    178.415164     0.000000     0.009020   178.424184
	   62 D(8,5,9,12)     =      2.719359     0.000000     0.008439     2.727799
	   63 D(9,11,7,10)    =    179.856952     0.000000     0.020320   179.877272
	   64 D(10,7,11,13)   =      0.709227    -0.000000    -0.015582     0.693646
	   65 *D(11,9,12,14)  =     70.000005     0.000000     0.000000    70.000005
	   66 D(11,9,12,15)   =   -112.374434    -0.000000    -0.010726  -112.385159
	   67 D(12,9,11,13)   =     -3.615104    -0.000000    -0.000452    -3.615557
	 ---------------------------------------------------------------------------

  ==> Convergence Check <==

  Measures of convergence in internal coordinates in au.
  Criteria marked as inactive (o), active & met (*), and active & unmet ( ).
  ---------------------------------------------------------------------------------------------
   Step     Total Energy     Delta E     MAX Force     RMS Force      MAX Disp      RMS Disp   
  ---------------------------------------------------------------------------------------------
    Convergence Criteria    1.00e-06 *    3.00e-04 *             o    1.20e-03 *             o
  ---------------------------------------------------------------------------------------------
      6    -418.27543936   -1.28e-06      1.21e-04 *    2.85e-05 o    6.32e-04 *    2.27e-04 o  ~
  ---------------------------------------------------------------------------------------------


  **** Optimization is complete! (in 6 steps) ****

  ==> Optimization Summary <==

  Measures of convergence in internal coordinates in au.
  --------------------------------------------------------------------------------------------------------------- ~
   Step         Total Energy             Delta E       MAX Force       RMS Force        MAX Disp        RMS Disp  ~
  --------------------------------------------------------------------------------------------------------------- ~
      1    -418.274865056377   -418.274865056377      0.00822272      0.00155232      0.23740081      0.03959295  ~
      2    -418.274673446221      0.000191610156      0.00645104      0.00120916      0.19137348      0.03439444  ~
      3    -418.274750418595     -0.000076972374      0.00686542      0.00158550      0.05764574      0.01526899  ~
      4    -418.275397427410     -0.000647008815      0.00068469      0.00021947      0.03307941      0.00840904  ~
      5    -418.275438077931     -0.000040650522      0.00024314      0.00007383      0.00347130      0.00112222  ~
      6    -418.275439358110     -0.000001280178      0.00012142      0.00002851      0.00063209      0.00022740  ~
  --------------------------------------------------------------------------------------------------------------- ~

	Writing optimization data to binary file.
	Final energy is   -418.2754393581098
	Final (previous) structure:
	Cartesian Geometry (in Angstrom)
	    H     2.6711836834   1.2253242194   1.8619867533
	    O     1.7345964693   1.1225611551   1.9575948287
	    C     1.1884243346   0.6138529254   0.8325840813
	    C     1.9382541013   0.3213401364  -0.2960319879
	    C    -0.1817810527   0.3975239285   0.8322058983
	    H     3.0002614885   0.4995364184  -0.2994063813
	    C     1.3141702827  -0.1948469192  -1.4202157550
	    H    -0.7454581570   0.6468411719   1.7131021886
	    C    -0.7891617118  -0.1467587416  -0.2860092559
	    H     1.9000831083  -0.4127822767  -2.2948436487
	    C    -0.0481963533  -0.4315939801  -1.4263726651
	    C    -2.2764259888  -0.3364697838  -0.2891470412
	    H    -0.5283924078  -0.8431255169  -2.2948305804
	    O    -2.8099668792  -1.3968160697  -0.3207766017
	    H    -2.8674646971   0.5810413496  -0.2189401716
	Saving final (previous) structure.
			--------------------------
			 OPTKING Finished Execution 
			--------------------------

    Final optimized geometry and variables:
    Molecular point group: c1
    Full point group: C1

    Geometry (in Angstrom), charge = 0, multiplicity = 1:

    H            2.671183479456     1.225324125850     1.861986611123
    O            1.734596336880     1.122561069357     1.957594679232
    C            1.188424243884     0.613852878496     0.832584017728
    C            1.938253953261     0.321340111814    -0.296031965325
    C           -0.181781038781     0.397523898164     0.832205834734
    H            3.000261259349     0.499536380235    -0.299406358473
    C            1.314170182316    -0.194846904355    -1.420215646576
    H           -0.745458100068     0.646841122512     1.713102057761
    C           -0.789161651500    -0.146758730359    -0.286009234070
    H            1.900082963246    -0.412782245201    -2.294843473448
    C           -0.048196349621    -0.431593947143    -1.426372556195
    C           -2.276425814957    -0.336469758122    -0.289147019131
    H           -0.528392367462    -0.843125452469    -2.294830405130
    O           -2.809966664610    -1.396815963026    -0.320776577247
    H           -2.867464478129     0.581041305230    -0.218940154918

	Cleaning optimization helper files.


Properties will be evaluated at   0.000000,   0.000000,   0.000000 Bohr

Properties computed using the  density matrix

  Nuclear Dipole Moment: (a.u.)
     X:     3.2106      Y:     1.5894      Z:    -1.4292

  Electronic Dipole Moment: (a.u.)
     X:    -1.9305      Y:    -0.6861      Z:     1.1107

  Dipole Moment: (a.u.)
     X:     1.2801      Y:     0.9033      Z:    -0.3186     Total:     1.5988

  Dipole Moment: (Debye)
     X:     3.2536      Y:     2.2960      Z:    -0.8097     Total:     4.0636

  Quadrupole Moment: (Debye Ang)
    XX:   -46.6904     YY:   -57.5998     ZZ:   -50.1026
    XY:    -4.7768     XZ:    -0.2755     YZ:     0.6524

  Traceless Quadrupole Moment: (Debye Ang)
    XX:     4.7739     YY:    -6.1355     ZZ:     1.3616
    XY:    -4.7768     XZ:    -0.2755     YZ:     0.6524

  Mulliken Charges: (a.u.)
   Center  Symbol    Alpha    Beta     Spin     Total
       1     H     0.27002  0.27002  0.00000  0.45996
       2     O     4.37665  4.37665  0.00000 -0.75330
       3     C     2.79087  2.79087  0.00000  0.41827
       4     C     3.14125  3.14125  0.00000 -0.28249
       5     C     3.13087  3.13087  0.00000 -0.26173
       6     H     0.40037  0.40037  0.00000  0.19926
       7     C     3.08944  3.08944  0.00000 -0.17888
       8     H     0.38552  0.38552  0.00000  0.22895
       9     C     3.02308  3.02308  0.00000 -0.04617
      10     H     0.39328  0.39328  0.00000  0.21343
      11     C     3.11424  3.11424  0.00000 -0.22847
      12     C     2.84948  2.84948  0.00000  0.30104
      13     H     0.38935  0.38935  0.00000  0.22131
      14     O     4.22418  4.22418  0.00000 -0.44835
      15     H     0.42141  0.42141  0.00000  0.15717

   Total alpha = 32.00000, Total beta = 32.00000, Total charge = -0.00000


*** PSI4 exiting successfully. Buy a developer a beer!
