    -----------------------------------------------------------------------
          Psi4: An Open-Source Ab Initio Electronic Structure Package
                              Psi4 (no tag) Driver

                          Git: Rev {detached?}  

    J. M. Turney, A. C. Simmonett, R. M. Parrish, E. G. Hohenstein,
    F. A. Evangelista, J. T. Fermann, B. J. Mintz, L. A. Burns, J. J. Wilke,
    M. L. Abrams, N. J. Russ, M. L. Leininger, C. L. Janssen, E. T. Seidl,
    W. D. Allen, H. F. Schaefer, R. A. King, E. F. Valeev, C. D. Sherrill,
    and T. D. Crawford, WIREs Comput. Mol. Sci. 2, 556-565 (2012)
    (doi: 10.1002/wcms.93)

                         Additional Contributions by
    A. E. DePrince, M. Saitow, U. Bozkaya, A. Yu. Sokolov
    -----------------------------------------------------------------------


    Psi4 started on: Fri Sep  2 15:24:01 2016

    Process ID:   3485
    PSI4DATADIR: /export131/home/mjharvey/miniconda3/share
    Memory level set to 256.000 MB

  ==> Input File <==

--------------------------------------------------------------------------
set {
	reference rhf
	basis 6-31G*
}


set_num_threads( 4 )
memory 2 gb

molecule MOL {
0 1

O	 1.847616	 1.294817	 -0.053760
C	 1.705091	 0.115954	 0.001797
C	 0.381791	 -0.609817	 0.001258
O	 2.720448	 -0.735899	 0.069114
C	 -0.823008	 0.326187	 0.001381
H	 0.371250	 -1.265087	 -0.865474
H	 0.370908	 -1.265746	 0.867490
C	 -2.149452	 -0.435131	 -0.000098
H	 -0.770201	 0.977095	 -0.865636
H	 -0.771220	 0.975655	 0.869608
C	 -3.368779	 0.488503	 -0.000883
H	 -2.193746	 -1.087250	 -0.871175
H	 -2.195311	 -1.087803	 0.870418
C	 -4.693822	 -0.272754	 -0.001129
H	 -3.325798	 1.139422	 -0.871284
H	 -3.326423	 1.139959	 0.869145
H	 -4.781274	 -0.907928	 -0.878124
H	 -5.538651	 0.408946	 -0.001420
H	 -4.781694	 -0.907783	 0.875984
C	 4.023940	 -0.182886	 0.075345
H	 4.202171	 0.380240	 -0.829448
H	 4.700060	 -1.021571	 0.133178
H	 4.157650	 0.465509	 0.929284

	symmetry c1
}
set optking {
	frozen_dihedral = ("
		1 2 3 6
	")
}

ee = optimize('scf')
oeprop('DIPOLE', 'QUADRUPOLE', 'MULLIKEN_CHARGES')
f=open( 'psi4out.xyz', 'w' )
f.write( "23  " )
f.write( str(ee) + "\n" )
f.write( MOL.save_string_xyz() )
f.close()
--------------------------------------------------------------------------

  Memory set to   2.000 GiB by Python script.
gradient() will perform analytic gradient computation.

*** tstart() called on cx1-1-1-1.cx1.hpc.ic.ac.uk
*** at Fri Sep  2 15:24:01 2016


         ---------------------------------------------------------
                                   SCF
            by Justin Turney, Rob Parrish, and Andy Simmonett
                              RHF Reference
                        4 Threads,   2000 MiB Core
         ---------------------------------------------------------

  ==> Geometry <==

    Molecular point group: c1
    Full point group: C1

    Geometry (in Angstrom), charge = 0, multiplicity = 1:

       Center              X                  Y                   Z               Mass       
    ------------   -----------------  -----------------  -----------------  -----------------
           O          1.847738849331     1.294601128508    -0.064613269265    15.994914619560
           C          1.705213849331     0.115738128508    -0.009056269265    12.000000000000
           C          0.381913849331    -0.610032871492    -0.009595269265    12.000000000000
           O          2.720570849331    -0.736114871492     0.058260730735    15.994914619560
           C         -0.822885150669     0.325971128508    -0.009472269265    12.000000000000
           H          0.371372849331    -1.265302871492    -0.876327269265     1.007825032070
           H          0.371030849331    -1.265961871492     0.856636730735     1.007825032070
           C         -2.149329150669    -0.435346871492    -0.010951269265    12.000000000000
           H         -0.770078150669     0.976879128508    -0.876489269265     1.007825032070
           H         -0.771097150669     0.975439128508     0.858754730735     1.007825032070
           C         -3.368656150669     0.488287128508    -0.011736269265    12.000000000000
           H         -2.193623150669    -1.087465871492    -0.882028269265     1.007825032070
           H         -2.195188150669    -1.088018871492     0.859564730735     1.007825032070
           C         -4.693699150669    -0.272969871492    -0.011982269265    12.000000000000
           H         -3.325675150669     1.139206128508    -0.882137269265     1.007825032070
           H         -3.326300150669     1.139743128508     0.858291730735     1.007825032070
           H         -4.781151150669    -0.908143871492    -0.888977269265     1.007825032070
           H         -5.538528150669     0.408730128508    -0.012273269265     1.007825032070
           H         -4.781571150669    -0.907998871492     0.865130730735     1.007825032070
           C          4.024062849331    -0.183101871492     0.064491730735    12.000000000000
           H          4.202293849331     0.380024128508    -0.840301269265     1.007825032070
           H          4.700182849331    -1.021786871492     0.122324730735     1.007825032070
           H          4.157772849331     0.465293128508     0.918430730735     1.007825032070

  Running in c1 symmetry.

  Rotational constants: A =      0.23891  B =      0.01613  C =      0.01536 [cm^-1]
  Rotational constants: A =   7162.31842  B =    483.46532  C =    460.54539 [MHz]
  Nuclear repulsion =  452.123477028677996

  Charge       = 0
  Multiplicity = 1
  Electrons    = 72
  Nalpha       = 36
  Nbeta        = 36

  ==> Algorithm <==

  SCF Algorithm Type is DF.
  DIIS enabled.
  MOM disabled.
  Fractional occupation disabled.
  Guess Type is CORE.
  Energy threshold   = 1.00e-08
  Density threshold  = 1.00e-08
  Integral threshold = 0.00e+00

  ==> Primary Basis <==

  Basis Set: 6-31G*
    Number of shells: 82
    Number of basis function: 163
    Number of Cartesian functions: 163
    Spherical Harmonics?: false
    Max angular momentum: 2

  ==> Pre-Iterations <==

   -------------------------------------------------------
    Irrep   Nso     Nmo     Nalpha   Nbeta   Ndocc  Nsocc
   -------------------------------------------------------
     A        163     163       0       0       0       0
   -------------------------------------------------------
    Total     163     163      36      36      36       0
   -------------------------------------------------------

 OEINTS: Overlap, kinetic, potential, dipole, and quadrupole integrals
         stored in file 35.

  ==> Integral Setup <==

  ==> DFJK: Density-Fitted J/K Matrices <==

    J tasked:                  Yes
    K tasked:                  Yes
    wK tasked:                  No
    OpenMP threads:              4
    Integrals threads:           4
    Memory (MB):              1430
    Algorithm:                Core
    Integral Cache:           NONE
    Schwarz Cutoff:          1E-12
    Fitting Condition:       1E-12

   => Auxiliary Basis Set <=

  Basis Set: 
    Number of shells: 342
    Number of basis function: 1079
    Number of Cartesian functions: 1079
    Spherical Harmonics?: false
    Max angular momentum: 3

  Minimum eigenvalue in the overlap matrix is 2.4330298468E-03.
  Using Symmetric Orthogonalization.
  SCF Guess: Core (One-Electron) Hamiltonian.

  ==> Iterations <==

                           Total Energy        Delta E     RMS |[F,P]|

   @DF-RHF iter   1:  -273.66288560638151   -2.73663e+02   6.78265e-02 
   @DF-RHF iter   2:    28.44888884395658    3.02112e+02   8.58012e-02 DIIS
   @DF-RHF iter   3:  -231.36832225736219   -2.59817e+02   6.29032e-02 DIIS
   @DF-RHF iter   4:  -267.21902643461630   -3.58507e+01   6.05153e-02 DIIS
   @DF-RHF iter   5:  -393.21404694242523   -1.25995e+02   3.79568e-02 DIIS
   @DF-RHF iter   6:  -422.26479817065484   -2.90508e+01   7.42603e-03 DIIS
   @DF-RHF iter   7:  -422.81537165392939   -5.50573e-01   3.98960e-03 DIIS
   @DF-RHF iter   8:  -422.96523428096287   -1.49863e-01   9.13482e-04 DIIS
   @DF-RHF iter   9:  -422.97518408117406   -9.94980e-03   2.54559e-04 DIIS
   @DF-RHF iter  10:  -422.97611204441438   -9.27963e-04   9.75874e-05 DIIS
   @DF-RHF iter  11:  -422.97627291796272   -1.60874e-04   3.17868e-05 DIIS
   @DF-RHF iter  12:  -422.97630019337686   -2.72754e-05   9.42185e-06 DIIS
   @DF-RHF iter  13:  -422.97630254288691   -2.34951e-06   3.67155e-06 DIIS
   @DF-RHF iter  14:  -422.97630292626610   -3.83379e-07   1.37610e-06 DIIS
   @DF-RHF iter  15:  -422.97630299760732   -7.13412e-08   3.28529e-07 DIIS
   @DF-RHF iter  16:  -422.97630300181225   -4.20494e-09   9.30490e-08 DIIS
   @DF-RHF iter  17:  -422.97630300205225   -2.39993e-10   2.84742e-08 DIIS
   @DF-RHF iter  18:  -422.97630300207464   -2.23963e-11   7.49239e-09 DIIS

  ==> Post-Iterations <==

    Orbital Energies (a.u.)
    -----------------------

    Doubly Occupied:                                                      

       1A    -20.603640     2A    -20.545423     3A    -11.372263  
       4A    -11.280838     5A    -11.235545     6A    -11.219307  
       7A    -11.217903     8A    -11.216488     9A    -11.209657  
      10A     -1.469330    11A     -1.362760    12A     -1.093233  
      13A     -1.043673    14A     -0.987052    15A     -0.932113  
      16A     -0.843575    17A     -0.795091    18A     -0.767303  
      19A     -0.696847    20A     -0.683861    21A     -0.671496  
      22A     -0.651792    23A     -0.609271    24A     -0.599412  
      25A     -0.572780    26A     -0.558506    27A     -0.556828  
      28A     -0.523816    29A     -0.521124    30A     -0.507768  
      31A     -0.484408    32A     -0.469804    33A     -0.466289  
      34A     -0.461333    35A     -0.455628    36A     -0.435460  

    Virtual:                                                              

      37A      0.199452    38A      0.225922    39A      0.247617  
      40A      0.264863    41A      0.273142    42A      0.277081  
      43A      0.302951    44A      0.313438    45A      0.318951  
      46A      0.323266    47A      0.327912    48A      0.335587  
      49A      0.340912    50A      0.347273    51A      0.358078  
      52A      0.374666    53A      0.393735    54A      0.396056  
      55A      0.435558    56A      0.462458    57A      0.496258  
      58A      0.540840    59A      0.584532    60A      0.695943  
      61A      0.724255    62A      0.726099    63A      0.750061  
      64A      0.756988    65A      0.760749    66A      0.779911  
      67A      0.789402    68A      0.807494    69A      0.837079  
      70A      0.856990    71A      0.872361    72A      0.928979  
      73A      0.945855    74A      0.969653    75A      0.992546  
      76A      1.018864    77A      1.028845    78A      1.033984  
      79A      1.101767    80A      1.106956    81A      1.119990  
      82A      1.122338    83A      1.130739    84A      1.133231  
      85A      1.156484    86A      1.176193    87A      1.186172  
      88A      1.190371    89A      1.206646    90A      1.208227  
      91A      1.214674    92A      1.221707    93A      1.234847  
      94A      1.242538    95A      1.251490    96A      1.273731  
      97A      1.289269    98A      1.301982    99A      1.349341  
     100A      1.380854   101A      1.426350   102A      1.547761  
     103A      1.566887   104A      1.626588   105A      1.658256  
     106A      1.666185   107A      1.724694   108A      1.736467  
     109A      1.796896   110A      1.800846   111A      1.851730  
     112A      1.883389   113A      1.944019   114A      1.978810  
     115A      2.022635   116A      2.043004   117A      2.098400  
     118A      2.139788   119A      2.164987   120A      2.171764  
     121A      2.229188   122A      2.247687   123A      2.254322  
     124A      2.278987   125A      2.315428   126A      2.319277  
     127A      2.328041   128A      2.359576   129A      2.387536  
     130A      2.402955   131A      2.405888   132A      2.448249  
     133A      2.484806   134A      2.559853   135A      2.573128  
     136A      2.617727   137A      2.646488   138A      2.666569  
     139A      2.699090   140A      2.720329   141A      2.750419  
     142A      2.773990   143A      2.827894   144A      2.841563  
     145A      2.913681   146A      2.946397   147A      2.982538  
     148A      3.066870   149A      3.094571   150A      3.139447  
     151A      3.181789   152A      3.349643   153A      3.453744  
     154A      3.582730   155A      4.415359   156A      4.548901  
     157A      4.609561   158A      4.643791   159A      4.709308  
     160A      4.762563   161A      4.832191   162A      4.910365  
     163A      5.030794  

    Final Occupation by Irrep:
              A 
    DOCC [    36 ]

  Energy converged.

  @DF-RHF Final Energy:  -422.97630300207464

   => Energetics <=

    Nuclear Repulsion Energy =            452.1234770286779963
    One-Electron Energy =               -1471.9563270692988226
    Two-Electron Energy =                 596.8565470385464096
    DFT Exchange-Correlation Energy =       0.0000000000000000
    Empirical Dispersion Energy =           0.0000000000000000
    PCM Polarization Energy =               0.0000000000000000
    EFP Energy =                            0.0000000000000000
    Total Energy =                       -422.9763030020743599

    Alert: EFP and PCM quantities not currently incorporated into SCF psivars.

Properties will be evaluated at   0.000000,   0.000000,   0.000000 Bohr
  ==> Properties <==


Properties computed using the SCF density matrix

  Nuclear Dipole Moment: (a.u.)
     X:   -12.9906      Y:    -1.9279      Z:     0.0755

  Electronic Dipole Moment: (a.u.)
     X:    13.0974      Y:     1.2538      Z:    -0.0390

  Dipole Moment: (a.u.)
     X:     0.1067      Y:    -0.6741      Z:     0.0365     Total:     0.6835

  Dipole Moment: (Debye)
     X:     0.2713      Y:    -1.7135      Z:     0.0928     Total:     1.7373


  Saving occupied orbitals to File 180.

*** tstop() called on cx1-1-1-1.cx1.hpc.ic.ac.uk at Fri Sep  2 15:24:10 2016
Module time:
	user time   =      27.65 seconds =       0.46 minutes
	system time =       0.37 seconds =       0.01 minutes
	total time  =          9 seconds =       0.15 minutes
Total time:
	user time   =      27.65 seconds =       0.46 minutes
	system time =       0.37 seconds =       0.01 minutes
	total time  =          9 seconds =       0.15 minutes

*** tstart() called on cx1-1-1-1.cx1.hpc.ic.ac.uk
*** at Fri Sep  2 15:24:10 2016


         ------------------------------------------------------------
                                   SCF GRAD                          
                          Rob Parrish, Justin Turney,                
                       Andy Simmonett, and Alex Sokolov              
         ------------------------------------------------------------

  ==> Geometry <==

    Molecular point group: c1
    Full point group: C1

    Geometry (in Angstrom), charge = 0, multiplicity = 1:

       Center              X                  Y                   Z               Mass       
    ------------   -----------------  -----------------  -----------------  -----------------
           O          1.847738849331     1.294601128508    -0.064613269265    15.994914619560
           C          1.705213849331     0.115738128508    -0.009056269265    12.000000000000
           C          0.381913849331    -0.610032871492    -0.009595269265    12.000000000000
           O          2.720570849331    -0.736114871492     0.058260730735    15.994914619560
           C         -0.822885150669     0.325971128508    -0.009472269265    12.000000000000
           H          0.371372849331    -1.265302871492    -0.876327269265     1.007825032070
           H          0.371030849331    -1.265961871492     0.856636730735     1.007825032070
           C         -2.149329150669    -0.435346871492    -0.010951269265    12.000000000000
           H         -0.770078150669     0.976879128508    -0.876489269265     1.007825032070
           H         -0.771097150669     0.975439128508     0.858754730735     1.007825032070
           C         -3.368656150669     0.488287128508    -0.011736269265    12.000000000000
           H         -2.193623150669    -1.087465871492    -0.882028269265     1.007825032070
           H         -2.195188150669    -1.088018871492     0.859564730735     1.007825032070
           C         -4.693699150669    -0.272969871492    -0.011982269265    12.000000000000
           H         -3.325675150669     1.139206128508    -0.882137269265     1.007825032070
           H         -3.326300150669     1.139743128508     0.858291730735     1.007825032070
           H         -4.781151150669    -0.908143871492    -0.888977269265     1.007825032070
           H         -5.538528150669     0.408730128508    -0.012273269265     1.007825032070
           H         -4.781571150669    -0.907998871492     0.865130730735     1.007825032070
           C          4.024062849331    -0.183101871492     0.064491730735    12.000000000000
           H          4.202293849331     0.380024128508    -0.840301269265     1.007825032070
           H          4.700182849331    -1.021786871492     0.122324730735     1.007825032070
           H          4.157772849331     0.465293128508     0.918430730735     1.007825032070

  Nuclear repulsion =  452.123477028677996

  ==> Basis Set <==

  Basis Set: 6-31G*
    Number of shells: 82
    Number of basis function: 163
    Number of Cartesian functions: 163
    Spherical Harmonics?: false
    Max angular momentum: 2

  ==> DFJKGrad: Density-Fitted SCF Gradients <==

    Gradient:                    1
    J tasked:                  Yes
    K tasked:                  Yes
    wK tasked:                  No
    OpenMP threads:              4
    Integrals threads:           4
    Memory (MB):              1430
    Schwarz Cutoff:          0E+00
    Fitting Condition:       1E-12

   => Auxiliary Basis Set <=

  Basis Set: 
    Number of shells: 342
    Number of basis function: 1079
    Number of Cartesian functions: 1079
    Spherical Harmonics?: false
    Max angular momentum: 3


  -Total Gradient:
     Atom            X                  Y                   Z
    ------   -----------------  -----------------  -----------------
       1        0.000040614719     0.000016794805    -0.000166021456
       2       -0.000063393380    -0.000008740555     0.000411952568
       3       -0.000003436116     0.000028545497    -0.000966598522
       4        0.000019098428     0.000005742411    -0.000091316080
       5        0.000030303141     0.000013318818     0.000551835715
       6       -0.000088579489    -0.000013277038     0.000205060393
       7        0.000102269563    -0.000016209514     0.000199811796
       8        0.000006536348    -0.000006737843    -0.000073099407
       9       -0.000030514813     0.000009840477    -0.000059199554
      10        0.000016930845    -0.000033330271    -0.000113719416
      11       -0.000026232864    -0.000018559281     0.000008923746
      12       -0.000017957215    -0.000020682130     0.000001913372
      13        0.000019559524     0.000024129851    -0.000015089028
      14        0.000010045940    -0.000025642989    -0.000022840471
      15       -0.000006319285     0.000013421912    -0.000020292056
      16        0.000010037936     0.000007753544     0.000005495764
      17        0.000003669500     0.000016414535     0.000016113038
      18       -0.000009086279     0.000016285579    -0.000000420519
      19        0.000006315742    -0.000003771528     0.000007020846
      20        0.000004616894    -0.000035875821     0.000138354505
      21       -0.000025707256     0.000004598537    -0.000005484097
      22       -0.000019765188     0.000023234638    -0.000000732716
      23        0.000020993294     0.000002746370    -0.000011668424


*** tstop() called on cx1-1-1-1.cx1.hpc.ic.ac.uk at Fri Sep  2 15:24:20 2016
Module time:
	user time   =      33.39 seconds =       0.56 minutes
	system time =       0.26 seconds =       0.00 minutes
	total time  =         10 seconds =       0.17 minutes
Total time:
	user time   =      61.06 seconds =       1.02 minutes
	system time =       0.63 seconds =       0.01 minutes
	total time  =         19 seconds =       0.32 minutes
CURRENT ENERGY: -422.9763030021

			-----------------------------------------
			 OPTKING 2.0: for geometry optimizations 
			  - R.A. King,  Bethel University        
			-----------------------------------------

	Internal coordinates to be generated automatically.
	Detected frag with atoms:  1 2 3 4 5 6 7 8 9 10 11 12 13 14 15 16 17 18 19 20
	 21 22 23
	---Fragment 1 Bond Connectivity---
	 1 : 2
	 2 : 1 3 4
	 3 : 2 5 6 7
	 4 : 2 20
	 5 : 3 8 9 10
	 6 : 3
	 7 : 3
	 8 : 5 11 12 13
	 9 : 5
	 10 : 5
	 11 : 8 14 15 16
	 12 : 8
	 13 : 8
	 14 : 11 17 18 19
	 15 : 11
	 16 : 11
	 17 : 14
	 18 : 14
	 19 : 14
	 20 : 4 21 22 23
	 21 : 20
	 22 : 20
	 23 : 20

	Assuming in current code that numbering for constraints corresponds to unified fragment.
	Frozen dihedral atom list: 
	     1     2     3     6
	---Fragment 1 Geometry and Gradient---
	 O           3.4917203903        2.4464415842       -0.1221013835
	 C           3.2223871732        0.2187133660       -0.0171138687
	 C           0.7217125816       -1.1527950592       -0.0181324311
	 O           5.1411338303       -1.3910555095        0.1100968254
	 C          -1.5550275736        0.6159961601       -0.0178999948
	 H           0.7017929784       -2.3910759023       -1.6560185417
	 H           0.7011466921       -2.3923212318        1.6188088165
	 C          -4.0616434642       -0.8226863599       -0.0206948997
	 H          -1.4552368057        1.8460340178       -1.6563246773
	 H          -1.4571624366        1.8433128122        1.6228112564
	 C          -6.3658375606        0.9227289471       -0.0221783347
	 H          -4.1453469935       -2.0550126760       -1.6667918704
	 H          -4.1483044149       -2.0560576945        1.6243419346
	 C          -8.8698059449       -0.5158382996       -0.0226432074
	 H          -6.2846152417        2.1527875918       -1.6669978505
	 H          -6.2857963205        2.1538023747        1.6219363132
	 H          -9.0350662747       -1.7161432064       -1.6799235773
	 H         -10.4663013840        0.7723880051       -0.0231931177
	 H          -9.0358599597       -1.7158691961        1.6348601502
	 C           7.6043767268       -0.3460123915        0.1218717089
	 H           7.9411845051        0.7181415268       -1.5879392680
	 H           8.8820583597       -1.9308973533        0.2311602404
	 H           7.8570520080        0.8792765844        1.7355825531
	             0.0000406147        0.0000167948       -0.0001660215
	            -0.0000633934       -0.0000087406        0.0004119526
	            -0.0000034361        0.0000285455       -0.0009665985
	             0.0000190984        0.0000057424       -0.0000913161
	             0.0000303031        0.0000133188        0.0005518357
	            -0.0000885795       -0.0000132770        0.0002050604
	             0.0001022696       -0.0000162095        0.0001998118
	             0.0000065363       -0.0000067378       -0.0000730994
	            -0.0000305148        0.0000098405       -0.0000591996
	             0.0000169308       -0.0000333303       -0.0001137194
	            -0.0000262329       -0.0000185593        0.0000089237
	            -0.0000179572       -0.0000206821        0.0000019134
	             0.0000195595        0.0000241299       -0.0000150890
	             0.0000100459       -0.0000256430       -0.0000228405
	            -0.0000063193        0.0000134219       -0.0000202921
	             0.0000100379        0.0000077535        0.0000054958
	             0.0000036695        0.0000164145        0.0000161130
	            -0.0000090863        0.0000162856       -0.0000004205
	             0.0000063157       -0.0000037715        0.0000070208
	             0.0000046169       -0.0000358758        0.0001383545
	            -0.0000257073        0.0000045985       -0.0000054841
	            -0.0000197652        0.0000232346       -0.0000007327
	             0.0000209933        0.0000027464       -0.0000116684

	Previous optimization step data not found.  Starting new optimization.

	---Fragment 1 Intrafragment Coordinates---
	 - Coordinate -           - BOHR/RAD -       - ANG/DEG -
	 R(1,2)           =         2.246405	       1.188746
	 R(2,3)           =         2.852089	       1.509260
	 R(2,4)           =         2.507813	       1.327078
	 R(3,5)           =         2.883083	       1.525662
	 R(3,6)           =         2.053389	       1.086607
	 R(3,7)           =         2.053393	       1.086609
	 R(4,20)          =         2.675784	       1.415964
	 R(5,8)           =         2.890145	       1.529399
	 R(5,9)           =         2.051192	       1.085444
	 R(5,10)          =         2.051296	       1.085499
	 R(8,11)          =         2.890638	       1.529660
	 R(8,12)          =         2.057977	       1.089035
	 R(8,13)          =         2.057878	       1.088982
	 R(11,14)         =         2.887790	       1.528153
	 R(11,15)         =         2.055498	       1.087723
	 R(11,16)         =         2.055495	       1.087721
	 R(14,17)         =         2.052954	       1.086377
	 R(14,18)         =         2.051420	       1.085565
	 R(14,19)         =         2.053038	       1.086421
	 R(20,21)         =         2.041890	       1.080522
	 R(20,22)         =         2.038694	       1.078831
	 R(20,23)         =         2.041872	       1.080512
	 B(1,2,3)         =         2.191966	     125.590378
	 B(1,2,4)         =         2.149815	     123.175308
	 B(2,3,5)         =         1.979442	     113.413689
	 B(2,3,6)         =         1.874211	     107.384381
	 B(2,3,7)         =         1.874208	     107.384226
	 B(2,4,20)        =         2.041887	     116.991535
	 B(3,2,4)         =         1.941400	     111.234005
	 B(3,5,8)         =         1.960051	     112.302632
	 B(3,5,9)         =         1.906484	     109.233496
	 B(3,5,10)        =         1.906526	     109.235892
	 B(4,20,21)       =         1.930188	     110.591609
	 B(4,20,22)       =         1.847880	     105.875730
	 B(4,20,23)       =         1.930248	     110.595036
	 B(5,3,6)         =         1.941610	     111.246083
	 B(5,3,7)         =         1.941604	     111.245727
	 B(5,8,11)        =         1.972264	     113.002426
	 B(5,8,12)        =         1.911475	     109.519476
	 B(5,8,13)        =         1.911442	     109.517575
	 B(6,3,7)         =         1.846013	     105.768727
	 B(8,5,9)         =         1.917640	     109.872659
	 B(8,5,10)        =         1.917697	     109.875948
	 B(8,11,14)       =         1.971842	     112.978247
	 B(8,11,15)       =         1.907366	     109.283996
	 B(8,11,16)       =         1.907297	     109.280077
	 B(9,5,10)        =         1.852274	     106.127500
	 B(11,8,12)       =         1.905762	     109.192110
	 B(11,8,13)       =         1.905759	     109.191968
	 B(11,14,17)      =         1.940337	     111.173098
	 B(11,14,18)      =         1.941184	     111.221623
	 B(11,14,19)      =         1.940330	     111.172733
	 B(12,8,13)       =         1.853337	     106.188375
	 B(14,11,15)      =         1.909476	     109.404888
	 B(14,11,16)      =         1.909482	     109.405236
	 B(15,11,16)      =         1.854704	     106.266695
	 B(17,14,18)      =         1.879991	     107.715552
	 B(17,14,19)      =         1.879138	     107.666701
	 B(18,14,19)      =         1.880029	     107.717699
	 B(21,20,22)      =         1.924809	     110.283428
	 B(21,20,23)      =         1.905647	     109.185518
	 B(22,20,23)      =         1.924723	     110.278519
	 D(1,2,3,5)       =        -0.058002	      -3.323256
	*D(1,2,3,6)       =         2.094395	     120.000013
	 D(1,2,3,7)       =        -2.210389	    -126.645959
	 D(1,2,4,20)      =         0.001779	       0.101931
	 D(2,3,5,8)       =         3.140938	     179.962516
	 D(2,3,5,9)       =         1.008890	      57.805153
	 D(2,3,5,10)      =        -1.010096	     -57.874253
	 D(2,4,20,21)     =        -1.056367	     -60.525365
	 D(2,4,20,22)     =        -3.141389	    -179.988307
	 D(2,4,20,23)     =         1.056845	      60.552778
	 D(3,2,4,20)      =         3.140019	     179.909829
	 D(3,5,8,11)      =        -3.140962	    -179.963859
	 D(3,5,8,12)      =        -1.012268	     -57.998659
	 D(3,5,8,13)      =         1.013556	      58.072497
	 D(4,2,3,5)       =         3.087042	     176.874468
	 D(4,2,3,6)       =        -1.043746	     -59.802263
	 D(4,2,3,7)       =         0.934655	      53.551766
	 D(5,8,11,14)     =        -3.140717	    -179.949839
	 D(5,8,11,15)     =         1.012262	      57.998328
	 D(5,8,11,16)     =        -1.010552	     -57.900380
	 D(6,3,5,8)       =         1.025991	      58.784944
	 D(6,3,5,9)       =        -1.106057	     -63.372419
	 D(6,3,5,10)      =        -3.125044	    -179.051825
	 D(7,3,5,8)       =        -1.027307	     -58.860379
	 D(7,3,5,9)       =         3.123830	     178.982258
	 D(7,3,5,10)      =         1.104843	      63.302853
	 D(8,11,14,17)    =        -1.046926	     -59.984421
	 D(8,11,14,18)    =         3.141329	     179.984868
	 D(8,11,14,19)    =         1.046354	      59.951684
	 D(9,5,8,11)      =        -1.015260	     -58.170129
	 D(9,5,8,12)      =         1.113434	      63.795070
	 D(9,5,8,13)      =         3.139258	     179.866226
	 D(10,5,8,11)     =         1.016428	      58.237029
	 D(10,5,8,12)     =        -3.138063	    -179.797772
	 D(10,5,8,13)     =        -1.112239	     -63.726616
	 D(12,8,11,14)    =         1.010569	      57.901330
	 D(12,8,11,15)    =        -1.119638	     -64.150503
	 D(12,8,11,16)    =         3.140734	     179.950789
	 D(13,8,11,14)    =        -1.008862	     -57.803545
	 D(13,8,11,15)    =        -3.139069	    -179.855378
	 D(13,8,11,16)    =         1.121303	      64.245914
	 D(15,11,14,17)   =         1.082096	      61.999540
	 D(15,11,14,18)   =        -1.012835	     -58.031171
	 D(15,11,14,19)   =        -3.107809	    -178.064355
	 D(16,11,14,17)   =         3.107321	     178.036391
	 D(16,11,14,18)   =         1.012390	      58.005680
	 D(16,11,14,19)   =        -1.082584	     -62.027504

	Current energy   :      -422.9763030021

	Generating empirical Hessian (Schlegel '84) for each fragment.
	Taking RFO optimization step.
	Going to follow RFO solution 1.
	Using RFO vector 1.
	Norm of target step-size    0.02891
	Projected energy change by RFO approximation:        -0.0000115171

	Back-transformation to cartesian coordinates...
	Successfully converged to displaced geometry.

	Back-transformation to cartesian coordinates to adjust frozen coordinates...
	Successfully converged to displaced geometry.

	--- Internal Coordinate Step in ANG or DEG, aJ/ANG or AJ/DEG ---
	 ---------------------------------------------------------------------------
	   Coordinate                Previous        Force       Change         New 
	   ----------                --------       ------       ------       ------
	    1 R(1,2)          =      1.188746    -0.000241    -0.000014     1.188732
	    2 R(2,3)          =      1.509260     0.000136     0.000028     1.509288
	    3 R(2,4)          =      1.327078    -0.000005    -0.000001     1.327077
	    4 R(3,5)          =      1.525662     0.000124     0.000027     1.525689
	    5 R(3,6)          =      1.086607     0.001275     0.000233     1.086839
	    6 R(3,7)          =      1.086609    -0.001384    -0.000253     1.086357
	    7 R(4,20)         =      1.415964     0.000163     0.000024     1.415988
	    8 R(5,8)          =      1.529399    -0.000015    -0.000003     1.529396
	    9 R(5,9)          =      1.085444    -0.000426    -0.000077     1.085366
	   10 R(5,10)         =      1.085499     0.000907     0.000165     1.085664
	   11 R(8,11)         =      1.529660    -0.000105    -0.000023     1.529637
	   12 R(8,12)         =      1.089035    -0.000095    -0.000018     1.089017
	   13 R(8,13)         =      1.088982     0.000225     0.000041     1.089024
	   14 R(11,14)        =      1.528153     0.000092     0.000020     1.528173
	   15 R(11,15)        =      1.087723    -0.000198    -0.000036     1.087687
	   16 R(11,16)        =      1.087721    -0.000078    -0.000014     1.087707
	   17 R(14,17)        =      1.086377     0.000189     0.000034     1.086411
	   18 R(14,18)        =      1.085565    -0.000143    -0.000026     1.085539
	   19 R(14,19)        =      1.086421    -0.000061    -0.000011     1.086410
	   20 R(20,21)        =      1.080522    -0.000023    -0.000004     1.080518
	   21 R(20,22)        =      1.078831     0.000251     0.000045     1.078875
	   22 R(20,23)        =      1.080512     0.000041     0.000007     1.080519
	   23 B(1,2,3)        =    125.590378    -0.000004    -0.012828   125.577551
	   24 B(1,2,4)        =    123.175308     0.000002     0.004052   123.179360
	   25 B(2,3,5)        =    113.413689    -0.000001    -0.013788   113.399901
	   26 B(2,3,6)        =    107.384381    -0.000010    -0.170348   107.214033
	   27 B(2,3,7)        =    107.384226     0.000011     0.184919   107.569145
	   28 B(2,4,20)       =    116.991535    -0.000000    -0.000754   116.990780
	   29 B(3,2,4)        =    111.234005     0.000002     0.005158   111.239163
	   30 B(3,5,8)        =    112.302632     0.000000     0.000307   112.302939
	   31 B(3,5,9)        =    109.233496    -0.000001     0.013741   109.247237
	   32 B(3,5,10)       =    109.235892    -0.000000    -0.020610   109.215282
	   33 B(4,20,21)      =    110.591609     0.000004     0.017898   110.609507
	   34 B(4,20,22)      =    105.875730    -0.000000    -0.001343   105.874387
	   35 B(4,20,23)      =    110.595036    -0.000003    -0.015859   110.579177
	   36 B(5,3,6)        =    111.246083    -0.000004    -0.153091   111.092992
	   37 B(5,3,7)        =    111.245727     0.000004     0.115053   111.360780
	   38 B(5,8,11)       =    113.002426    -0.000000    -0.001830   113.000596
	   39 B(5,8,12)       =    109.519476    -0.000002    -0.020284   109.499192
	   40 B(5,8,13)       =    109.517575     0.000002     0.020608   109.538184
	   41 B(6,3,7)        =    105.768727     0.000001     0.041527   105.810254
	   42 B(8,5,9)        =    109.872659     0.000003     0.036414   109.909073
	   43 B(8,5,10)       =    109.875948    -0.000003    -0.033564   109.842384
	   44 B(8,11,14)      =    112.978247     0.000000     0.000271   112.978518
	   45 B(8,11,15)      =    109.283996    -0.000001    -0.004415   109.279582
	   46 B(8,11,16)      =    109.280077     0.000001     0.005030   109.285107
	   47 B(9,5,10)       =    106.127500     0.000000     0.003830   106.131330
	   48 B(11,8,12)      =    109.192110     0.000001    -0.003479   109.188631
	   49 B(11,8,13)      =    109.191968    -0.000001     0.002685   109.194653
	   50 B(11,14,17)     =    111.173098     0.000000     0.000609   111.173707
	   51 B(11,14,18)     =    111.221623     0.000001     0.003004   111.224627
	   52 B(11,14,19)     =    111.172733     0.000001     0.002260   111.174993
	   53 B(12,8,13)      =    106.188375     0.000000     0.002570   106.190945
	   54 B(14,11,15)     =    109.404888     0.000000     0.000503   109.405390
	   55 B(14,11,16)     =    109.405236    -0.000000    -0.001809   109.403427
	   56 B(15,11,16)     =    106.266695     0.000000     0.000433   106.267129
	   57 B(17,14,18)     =    107.715552    -0.000000    -0.001195   107.714357
	   58 B(17,14,19)     =    107.666701    -0.000000    -0.002249   107.664451
	   59 B(18,14,19)     =    107.717699    -0.000001    -0.002790   107.714910
	   60 B(21,20,22)     =    110.283428    -0.000001    -0.003466   110.279962
	   61 B(21,20,23)     =    109.185518     0.000000     0.003033   109.188551
	   62 B(22,20,23)     =    110.278519     0.000000    -0.000448   110.278070
	   63 D(1,2,3,5)      =     -3.323256     0.000003     0.326408    -2.996848
	   64 *D(1,2,3,6)     =    120.000013    -0.000000     0.000000   120.000013
	   65 D(1,2,3,7)      =   -126.645959     0.000000     0.054352  -126.591607
	   66 D(1,2,4,20)     =      0.101931    -0.000002    -0.187999    -0.086069
	   67 D(2,3,5,8)      =    179.962516    -0.000002    -0.305624   179.656891
	   68 D(2,3,5,9)      =     57.805153    -0.000003    -0.361826    57.443327
	   69 D(2,3,5,10)     =    -57.874253    -0.000003    -0.362591   -58.236843
	   70 D(2,4,20,21)    =    -60.525365    -0.000000    -0.101984   -60.627350
	   71 D(2,4,20,22)    =   -179.988307    -0.000000    -0.106688  -180.094996
	   72 D(2,4,20,23)    =     60.552778     0.000000    -0.096814    60.455964
	   73 D(3,2,4,20)     =    179.909829    -0.000002    -0.680790   179.229040
	   74 D(3,5,8,11)     =   -179.963859    -0.000000    -0.144489  -180.108348
	   75 D(3,5,8,12)     =    -57.998659    -0.000000    -0.164832   -58.163492
	   76 D(3,5,8,13)     =     58.072497    -0.000000    -0.161560    57.910937
	   77 D(4,2,3,5)      =    176.874468     0.000003     0.833478   177.707945
	   78 D(4,2,3,6)      =    -59.802263    -0.000000     0.507069   -59.295194
	   79 D(4,2,3,7)      =     53.551766     0.000000     0.561421    54.113186
	   80 D(5,8,11,14)    =   -179.949839    -0.000000    -0.169279  -180.119119
	   81 D(5,8,11,15)    =     57.998328    -0.000000    -0.166931    57.831396
	   82 D(5,8,11,16)    =    -57.900380    -0.000000    -0.167794   -58.068174
	   83 D(6,3,5,8)      =     58.784944     0.000002     0.038874    58.823818
	   84 D(6,3,5,9)      =    -63.372419     0.000001    -0.017327   -63.389746
	   85 D(6,3,5,10)     =   -179.051825     0.000001    -0.018092  -179.069917
	   86 D(7,3,5,8)      =    -58.860379     0.000002     0.011599   -58.848780
	   87 D(7,3,5,9)      =    178.982258     0.000001    -0.044602   178.937655
	   88 D(7,3,5,10)     =     63.302853     0.000001    -0.045367    63.257485
	   89 D(8,11,14,17)   =    -59.984421     0.000000     0.046669   -59.937751
	   90 D(8,11,14,18)   =    179.984868     0.000000     0.045754   180.030623
	   91 D(8,11,14,19)   =     59.951684     0.000000     0.045747    59.997432
	   92 D(9,5,8,11)     =    -58.170129     0.000000    -0.100980   -58.271109
	   93 D(9,5,8,12)     =     63.795070    -0.000000    -0.121324    63.673747
	   94 D(9,5,8,13)     =    179.866226     0.000000    -0.118051   179.748176
	   95 D(10,5,8,11)    =     58.237029     0.000000    -0.094687    58.142342
	   96 D(10,5,8,12)    =   -179.797772     0.000000    -0.115030  -179.912802
	   97 D(10,5,8,13)    =    -63.726616     0.000000    -0.111758   -63.838374
	   98 D(12,8,11,14)   =     57.901330     0.000000    -0.139563    57.761766
	   99 D(12,8,11,15)   =    -64.150503     0.000000    -0.137215   -64.287719
	  100 D(12,8,11,16)   =    179.950789     0.000000    -0.138078   179.812711
	  101 D(13,8,11,14)   =    -57.803545     0.000000    -0.142194   -57.945740
	  102 D(13,8,11,15)   =   -179.855378     0.000000    -0.139846  -179.995225
	  103 D(13,8,11,16)   =     64.245914     0.000000    -0.140709    64.105205
	  104 D(15,11,14,17)  =     61.999540    -0.000000     0.041558    62.041098
	  105 D(15,11,14,18)  =    -58.031171    -0.000000     0.040643   -57.990528
	  106 D(15,11,14,19)  =   -178.064355    -0.000000     0.040636  -178.023719
	  107 D(16,11,14,17)  =    178.036391    -0.000000     0.041341   178.077732
	  108 D(16,11,14,18)  =     58.005680    -0.000000     0.040426    58.046106
	  109 D(16,11,14,19)  =    -62.027504    -0.000000     0.040420   -61.987084
	 ---------------------------------------------------------------------------

  ==> Convergence Check <==

  Measures of convergence in internal coordinates in au.
  Criteria marked as inactive (o), active & met (*), and active & unmet ( ).
  --------------------------------------------------------------------------------------------- ~
   Step     Total Energy     Delta E     MAX Force     RMS Force      MAX Disp      RMS Disp    ~
  --------------------------------------------------------------------------------------------- ~
    Convergence Criteria    1.00e-06 *    3.00e-04 *             o    1.20e-03 *             o  ~
  --------------------------------------------------------------------------------------------- ~
      1    -422.97630300   -4.23e+02      1.72e-04 *    5.30e-05 o    1.45e-02      2.77e-03 o  ~
  ---------------------------------------------------------------------------------------------

	Writing optimization data to binary file.
	Structure for next step:
	Cartesian Geometry (in Angstrom)
	    O     1.8469156874   1.2948528929  -0.0513860562
	    C     1.7049781302   0.1160072719   0.0057242888
	    C     0.3818212479  -0.6100810724   0.0072408210
	    O     2.7209241114  -0.7359290297   0.0622229665
	    C    -0.8229837305   0.3259257507  -0.0006624758
	    H     0.3736127704  -1.2655153578  -0.8596837967
	    H     0.3682603080  -1.2651999874   0.8737313436
	    C    -2.1494043012  -0.4353983776  -0.0074213425
	    H    -0.7654461904   0.9758529475  -0.8680173600
	    H    -0.7758342961   0.9763622196   0.8673100128
	    C    -3.3686777103   0.4882535804  -0.0127313075
	    H    -2.1901300820  -1.0869408370  -0.8790818700
	    H    -2.1988487021  -1.0886200588   0.8625378478
	    C    -4.6937286011  -0.2729683869  -0.0224085997
	    H    -3.3207238562   1.1413090882  -0.8812248875
	    H    -3.3312971187   1.1375320938   0.8591327897
	    H    -4.7758961604  -0.9065387660  -0.9011156438
	    H    -5.5385414889   0.4086980194  -0.0265363543
	    H    -4.7869531651  -0.9096359484   0.8529486309
	    C     4.0245266252  -0.1832055305   0.0503870416
	    H     4.1922295393   0.3761652765  -0.8587328705
	    H     4.7011398218  -1.0218538462   0.1036368043
	    H     4.1684276092   0.4685948551   0.9000758303
			--------------------------
			 OPTKING Finished Execution 
			--------------------------

    Structure for next step:
    Molecular point group: c1
    Full point group: C1

    Geometry (in Angstrom), charge = 0, multiplicity = 1:

    O            1.846977229663     1.294803369732    -0.054923417214
    C            1.705039683296     0.115957838723     0.002186923425
    C            0.381882902109    -0.610130450138     0.003703455547
    O            2.720985586923    -0.735978397849     0.058685596874
    C           -0.822921984264     0.325876301536    -0.004199840668
    H            0.373674425193    -1.265564685454    -0.863221095913
    H            0.368321963175    -1.265249315061     0.870193912009
    C           -2.149342453724    -0.435447768611    -0.010958706866
    H           -0.765384448643     0.975803448721    -0.871554658624
    H           -0.775772553558     0.976312720781     0.863772581661
    C           -3.368615769686     0.488204118813    -0.016268671474
    H           -2.190068231448    -1.086990178304    -0.882619167749
    H           -2.198786850861    -1.088669399938     0.859000417007
    C           -4.693666559329    -0.273017790357    -0.025945962864
    H           -3.320661919298     1.141259576696    -0.884762185163
    H           -3.331235180938     1.137482582661     0.855595359144
    H           -4.775834112347    -0.906588121066    -0.904652939874
    H           -5.538479382642     0.408648563855    -0.030073717165
    H           -4.786891116257    -0.909685303255     0.849411200811
    C            4.024588001221    -0.183254940778     0.046849672849
    H            4.192290902486     0.376115823433    -0.862270169864
    H            4.701201146136    -1.021903192508     0.100099431444
    H            4.168488974216     0.468545395029     0.896538396684

gradient() will perform analytic gradient computation.

*** tstart() called on cx1-1-1-1.cx1.hpc.ic.ac.uk
*** at Fri Sep  2 15:24:21 2016


         ---------------------------------------------------------
                                   SCF
            by Justin Turney, Rob Parrish, and Andy Simmonett
                              RHF Reference
                        4 Threads,   2000 MiB Core
         ---------------------------------------------------------

  ==> Geometry <==

    Molecular point group: c1
    Full point group: C1

    Geometry (in Angstrom), charge = 0, multiplicity = 1:

       Center              X                  Y                   Z               Mass       
    ------------   -----------------  -----------------  -----------------  -----------------
           O          1.846977229663     1.294803369732    -0.054923417214    15.994914619560
           C          1.705039683296     0.115957838723     0.002186923425    12.000000000000
           C          0.381882902109    -0.610130450138     0.003703455547    12.000000000000
           O          2.720985586923    -0.735978397849     0.058685596874    15.994914619560
           C         -0.822921984264     0.325876301536    -0.004199840668    12.000000000000
           H          0.373674425193    -1.265564685454    -0.863221095913     1.007825032070
           H          0.368321963175    -1.265249315061     0.870193912009     1.007825032070
           C         -2.149342453724    -0.435447768611    -0.010958706866    12.000000000000
           H         -0.765384448643     0.975803448721    -0.871554658624     1.007825032070
           H         -0.775772553558     0.976312720781     0.863772581661     1.007825032070
           C         -3.368615769686     0.488204118813    -0.016268671474    12.000000000000
           H         -2.190068231448    -1.086990178304    -0.882619167749     1.007825032070
           H         -2.198786850861    -1.088669399938     0.859000417007     1.007825032070
           C         -4.693666559329    -0.273017790357    -0.025945962864    12.000000000000
           H         -3.320661919298     1.141259576696    -0.884762185163     1.007825032070
           H         -3.331235180938     1.137482582661     0.855595359144     1.007825032070
           H         -4.775834112347    -0.906588121066    -0.904652939874     1.007825032070
           H         -5.538479382642     0.408648563855    -0.030073717165     1.007825032070
           H         -4.786891116257    -0.909685303255     0.849411200811     1.007825032070
           C          4.024588001221    -0.183254940778     0.046849672849    12.000000000000
           H          4.192290902486     0.376115823433    -0.862270169864     1.007825032070
           H          4.701201146136    -1.021903192508     0.100099431444     1.007825032070
           H          4.168488974216     0.468545395029     0.896538396684     1.007825032070

  Running in c1 symmetry.

  Rotational constants: A =      0.23905  B =      0.01613  C =      0.01536 [cm^-1]
  Rotational constants: A =   7166.62657  B =    483.45752  C =    460.52760 [MHz]
  Nuclear repulsion =  452.125537095150321

  Charge       = 0
  Multiplicity = 1
  Electrons    = 72
  Nalpha       = 36
  Nbeta        = 36

  ==> Algorithm <==

  SCF Algorithm Type is DF.
  DIIS enabled.
  MOM disabled.
  Fractional occupation disabled.
  Guess Type is READ.
  Energy threshold   = 1.00e-08
  Density threshold  = 1.00e-08
  Integral threshold = 0.00e+00

  ==> Primary Basis <==

  Basis Set: 6-31G*
    Number of shells: 82
    Number of basis function: 163
    Number of Cartesian functions: 163
    Spherical Harmonics?: false
    Max angular momentum: 2

  ==> Pre-Iterations <==

   -------------------------------------------------------
    Irrep   Nso     Nmo     Nalpha   Nbeta   Ndocc  Nsocc
   -------------------------------------------------------
     A        163     163       0       0       0       0
   -------------------------------------------------------
    Total     163     163      36      36      36       0
   -------------------------------------------------------

 OEINTS: Overlap, kinetic, potential, dipole, and quadrupole integrals
         stored in file 35.

  ==> Integral Setup <==

  ==> DFJK: Density-Fitted J/K Matrices <==

    J tasked:                  Yes
    K tasked:                  Yes
    wK tasked:                  No
    OpenMP threads:              4
    Integrals threads:           4
    Memory (MB):              1430
    Algorithm:                Core
    Integral Cache:           NONE
    Schwarz Cutoff:          1E-12
    Fitting Condition:       1E-12

   => Auxiliary Basis Set <=

  Basis Set: 
    Number of shells: 342
    Number of basis function: 1079
    Number of Cartesian functions: 1079
    Spherical Harmonics?: false
    Max angular momentum: 3

  Minimum eigenvalue in the overlap matrix is 2.4323284770E-03.
  Using Symmetric Orthogonalization.
  SCF Guess: Reading in previously saved MOs, projecting if necessary.

  Using orbitals from previous SCF, no projection.
  Recomputing DOCC and SOCC from number of alpha and beta electrons from previous calculation.
              A 
    DOCC [    36 ]

  ==> Iterations <==

                           Total Energy        Delta E     RMS |[F,P]|

   @DF-RHF iter   0:  -422.97605968555968   -4.22976e+02   1.57144e-04 
   @DF-RHF iter   1:  -422.97628397866902   -2.24293e-04   2.41886e-05 
   @DF-RHF iter   2:  -422.97629988930044   -1.59106e-05   8.65194e-06 DIIS
   @DF-RHF iter   3:  -422.97630257473747   -2.68544e-06   1.58339e-06 DIIS
   @DF-RHF iter   4:  -422.97630267891782   -1.04180e-07   8.03762e-07 DIIS
   @DF-RHF iter   5:  -422.97630271328842   -3.43706e-08   4.11035e-07 DIIS
   @DF-RHF iter   6:  -422.97630272158119   -8.29277e-09   1.73022e-07 DIIS
   @DF-RHF iter   7:  -422.97630272322340   -1.64221e-09   4.42633e-08 DIIS
   @DF-RHF iter   8:  -422.97630272329468   -7.12816e-11   1.60677e-08 DIIS
   @DF-RHF iter   9:  -422.97630272330116   -6.48015e-12   4.64418e-09 DIIS

  ==> Post-Iterations <==

    Orbital Energies (a.u.)
    -----------------------

    Doubly Occupied:                                                      

       1A    -20.603647     2A    -20.545430     3A    -11.372265  
       4A    -11.280852     5A    -11.235549     6A    -11.219287  
       7A    -11.217892     8A    -11.216473     9A    -11.209649  
      10A     -1.469330    11A     -1.362775    12A     -1.093222  
      13A     -1.043659    14A     -0.987040    15A     -0.932108  
      16A     -0.843552    17A     -0.795078    18A     -0.767291  
      19A     -0.696850    20A     -0.683870    21A     -0.671504  
      22A     -0.651794    23A     -0.609298    24A     -0.599400  
      25A     -0.572761    26A     -0.558432    27A     -0.556877  
      28A     -0.523799    29A     -0.521161    30A     -0.507723  
      31A     -0.484419    32A     -0.469780    33A     -0.466291  
      34A     -0.461306    35A     -0.455639    36A     -0.435469  

    Virtual:                                                              

      37A      0.199437    38A      0.225923    39A      0.247621  
      40A      0.264853    41A      0.273157    42A      0.277097  
      43A      0.302962    44A      0.313445    45A      0.318933  
      46A      0.323256    47A      0.327911    48A      0.335588  
      49A      0.340930    50A      0.347280    51A      0.358090  
      52A      0.374691    53A      0.393732    54A      0.396056  
      55A      0.435569    56A      0.462437    57A      0.496267  
      58A      0.540811    59A      0.584551    60A      0.695923  
      61A      0.724211    62A      0.726163    63A      0.750067  
      64A      0.757010    65A      0.760764    66A      0.779905  
      67A      0.789400    68A      0.807455    69A      0.837125  
      70A      0.856977    71A      0.872368    72A      0.928905  
      73A      0.945892    74A      0.969643    75A      0.992546  
      76A      1.018857    77A      1.028891    78A      1.033978  
      79A      1.101741    80A      1.106967    81A      1.120375  
      82A      1.121980    83A      1.130728    84A      1.133194  
      85A      1.156506    86A      1.176211    87A      1.186113  
      88A      1.190418    89A      1.206624    90A      1.208254  
      91A      1.214670    92A      1.221702    93A      1.234839  
      94A      1.242593    95A      1.251591    96A      1.273833  
      97A      1.289138    98A      1.302030    99A      1.349017  
     100A      1.380956   101A      1.426382   102A      1.547835  
     103A      1.567107   104A      1.626459   105A      1.658944  
     106A      1.665718   107A      1.724735   108A      1.736425  
     109A      1.795444   110A      1.802226   111A      1.851727  
     112A      1.883363   113A      1.943882   114A      1.979070  
     115A      2.022601   116A      2.043019   117A      2.098427  
     118A      2.139802   119A      2.165097   120A      2.171841  
     121A      2.229199   122A      2.247750   123A      2.254321  
     124A      2.279047   125A      2.315751   126A      2.319344  
     127A      2.327711   128A      2.359762   129A      2.387651  
     130A      2.402973   131A      2.405845   132A      2.448170  
     133A      2.484863   134A      2.559805   135A      2.572994  
     136A      2.617716   137A      2.646420   138A      2.666523  
     139A      2.699054   140A      2.720368   141A      2.750434  
     142A      2.773882   143A      2.827100   144A      2.842241  
     145A      2.913771   146A      2.946444   147A      2.982551  
     148A      3.066860   149A      3.094543   150A      3.139485  
     151A      3.181846   152A      3.349654   153A      3.453751  
     154A      3.582816   155A      4.415378   156A      4.548932  
     157A      4.609546   158A      4.643776   159A      4.709399  
     160A      4.762616   161A      4.832117   162A      4.910351  
     163A      5.030794  

    Final Occupation by Irrep:
              A 
    DOCC [    36 ]

  Energy converged.

  @DF-RHF Final Energy:  -422.97630272330116

   => Energetics <=

    Nuclear Repulsion Energy =            452.1255370951503210
    One-Electron Energy =               -1471.9607357207567020
    Two-Electron Energy =                 596.8588959023052212
    DFT Exchange-Correlation Energy =       0.0000000000000000
    Empirical Dispersion Energy =           0.0000000000000000
    PCM Polarization Energy =               0.0000000000000000
    EFP Energy =                            0.0000000000000000
    Total Energy =                       -422.9763027233011599

    Alert: EFP and PCM quantities not currently incorporated into SCF psivars.

Properties will be evaluated at   0.000000,   0.000000,   0.000000 Bohr
  ==> Properties <==


Properties computed using the SCF density matrix

  Nuclear Dipole Moment: (a.u.)
     X:   -12.9893      Y:    -1.9290      Z:    -0.0042

  Electronic Dipole Moment: (a.u.)
     X:    13.0968      Y:     1.2548      Z:     0.0340

  Dipole Moment: (a.u.)
     X:     0.1075      Y:    -0.6741      Z:     0.0298     Total:     0.6833

  Dipole Moment: (Debye)
     X:     0.2732      Y:    -1.7135      Z:     0.0758     Total:     1.7368


  Saving occupied orbitals to File 180.

*** tstop() called on cx1-1-1-1.cx1.hpc.ic.ac.uk at Fri Sep  2 15:24:29 2016
Module time:
	user time   =      22.88 seconds =       0.38 minutes
	system time =       0.27 seconds =       0.00 minutes
	total time  =          8 seconds =       0.13 minutes
Total time:
	user time   =      85.45 seconds =       1.42 minutes
	system time =       0.96 seconds =       0.02 minutes
	total time  =         28 seconds =       0.47 minutes

*** tstart() called on cx1-1-1-1.cx1.hpc.ic.ac.uk
*** at Fri Sep  2 15:24:29 2016


         ------------------------------------------------------------
                                   SCF GRAD                          
                          Rob Parrish, Justin Turney,                
                       Andy Simmonett, and Alex Sokolov              
         ------------------------------------------------------------

  ==> Geometry <==

    Molecular point group: c1
    Full point group: C1

    Geometry (in Angstrom), charge = 0, multiplicity = 1:

       Center              X                  Y                   Z               Mass       
    ------------   -----------------  -----------------  -----------------  -----------------
           O          1.846977229663     1.294803369732    -0.054923417214    15.994914619560
           C          1.705039683296     0.115957838723     0.002186923425    12.000000000000
           C          0.381882902109    -0.610130450138     0.003703455547    12.000000000000
           O          2.720985586923    -0.735978397849     0.058685596874    15.994914619560
           C         -0.822921984264     0.325876301536    -0.004199840668    12.000000000000
           H          0.373674425193    -1.265564685454    -0.863221095913     1.007825032070
           H          0.368321963175    -1.265249315061     0.870193912009     1.007825032070
           C         -2.149342453724    -0.435447768611    -0.010958706866    12.000000000000
           H         -0.765384448643     0.975803448721    -0.871554658624     1.007825032070
           H         -0.775772553558     0.976312720781     0.863772581661     1.007825032070
           C         -3.368615769686     0.488204118813    -0.016268671474    12.000000000000
           H         -2.190068231448    -1.086990178304    -0.882619167749     1.007825032070
           H         -2.198786850861    -1.088669399938     0.859000417007     1.007825032070
           C         -4.693666559329    -0.273017790357    -0.025945962864    12.000000000000
           H         -3.320661919298     1.141259576696    -0.884762185163     1.007825032070
           H         -3.331235180938     1.137482582661     0.855595359144     1.007825032070
           H         -4.775834112347    -0.906588121066    -0.904652939874     1.007825032070
           H         -5.538479382642     0.408648563855    -0.030073717165     1.007825032070
           H         -4.786891116257    -0.909685303255     0.849411200811     1.007825032070
           C          4.024588001221    -0.183254940778     0.046849672849    12.000000000000
           H          4.192290902486     0.376115823433    -0.862270169864     1.007825032070
           H          4.701201146136    -1.021903192508     0.100099431444     1.007825032070
           H          4.168488974216     0.468545395029     0.896538396684     1.007825032070

  Nuclear repulsion =  452.125537095150321

  ==> Basis Set <==

  Basis Set: 6-31G*
    Number of shells: 82
    Number of basis function: 163
    Number of Cartesian functions: 163
    Spherical Harmonics?: false
    Max angular momentum: 2

  ==> DFJKGrad: Density-Fitted SCF Gradients <==

    Gradient:                    1
    J tasked:                  Yes
    K tasked:                  Yes
    wK tasked:                  No
    OpenMP threads:              4
    Integrals threads:           4
    Memory (MB):              1430
    Schwarz Cutoff:          0E+00
    Fitting Condition:       1E-12

   => Auxiliary Basis Set <=

  Basis Set: 
    Number of shells: 342
    Number of basis function: 1079
    Number of Cartesian functions: 1079
    Spherical Harmonics?: false
    Max angular momentum: 3


  -Total Gradient:
     Atom            X                  Y                   Z
    ------   -----------------  -----------------  -----------------
       1        0.000008437965    -0.000025004975    -0.000555405633
       2       -0.000055110599     0.000087614319     0.001387612996
       3        0.000058123988    -0.000105620505    -0.000286589246
       4        0.000018819928    -0.000014092468    -0.000262097215
       5        0.000022184243    -0.000013270584    -0.000170225925
       6       -0.000139920650     0.000105340397    -0.000041854496
       7        0.000081384819    -0.000029416707     0.000032617291
       8       -0.000001539826    -0.000002479061     0.000014784064
       9       -0.000024875220     0.000054055658    -0.000017634392
      10        0.000030973234    -0.000052378576    -0.000008069692
      11        0.000001142038     0.000001073915     0.000011833034
      12        0.000004371234     0.000012210795     0.000004751817
      13       -0.000004013461    -0.000010212543     0.000006254862
      14       -0.000001510189    -0.000002459273    -0.000006250828
      15        0.000004406911     0.000000928694     0.000005515980
      16       -0.000002650599    -0.000000667302     0.000003919418
      17       -0.000000098673    -0.000003258491     0.000000034295
      18        0.000001031941    -0.000001072140    -0.000003933815
      19       -0.000000600709     0.000004885231    -0.000000718269
      20       -0.000004507877    -0.000011384634    -0.000173541035
      21        0.000042493497     0.000001547151     0.000024513092
      22        0.000000500986    -0.000001041693     0.000011136255
      23       -0.000039042974     0.000004702792     0.000023347443


*** tstop() called on cx1-1-1-1.cx1.hpc.ic.ac.uk at Fri Sep  2 15:24:38 2016
Module time:
	user time   =      33.80 seconds =       0.56 minutes
	system time =       0.30 seconds =       0.01 minutes
	total time  =          9 seconds =       0.15 minutes
Total time:
	user time   =     119.26 seconds =       1.99 minutes
	system time =       1.26 seconds =       0.02 minutes
	total time  =         37 seconds =       0.62 minutes
CURRENT ENERGY: -422.9763027233

			-----------------------------------------
			 OPTKING 2.0: for geometry optimizations 
			  - R.A. King,  Bethel University        
			-----------------------------------------

	Previous internal coordinate definitions found.
	---Fragment 1 Geometry and Gradient---
	 O           3.4902811377        2.4468237647       -0.1037902168
	 C           3.2220580471        0.2191285581        0.0041326863
	 C           0.7216540998       -1.1529794561        0.0069985167
	 O           5.1419175708       -1.3907976117        0.1108997060
	 C          -1.5550971790        0.6158169631       -0.0079365487
	 H           0.7061423265       -2.3915706590       -1.6312514634
	 H           0.6960276391       -2.3909746953        1.6444281762
	 C          -4.0616686033       -0.8228770279       -0.0207089547
	 H          -1.4463669943        1.8440012776       -1.6469996146
	 H          -1.4659976676        1.8449636623        1.6322936204
	 C          -6.3657612516        0.9225720815       -0.0307433336
	 H          -4.1386291698       -2.0541137461       -1.6679085067
	 H          -4.1551049727       -2.0572870151        1.6232755362
	 C          -8.8697443562       -0.5159288532       -0.0490307641
	 H          -6.2751416074        2.1566680465       -1.6719582227
	 H          -6.2951221762        2.1495305622        1.6168409093
	 H          -9.0250185284       -1.7132032641       -1.7095463017
	 H         -10.4662092258        0.7722338703       -0.0568310892
	 H          -9.0459132377       -1.7190560903        1.6051545437
	 C           7.6053691200       -0.3463016506        0.0885330511
	 H           7.9222816751        0.7107559005       -1.6294544736
	 H           8.8839826618       -1.9311171682        0.1891605115
	 H           7.8773025492        0.8854224774        1.6942120373
	             0.0000084380       -0.0000250050       -0.0005554056
	            -0.0000551106        0.0000876143        0.0013876130
	             0.0000581240       -0.0001056205       -0.0002865892
	             0.0000188199       -0.0000140925       -0.0002620972
	             0.0000221842       -0.0000132706       -0.0001702259
	            -0.0001399207        0.0001053404       -0.0000418545
	             0.0000813848       -0.0000294167        0.0000326173
	            -0.0000015398       -0.0000024791        0.0000147841
	            -0.0000248752        0.0000540557       -0.0000176344
	             0.0000309732       -0.0000523786       -0.0000080697
	             0.0000011420        0.0000010739        0.0000118330
	             0.0000043712        0.0000122108        0.0000047518
	            -0.0000040135       -0.0000102125        0.0000062549
	            -0.0000015102       -0.0000024593       -0.0000062508
	             0.0000044069        0.0000009287        0.0000055160
	            -0.0000026506       -0.0000006673        0.0000039194
	            -0.0000000987       -0.0000032585        0.0000000343
	             0.0000010319       -0.0000010721       -0.0000039338
	            -0.0000006007        0.0000048852       -0.0000007183
	            -0.0000045079       -0.0000113846       -0.0001735410
	             0.0000424935        0.0000015472        0.0000245131
	             0.0000005010       -0.0000010417        0.0000111363
	            -0.0000390430        0.0000047028        0.0000233474

	---Fragment 1 Intrafragment Coordinates---
	 - Coordinate -           - BOHR/RAD -       - ANG/DEG -
	 R(1,2)           =         2.246379	       1.188732
	 R(2,3)           =         2.852141	       1.509288
	 R(2,4)           =         2.507812	       1.327077
	 R(3,5)           =         2.883134	       1.525689
	 R(3,6)           =         2.053829	       1.086839
	 R(3,7)           =         2.052916	       1.086357
	 R(4,20)          =         2.675830	       1.415988
	 R(5,8)           =         2.890139	       1.529396
	 R(5,9)           =         2.051045	       1.085366
	 R(5,10)          =         2.051608	       1.085664
	 R(8,11)          =         2.890594	       1.529637
	 R(8,12)          =         2.057944	       1.089017
	 R(8,13)          =         2.057956	       1.089024
	 R(11,14)         =         2.887828	       1.528173
	 R(11,15)         =         2.055430	       1.087687
	 R(11,16)         =         2.055469	       1.087707
	 R(14,17)         =         2.053019	       1.086411
	 R(14,18)         =         2.051371	       1.085539
	 R(14,19)         =         2.053017	       1.086410
	 R(20,21)         =         2.041883	       1.080518
	 R(20,22)         =         2.038779	       1.078875
	 R(20,23)         =         2.041886	       1.080519
	 B(1,2,3)         =         2.191742	     125.577551
	 B(1,2,4)         =         2.149885	     123.179360
	 B(2,3,5)         =         1.979202	     113.399901
	 B(2,3,6)         =         1.871238	     107.214033
	 B(2,3,7)         =         1.877436	     107.569145
	 B(2,4,20)        =         2.041874	     116.990780
	 B(3,2,4)         =         1.941490	     111.239163
	 B(3,5,8)         =         1.960056	     112.302939
	 B(3,5,9)         =         1.906724	     109.247237
	 B(3,5,10)        =         1.906166	     109.215282
	 B(4,20,21)       =         1.930500	     110.609507
	 B(4,20,22)       =         1.847857	     105.874387
	 B(4,20,23)       =         1.929971	     110.579177
	 B(5,3,6)         =         1.938938	     111.092992
	 B(5,3,7)         =         1.943612	     111.360780
	 B(5,8,11)        =         1.972232	     113.000596
	 B(5,8,12)        =         1.911121	     109.499192
	 B(5,8,13)        =         1.911802	     109.538184
	 B(6,3,7)         =         1.846737	     105.810254
	 B(8,5,9)         =         1.918275	     109.909073
	 B(8,5,10)        =         1.917111	     109.842384
	 B(8,11,14)       =         1.971847	     112.978518
	 B(8,11,15)       =         1.907289	     109.279582
	 B(8,11,16)       =         1.907385	     109.285107
	 B(9,5,10)        =         1.852341	     106.131330
	 B(11,8,12)       =         1.905701	     109.188631
	 B(11,8,13)       =         1.905806	     109.194653
	 B(11,14,17)      =         1.940347	     111.173707
	 B(11,14,18)      =         1.941236	     111.224627
	 B(11,14,19)      =         1.940370	     111.174993
	 B(12,8,13)       =         1.853382	     106.190945
	 B(14,11,15)      =         1.909484	     109.405390
	 B(14,11,16)      =         1.909450	     109.403427
	 B(15,11,16)      =         1.854711	     106.267129
	 B(17,14,18)      =         1.879970	     107.714357
	 B(17,14,19)      =         1.879099	     107.664451
	 B(18,14,19)      =         1.879980	     107.714910
	 B(21,20,22)      =         1.924748	     110.279962
	 B(21,20,23)      =         1.905700	     109.188551
	 B(22,20,23)      =         1.924715	     110.278070
	 D(1,2,3,5)       =        -0.052305	      -2.996848
	*D(1,2,3,6)       =         2.094395	     120.000013
	 D(1,2,3,7)       =        -2.209440	    -126.591607
	 D(1,2,4,20)      =        -0.001502	      -0.086069
	 D(2,3,5,8)       =         3.135604	     179.656891
	 D(2,3,5,9)       =         1.002575	      57.443327
	 D(2,3,5,10)      =        -1.016425	     -58.236843
	 D(2,4,20,21)     =        -1.058147	     -60.627350
	 D(2,4,20,22)     =         3.139935	     179.905004
	 D(2,4,20,23)     =         1.055156	      60.455964
	 D(3,2,4,20)      =         3.128137	     179.229040
	 D(3,5,8,11)      =         3.139702	     179.891652
	 D(3,5,8,12)      =        -1.015144	     -58.163492
	 D(3,5,8,13)      =         1.010737	      57.910937
	 D(4,2,3,5)       =         3.101589	     177.707945
	 D(4,2,3,6)       =        -1.034896	     -59.295194
	 D(4,2,3,7)       =         0.944453	      54.113186
	 D(5,8,11,14)     =         3.139514	     179.880881
	 D(5,8,11,15)     =         1.009348	      57.831396
	 D(5,8,11,16)     =        -1.013481	     -58.068174
	 D(6,3,5,8)       =         1.026669	      58.823818
	 D(6,3,5,9)       =        -1.106360	     -63.389746
	 D(6,3,5,10)      =        -3.125360	    -179.069917
	 D(7,3,5,8)       =        -1.027105	     -58.848780
	 D(7,3,5,9)       =         3.123051	     178.937655
	 D(7,3,5,10)      =         1.104051	      63.257485
	 D(8,11,14,17)    =        -1.046111	     -59.937751
	 D(8,11,14,18)    =        -3.141058	    -179.969377
	 D(8,11,14,19)    =         1.047153	      59.997432
	 D(9,5,8,11)      =        -1.017023	     -58.271109
	 D(9,5,8,12)      =         1.111317	      63.673747
	 D(9,5,8,13)      =         3.137197	     179.748176
	 D(10,5,8,11)     =         1.014775	      58.142342
	 D(10,5,8,12)     =        -3.140071	    -179.912802
	 D(10,5,8,13)     =        -1.114190	     -63.838374
	 D(12,8,11,14)    =         1.008133	      57.761766
	 D(12,8,11,15)    =        -1.122032	     -64.287719
	 D(12,8,11,16)    =         3.138324	     179.812711
	 D(13,8,11,14)    =        -1.011344	     -57.945740
	 D(13,8,11,15)    =        -3.141509	    -179.995225
	 D(13,8,11,16)    =         1.118847	      64.105205
	 D(15,11,14,17)   =         1.082821	      62.041098
	 D(15,11,14,18)   =        -1.012126	     -57.990528
	 D(15,11,14,19)   =        -3.107100	    -178.023719
	 D(16,11,14,17)   =         3.108043	     178.077732
	 D(16,11,14,18)   =         1.013096	      58.046106
	 D(16,11,14,19)   =        -1.081879	     -61.987084

	Current energy   :      -422.9763027233

	Energy change for the previous step:
		Projected    :        -0.0000115171
		Actual       :         0.0000002788

	Performing BFGS update.
	Previous computed or guess Hessian on step 1.
	Steps to be used in Hessian update: 1
	Taking RFO optimization step.
	Going to follow RFO solution 1.
	Using RFO vector 1.
	Norm of target step-size    0.03114
	Projected energy change by RFO approximation:        -0.0000254384

	Back-transformation to cartesian coordinates...
	Successfully converged to displaced geometry.

	Back-transformation to cartesian coordinates to adjust frozen coordinates...
	Successfully converged to displaced geometry.

	--- Internal Coordinate Step in ANG or DEG, aJ/ANG or AJ/DEG ---
	 ---------------------------------------------------------------------------
	   Coordinate                Previous        Force       Change         New 
	   ----------                --------       ------       ------       ------
	    1 R(1,2)          =      1.188732    -0.000024    -0.000014     1.188718
	    2 R(2,3)          =      1.509288     0.000041     0.000031     1.509319
	    3 R(2,4)          =      1.327077    -0.000090    -0.000005     1.327072
	    4 R(3,5)          =      1.525689     0.000245     0.000052     1.525741
	    5 R(3,6)          =      1.086839     0.000240     0.000249     1.087089
	    6 R(3,7)          =      1.086357    -0.000352    -0.000279     1.086078
	    7 R(4,20)         =      1.415988     0.000016     0.000025     1.416013
	    8 R(5,8)          =      1.529396     0.000001    -0.000003     1.529393
	    9 R(5,9)          =      1.085366    -0.000372    -0.000109     1.085258
	   10 R(5,10)         =      1.085664     0.000301     0.000188     1.085852
	   11 R(8,11)         =      1.529637     0.000014    -0.000021     1.529616
	   12 R(8,12)         =      1.089017     0.000093    -0.000009     1.089008
	   13 R(8,13)         =      1.089024    -0.000093     0.000032     1.089056
	   14 R(11,14)        =      1.528173    -0.000017     0.000018     1.528191
	   15 R(11,15)        =      1.087687     0.000030    -0.000033     1.087654
	   16 R(11,16)        =      1.087707    -0.000022    -0.000016     1.087691
	   17 R(14,17)        =      1.086411    -0.000015     0.000032     1.086443
	   18 R(14,18)        =      1.085539     0.000012    -0.000024     1.085515
	   19 R(14,19)        =      1.086410     0.000028    -0.000008     1.086402
	   20 R(20,21)        =      1.080518     0.000109     0.000005     1.080523
	   21 R(20,22)        =      1.078875    -0.000014     0.000043     1.078918
	   22 R(20,23)        =      1.080519    -0.000132    -0.000004     1.080515
	   23 B(1,2,3)        =    125.577551     0.000001    -0.009063   125.568488
	   24 B(1,2,4)        =    123.179360    -0.000000     0.005977   123.185337
	   25 B(2,3,5)        =    113.399901    -0.000001    -0.021259   113.378641
	   26 B(2,3,6)        =    107.214033    -0.000004    -0.187670   107.026363
	   27 B(2,3,7)        =    107.569145     0.000008     0.208387   107.777532
	   28 B(2,4,20)       =    116.990780    -0.000000    -0.001080   116.989701
	   29 B(3,2,4)        =    111.239163    -0.000000     0.006529   111.245692
	   30 B(3,5,8)        =    112.302939    -0.000000     0.000264   112.303203
	   31 B(3,5,9)        =    109.247237    -0.000003    -0.005601   109.241636
	   32 B(3,5,10)       =    109.215282     0.000004     0.000302   109.215585
	   33 B(4,20,21)      =    110.609507    -0.000007     0.000631   110.610138
	   34 B(4,20,22)      =    105.874387     0.000000    -0.001010   105.873377
	   35 B(4,20,23)      =    110.579177     0.000006     0.000346   110.579523
	   36 B(5,3,6)        =    111.092992    -0.000001    -0.160448   110.932544
	   37 B(5,3,7)        =    111.360780    -0.000008     0.091993   111.452772
	   38 B(5,8,11)       =    113.000596     0.000000    -0.001598   112.998998
	   39 B(5,8,12)       =    109.499192     0.000001    -0.015337   109.483855
	   40 B(5,8,13)       =    109.538184    -0.000001     0.015798   109.553982
	   41 B(6,3,7)        =    105.810254     0.000006     0.074781   105.885036
	   42 B(8,5,9)        =    109.909073     0.000001     0.030046   109.939119
	   43 B(8,5,10)       =    109.842384    -0.000001    -0.028124   109.814259
	   44 B(8,11,14)      =    112.978518     0.000000     0.000363   112.978881
	   45 B(8,11,15)      =    109.279582     0.000000    -0.001960   109.277622
	   46 B(8,11,16)      =    109.285107    -0.000000     0.002796   109.287903
	   47 B(9,5,10)       =    106.131330    -0.000000     0.003208   106.134538
	   48 B(11,8,12)      =    109.188631    -0.000000    -0.002469   109.186163
	   49 B(11,8,13)      =    109.194653     0.000000     0.001716   109.196368
	   50 B(11,14,17)     =    111.173707    -0.000000     0.000267   111.173974
	   51 B(11,14,18)     =    111.224627    -0.000000     0.002991   111.227618
	   52 B(11,14,19)     =    111.174993     0.000000     0.002402   111.177395
	   53 B(12,8,13)      =    106.190945    -0.000000     0.002111   106.193056
	   54 B(14,11,15)     =    109.405390    -0.000000     0.001711   109.407101
	   55 B(14,11,16)     =    109.403427    -0.000000    -0.003478   109.399948
	   56 B(15,11,16)     =    106.267129     0.000000     0.000586   106.267715
	   57 B(17,14,18)     =    107.714357     0.000000    -0.000927   107.713430
	   58 B(17,14,19)     =    107.664451    -0.000000    -0.002329   107.662123
	   59 B(18,14,19)     =    107.714910    -0.000000    -0.002754   107.712156
	   60 B(21,20,22)     =    110.279962     0.000001    -0.004268   110.275694
	   61 B(21,20,23)     =    109.188551     0.000000     0.003430   109.191981
	   62 B(22,20,23)     =    110.278070    -0.000001     0.000677   110.278748
	   63 D(1,2,3,5)      =     -2.996848     0.000001     0.350789    -2.646059
	   64 *D(1,2,3,6)     =    120.000013    -0.000000     0.000000   120.000013
	   65 D(1,2,3,7)      =   -126.591607     0.000002     0.094635  -126.496972
	   66 D(1,2,4,20)     =     -0.086069    -0.000001    -0.751711    -0.837780
	   67 D(2,3,5,8)      =    179.656891    -0.000001    -0.285987   179.370904
	   68 D(2,3,5,9)      =     57.443327    -0.000001    -0.320446    57.122882
	   69 D(2,3,5,10)     =    -58.236843    -0.000001    -0.321343   -58.558186
	   70 D(2,4,20,21)    =    -60.627350    -0.000000     0.009089   -60.618261
	   71 D(2,4,20,22)    =    179.905004     0.000001     0.014454   179.919458
	   72 D(2,4,20,23)    =     60.455964    -0.000000     0.014055    60.470019
	   73 D(3,2,4,20)     =    179.229040     0.000004     0.173618   179.402657
	   74 D(3,5,8,11)     =    179.891652     0.000001    -0.041547   179.850106
	   75 D(3,5,8,12)     =    -58.163492     0.000001    -0.056858   -58.220349
	   76 D(3,5,8,13)     =     57.910937     0.000001    -0.054065    57.856872
	   77 D(4,2,3,5)      =    177.707945    -0.000005    -0.601383   177.106562
	   78 D(4,2,3,6)      =    -59.295194    -0.000006    -0.952172   -60.247366
	   79 D(4,2,3,7)      =     54.113186    -0.000003    -0.857537    53.255649
	   80 D(5,8,11,14)    =    179.880881     0.000000    -0.045010   179.835872
	   81 D(5,8,11,15)    =     57.831396     0.000000    -0.046037    57.785360
	   82 D(5,8,11,16)    =    -58.068174     0.000000    -0.047206   -58.115380
	   83 D(6,3,5,8)      =     58.823818     0.000000     0.089442    58.913260
	   84 D(6,3,5,9)      =    -63.389746     0.000001     0.054984   -63.334762
	   85 D(6,3,5,10)     =   -179.069917     0.000001     0.054087  -179.015830
	   86 D(7,3,5,8)      =    -58.848780    -0.000000     0.040509   -58.808271
	   87 D(7,3,5,9)      =    178.937655     0.000000     0.006051   178.943707
	   88 D(7,3,5,10)     =     63.257485     0.000000     0.005154    63.262639
	   89 D(8,11,14,17)   =    -59.937751    -0.000000    -0.004634   -59.942385
	   90 D(8,11,14,18)   =   -179.969377    -0.000000    -0.005650  -179.975028
	   91 D(8,11,14,19)   =     59.997432    -0.000000    -0.005790    59.991642
	   92 D(9,5,8,11)     =    -58.271109    -0.000000    -0.027251   -58.298360
	   93 D(9,5,8,12)     =     63.673747    -0.000000    -0.042562    63.631185
	   94 D(9,5,8,13)     =    179.748176    -0.000000    -0.039770   179.708406
	   95 D(10,5,8,11)    =     58.142342    -0.000000    -0.022273    58.120068
	   96 D(10,5,8,12)    =   -179.912802    -0.000000    -0.037585  -179.950387
	   97 D(10,5,8,13)    =    -63.838374    -0.000000    -0.034792   -63.873166
	   98 D(12,8,11,14)   =     57.761766     0.000000    -0.022517    57.739249
	   99 D(12,8,11,15)   =    -64.287719    -0.000000    -0.023544   -64.311263
	  100 D(12,8,11,16)   =    179.812711    -0.000000    -0.024714   179.787997
	  101 D(13,8,11,14)   =    -57.945740     0.000000    -0.024623   -57.970362
	  102 D(13,8,11,15)   =   -179.995225     0.000000    -0.025650  -180.020875
	  103 D(13,8,11,16)   =     64.105205    -0.000000    -0.026820    64.078386
[...]
	 B(21,20,22)      =         1.924740	     110.279469
	 B(21,20,23)      =         1.905717	     109.189529
	 B(22,20,23)      =         1.924734	     110.279107
	 D(1,2,3,5)       =        -0.052981	      -3.035576
	*D(1,2,3,6)       =         2.094395	     120.000013
	 D(1,2,3,7)       =        -2.209385	    -126.588408
	 D(1,2,4,20)      =        -0.002520	      -0.144360
	 D(2,3,5,8)       =         3.137081	     179.741528
	 D(2,3,5,9)       =         1.004450	      57.550741
	 D(2,3,5,10)      =        -1.014560	     -58.130020
	 D(2,4,20,21)     =        -1.056388	     -60.526587
	 D(2,4,20,22)     =        -3.141384	    -179.988034
	 D(2,4,20,23)     =         1.056915	      60.556773
	 D(3,2,4,20)      =         3.134222	     179.577689
	 D(3,5,8,11)      =         3.141053	     179.969093
	 D(3,5,8,12)      =        -1.013663	     -58.078622
	 D(3,5,8,13)      =         1.012207	      57.995161
	 D(4,2,3,5)       =         3.093604	     177.250458
	 D(4,2,3,6)       =        -1.042205	     -59.713954
	 D(4,2,3,7)       =         0.937200	      53.697625
	 D(5,8,11,14)     =         3.140058	     179.912057
	 D(5,8,11,15)     =         1.009898	      57.862879
	 D(5,8,11,16)     =        -1.012943	     -58.037341
	 D(6,3,5,8)       =         1.027569	      58.875355
	 D(6,3,5,9)       =        -1.105063	     -63.315431
	 D(6,3,5,10)      =        -3.124073	    -178.996192
	 D(7,3,5,8)       =        -1.026240	     -58.799246
	 D(7,3,5,9)       =         3.124313	     179.009967
	 D(7,3,5,10)      =         1.105303	      63.329206
	 D(8,11,14,17)    =        -1.046083	     -59.936127
	 D(8,11,14,18)    =        -3.141040	    -179.968322
	 D(8,11,14,19)    =         1.047174	      59.998648
	 D(9,5,8,11)      =        -1.016253	     -58.227025
	 D(9,5,8,12)      =         1.112216	      63.725260
	 D(9,5,8,13)      =         3.138085	     179.799043
	 D(10,5,8,11)     =         1.015527	      58.185431
	 D(10,5,8,12)     =        -3.139189	    -179.862284
	 D(10,5,8,13)     =        -1.113319	     -63.788501
	 D(12,8,11,14)    =         1.008484	      57.781853
	 D(12,8,11,15)    =        -1.121676	     -64.267325
	 D(12,8,11,16)    =         3.138668	     179.832455
	 D(13,8,11,14)    =        -1.010977	     -57.924720
	 D(13,8,11,15)    =        -3.141137	    -179.973898
	 D(13,8,11,16)    =         1.119208	      64.125882
	 D(15,11,14,17)   =         1.082857	      62.043161
	 D(15,11,14,18)   =        -1.012100	     -57.989034
	 D(15,11,14,19)   =        -3.107071	    -178.022064
	 D(16,11,14,17)   =         3.108078	     178.079731
	 D(16,11,14,18)   =         1.013121	      58.047537
	 D(16,11,14,19)   =        -1.081851	     -61.985494

	Current energy   :      -422.9763064641

	Energy change for the previous step:
		Projected    :        -0.0000003590
		Actual       :        -0.0000000332
	Energy ratio indicates iffy step: Trust radius decreased to 1.250e-01.


	Performing BFGS update.
	Previous computed or guess Hessian on step 1.
	Steps to be used in Hessian update: 4 3
	Taking RFO optimization step.
	Going to follow RFO solution 1.
	Using RFO vector 1.
	Norm of target step-size    0.00585
	Projected energy change by RFO approximation:        -0.0000001570

	Back-transformation to cartesian coordinates...
	Successfully converged to displaced geometry.

	Back-transformation to cartesian coordinates to adjust frozen coordinates...
	Successfully converged to displaced geometry.

	--- Internal Coordinate Step in ANG or DEG, aJ/ANG or AJ/DEG ---
	 ---------------------------------------------------------------------------
	   Coordinate                Previous        Force       Change         New 
	   ----------                --------       ------       ------       ------
	    1 R(1,2)          =      1.188731     0.000003     0.000000     1.188731
	    2 R(2,3)          =      1.509296     0.000011     0.000001     1.509297
	    3 R(2,4)          =      1.327063    -0.000001    -0.000002     1.327062
	    4 R(3,5)          =      1.525739    -0.000004     0.000002     1.525740
	    5 R(3,6)          =      1.086922    -0.000016     0.000002     1.086924
	    6 R(3,7)          =      1.086251     0.000020    -0.000003     1.086247
	    7 R(4,20)         =      1.415993     0.000016     0.000002     1.415995
	    8 R(5,8)          =      1.529394    -0.000000    -0.000000     1.529394
	    9 R(5,9)          =      1.085323    -0.000003    -0.000001     1.085323
	   10 R(5,10)         =      1.085695     0.000010    -0.000000     1.085695
	   11 R(8,11)         =      1.529639     0.000000     0.000000     1.529639
	   12 R(8,12)         =      1.089030    -0.000011    -0.000001     1.089029
	   13 R(8,13)         =      1.089010     0.000012     0.000000     1.089011
	   14 R(11,14)        =      1.528169     0.000004     0.000000     1.528170
	   15 R(11,15)        =      1.087689     0.000010     0.000001     1.087690
	   16 R(11,16)        =      1.087707    -0.000014    -0.000001     1.087706
	   17 R(14,17)        =      1.086410    -0.000010    -0.000001     1.086409
	   18 R(14,18)        =      1.085541    -0.000002     0.000000     1.085541
	   19 R(14,19)        =      1.086413     0.000012     0.000001     1.086414
	   20 R(20,21)        =      1.080525     0.000017     0.000000     1.080526
	   21 R(20,22)        =      1.078872     0.000004    -0.000000     1.078872
	   22 R(20,23)        =      1.080507    -0.000018    -0.000001     1.080506
	   23 B(1,2,3)        =    125.580051    -0.000000    -0.000038   125.580013
	   24 B(1,2,4)        =    123.180234    -0.000000    -0.000016   123.180218
	   25 B(2,3,5)        =    113.401893    -0.000000    -0.000087   113.401807
	   26 B(2,3,6)        =    107.225369    -0.000000    -0.000244   107.225125
	   27 B(2,3,7)        =    107.556367     0.000000     0.000400   107.556767
	   28 B(2,4,20)       =    116.990071     0.000000     0.000075   116.990146
	   29 B(3,2,4)        =    111.239068     0.000000     0.000060   111.239128
	   30 B(3,5,8)        =    112.301776     0.000000    -0.000149   112.301627
	   31 B(3,5,9)        =    109.224279     0.000000     0.000038   109.224316
	   32 B(3,5,10)       =    109.240561    -0.000000    -0.000232   109.240329
	   33 B(4,20,21)      =    110.598851    -0.000001    -0.001554   110.597297
	   34 B(4,20,22)      =    105.874614     0.000000     0.000003   105.874617
	   35 B(4,20,23)      =    110.588050     0.000001     0.001357   110.589407
	   36 B(5,3,6)        =    111.116075    -0.000000    -0.000852   111.115223
	   37 B(5,3,7)        =    111.334219     0.000000     0.000632   111.334851
	   38 B(5,8,11)       =    113.000672     0.000000     0.000058   113.000730
	   39 B(5,8,12)       =    109.507070     0.000000     0.001127   109.508196
	   40 B(5,8,13)       =    109.530907    -0.000000    -0.001153   109.529754
	   41 B(6,3,7)        =    105.813584    -0.000000     0.000172   105.813757
	   42 B(8,5,9)        =    109.904495    -0.000000    -0.000441   109.904054
	   43 B(8,5,10)       =    109.846465     0.000000     0.000698   109.847163
	   44 B(8,11,14)      =    112.978546     0.000000     0.000044   112.978590
	   45 B(8,11,15)      =    109.280269     0.000000     0.001687   109.281956
	   46 B(8,11,16)      =    109.284890    -0.000000    -0.001704   109.283186
	   47 B(9,5,10)       =    106.130746     0.000000     0.000099   106.130844
	   48 B(11,8,12)      =    109.189954    -0.000000     0.000314   109.190268
	   49 B(11,8,13)      =    109.193420    -0.000000    -0.000331   109.193090
	   50 B(11,14,17)     =    111.174286    -0.000000    -0.000606   111.173679
	   51 B(11,14,18)     =    111.224552     0.000000     0.000020   111.224572
	   52 B(11,14,19)     =    111.174274     0.000000     0.000634   111.174908
	   53 B(12,8,13)      =    106.190122     0.000000    -0.000021   106.190102
	   54 B(14,11,15)     =    109.404750     0.000000     0.001644   109.406393
	   55 B(14,11,16)     =    109.403266    -0.000000    -0.001686   109.401580
	   56 B(15,11,16)     =    106.267451     0.000000     0.000014   106.267465
	   57 B(17,14,18)     =    107.714538     0.000000     0.000096   107.714634
	   58 B(17,14,19)     =    107.664203    -0.000000    -0.000039   107.664164
	   59 B(18,14,19)     =    107.715204    -0.000000    -0.000107   107.715097
	   60 B(21,20,22)     =    110.279469    -0.000000    -0.000198   110.279270
	   61 B(21,20,23)     =    109.189529     0.000000     0.000109   109.189639
	   62 B(22,20,23)     =    110.279107     0.000000     0.000279   110.279385
	   63 D(1,2,3,5)      =     -3.035576     0.000000     0.001313    -3.034263
	   64 *D(1,2,3,6)     =    120.000013     0.000000     0.000000   120.000013
	   65 D(1,2,3,7)      =   -126.588408    -0.000000     0.000272  -126.588136
	   66 D(1,2,4,20)     =     -0.144360     0.000000     0.005030    -0.139329
	   67 D(2,3,5,8)      =    179.741528    -0.000000    -0.011908   179.729620
	   68 D(2,3,5,9)      =     57.550741    -0.000000    -0.011273    57.539468
	   69 D(2,3,5,10)     =    -58.130020    -0.000000    -0.011284   -58.141304
	   70 D(2,4,20,21)    =    -60.526587    -0.000000     0.009522   -60.517066
	   71 D(2,4,20,22)    =   -179.988034     0.000000     0.010595  -179.977439
	   72 D(2,4,20,23)    =     60.556773    -0.000000     0.009528    60.566301
	   73 D(3,2,4,20)     =    179.577689    -0.000000     0.006263   179.583952
	   74 D(3,5,8,11)     =    179.969093    -0.000000    -0.000518   179.968575
	   75 D(3,5,8,12)     =    -58.078622    -0.000000     0.000738   -58.077884
	   76 D(3,5,8,13)     =     57.995161    -0.000000     0.000698    57.995860
	   77 D(4,2,3,5)      =    177.250458     0.000000     0.000045   177.250502
	   78 D(4,2,3,6)      =    -59.713954     0.000000    -0.001268   -59.715222
	   79 D(4,2,3,7)      =     53.697625     0.000000    -0.000997    53.696629
	   80 D(5,8,11,14)    =    179.912057     0.000000     0.103779   180.015836
	   81 D(5,8,11,15)    =     57.862879     0.000000     0.100431    57.963310
	   82 D(5,8,11,16)    =    -58.037341     0.000000     0.100424   -57.936917
	   83 D(6,3,5,8)      =     58.875355    -0.000000    -0.010904    58.864452
	   84 D(6,3,5,9)      =    -63.315431     0.000000    -0.010269   -63.325700
	   85 D(6,3,5,10)     =   -178.996192     0.000000    -0.010279  -179.006472
	   86 D(7,3,5,8)      =    -58.799246     0.000000    -0.010976   -58.810222
	   87 D(7,3,5,9)      =    179.009967     0.000000    -0.010341   178.999626
	   88 D(7,3,5,10)     =     63.329206     0.000000    -0.010352    63.318854
	   89 D(8,11,14,17)   =    -59.936127    -0.000000    -0.049699   -59.985826
	   90 D(8,11,14,18)   =   -179.968322    -0.000000    -0.049426  -180.017747
	   91 D(8,11,14,19)   =     59.998648    -0.000000    -0.049730    59.948918
	   92 D(9,5,8,11)     =    -58.227025     0.000000    -0.000884   -58.227908
	   93 D(9,5,8,12)     =     63.725260     0.000000     0.000372    63.725632
	   94 D(9,5,8,13)     =    179.799043     0.000000     0.000333   179.799376
	   95 D(10,5,8,11)    =     58.185431     0.000000    -0.000614    58.184817
	   96 D(10,5,8,12)    =   -179.862284     0.000000     0.000642  -179.861642
	   97 D(10,5,8,13)    =    -63.788501     0.000000     0.000602   -63.787898
	   98 D(12,8,11,14)   =     57.781853     0.000000     0.102070    57.883924
	   99 D(12,8,11,15)   =    -64.267325     0.000000     0.098722   -64.168602
	  100 D(12,8,11,16)   =    179.832455     0.000000     0.098715   179.931171
	  101 D(13,8,11,14)   =    -57.924720     0.000000     0.102104   -57.822616
	  102 D(13,8,11,15)   =   -179.973898     0.000000     0.098756  -179.875142
	  103 D(13,8,11,16)   =     64.125882     0.000000     0.098749    64.224631
	  104 D(15,11,14,17)  =     62.043161    -0.000000    -0.046324    61.996837
	  105 D(15,11,14,18)  =    -57.989034    -0.000000    -0.046051   -58.035084
	  106 D(15,11,14,19)  =   -178.022064    -0.000000    -0.046355  -178.068418
	  107 D(16,11,14,17)  =    178.079731    -0.000000    -0.046331   178.033400
	  108 D(16,11,14,18)  =     58.047537    -0.000000    -0.046058    58.001479
	  109 D(16,11,14,19)  =    -61.985494    -0.000000    -0.046362   -62.031855
	 ---------------------------------------------------------------------------

  ==> Convergence Check <==

  Measures of convergence in internal coordinates in au.
  Criteria marked as inactive (o), active & met (*), and active & unmet ( ).
  ---------------------------------------------------------------------------------------------
   Step     Total Energy     Delta E     MAX Force     RMS Force      MAX Disp      RMS Disp   
  ---------------------------------------------------------------------------------------------
    Convergence Criteria    1.00e-06 *    3.00e-04 *             o    1.20e-03 *             o
  ---------------------------------------------------------------------------------------------
      5    -422.97630646   -3.32e-08 *    1.09e-05 *    2.63e-06 o    1.81e-03      5.61e-04 o  ~
  ---------------------------------------------------------------------------------------------


  **** Optimization is complete! (in 5 steps) ****

  ==> Optimization Summary <==

  Measures of convergence in internal coordinates in au.
  --------------------------------------------------------------------------------------------------------------- ~
   Step         Total Energy             Delta E       MAX Force       RMS Force        MAX Disp        RMS Disp  ~
  --------------------------------------------------------------------------------------------------------------- ~
      1    -422.976303002075   -422.976303002075      0.00017206      0.00005305      0.01454693      0.00276860  ~
      2    -422.976302723301      0.000000278773      0.00031739      0.00005763      0.01661854      0.00298297  ~
      3    -422.976294525762      0.000008197539      0.00053115      0.00010964      0.01223429      0.00247194  ~
      4    -422.976306430926     -0.000011905163      0.00003564      0.00000661      0.00155464      0.00056958  ~
      5    -422.976306464088     -0.000000033162      0.00001089      0.00000263      0.00181128      0.00056058  ~
  --------------------------------------------------------------------------------------------------------------- ~

	Writing optimization data to binary file.
	Final energy is   -422.9763064640878
	Final (previous) structure:
	Cartesian Geometry (in Angstrom)
	    O     1.8471652485   1.2946161582  -0.0598832675
	    C     1.7051393065   0.1157145968  -0.0041936408
	    C     0.3819118680  -0.6102602892  -0.0020237735
	    O     2.7208674419  -0.7359951428   0.0589265178
	    C    -0.8228890975   0.3258572295  -0.0062256621
	    H     0.3723746241  -1.2646386081  -0.8698357229
	    H     0.3695617873  -1.2663670515   0.8636040676
	    C    -2.1493539353  -0.4354060451  -0.0103041964
	    H    -0.7672921826   0.9759660883  -0.8735166611
	    H    -0.7737566875   0.9761096461   0.8618128418
	    C    -3.3685949925   0.4883012804  -0.0137896936
	    H    -2.1917545856  -1.0874426581  -0.8815312342
	    H    -2.1971931728  -1.0881418885   0.8600927796
	    C    -4.6936960829  -0.2728623549  -0.0200236142
	    H    -3.3224689738   1.1406388689  -0.8829243397
	    H    -3.3293328228   1.1382932614   0.8574598924
	    H    -4.7777563598  -0.9071801856  -0.8980113429
	    H    -5.5384846727   0.4088439483  -0.0229403603
	    H    -4.7850889353  -0.9087820962   0.8560733129
	    C     4.0244111589  -0.1830077545   0.0549339830
	    H     4.1968158550   0.3774650240  -0.8526353704
	    H     4.7008898720  -1.0215925185   0.1107668441
	    H     4.1636647399   0.4678046921   0.9061372240
	Saving final (previous) structure.
			--------------------------
			 OPTKING Finished Execution 
			--------------------------

    Final optimized geometry and variables:
    Molecular point group: c1
    Full point group: C1

    Geometry (in Angstrom), charge = 0, multiplicity = 1:

    O            1.847165107439     1.294616059326    -0.059883262886
    C            1.705139176306     0.115714587942    -0.004193640465
    C            0.381911838802    -0.610260242611    -0.002023773333
    O            2.720867234102    -0.735995086566     0.058926513348
    C           -0.822889034690     0.325857204651    -0.006225661643
    H            0.372374595630    -1.264638511484    -0.869835656520
    H            0.369561759115    -1.266366954816     0.863604001602
    C           -2.149353771139    -0.435406011803    -0.010304195653
    H           -0.767292124031     0.975966013792    -0.873516594408
    H           -0.773756628427     0.976109571598     0.861812776037
    C           -3.368594735305     0.488301243066    -0.013789692546
    H           -2.191754418207    -1.087442575026    -0.881531166853
    H           -2.197193005016    -1.088141805402     0.860092713934
    C           -4.693695724478    -0.272862334080    -0.020023612702
    H           -3.322468720060     1.140638781773    -0.882924272321
    H           -3.329332568536     1.138293174453     0.857459826902
    H           -4.777755994988    -0.907180116275    -0.898011274336
    H           -5.538484249745     0.408843917094    -0.022940358502
    H           -4.785088569863    -0.908782026811     0.856073247568
    C            4.024410851545    -0.183007740536     0.054933978756
    H            4.196815534507     0.377464995141    -0.852635305293
    H            4.700889513006    -1.021592440438     0.110766835622
    H            4.163664421955     0.467804656373     0.906137154811

	Cleaning optimization helper files.


Properties will be evaluated at   0.000000,   0.000000,   0.000000 Bohr

Properties computed using the  density matrix

  Nuclear Dipole Moment: (a.u.)
     X:   -12.9900      Y:    -1.9276      Z:     0.0324

  Electronic Dipole Moment: (a.u.)
     X:    13.0973      Y:     1.2535      Z:    -0.0003

  Dipole Moment: (a.u.)
     X:     0.1074      Y:    -0.6741      Z:     0.0321     Total:     0.6833

  Dipole Moment: (Debye)
     X:     0.2729      Y:    -1.7133      Z:     0.0815     Total:     1.7368

  Quadrupole Moment: (Debye Ang)
    XX:   -49.5408     YY:   -62.1578     ZZ:   -55.1583
    XY:    -2.8836     XZ:     0.2315     YZ:     0.3174

  Traceless Quadrupole Moment: (Debye Ang)
    XX:     6.0782     YY:    -6.5388     ZZ:     0.4606
    XY:    -2.8836     XZ:     0.2315     YZ:     0.3174

  Mulliken Charges: (a.u.)
   Center  Symbol    Alpha    Beta     Spin     Total
       1     O     4.28608  4.28608  0.00000 -0.57216
       2     C     2.60484  2.60484  0.00000  0.79032
       3     C     3.20822  3.20822  0.00000 -0.41644
       4     O     4.30740  4.30740  0.00000 -0.61480
       5     C     3.15248  3.15248  0.00000 -0.30496
       6     H     0.40056  0.40056  0.00000  0.19888
       7     H     0.40071  0.40071  0.00000  0.19858
       8     C     3.15332  3.15332  0.00000 -0.30663
       9     H     0.41099  0.41099  0.00000  0.17801
      10     H     0.41243  0.41243  0.00000  0.17513
      11     C     3.15155  3.15155  0.00000 -0.30310
      12     H     0.42401  0.42401  0.00000  0.15197
      13     H     0.42402  0.42402  0.00000  0.15195
      14     C     3.23958  3.23958  0.00000 -0.47917
      15     H     0.42127  0.42127  0.00000  0.15746
      16     H     0.42138  0.42138  0.00000  0.15723
      17     H     0.42181  0.42181  0.00000  0.15638
      18     H     0.41847  0.41847  0.00000  0.16306
      19     H     0.42183  0.42183  0.00000  0.15634
      20     C     3.09246  3.09246  0.00000 -0.18492
      21     H     0.40913  0.40913  0.00000  0.18174
      22     H     0.40843  0.40843  0.00000  0.18315
      23     H     0.40901  0.40901  0.00000  0.18197

   Total alpha = 36.00000, Total beta = 36.00000, Total charge =  0.00000


*** PSI4 exiting successfully. Buy a developer a beer!
