    -----------------------------------------------------------------------
          Psi4: An Open-Source Ab Initio Electronic Structure Package
                              Psi4 (no tag) Driver

                          Git: Rev {detached?}  

    J. M. Turney, A. C. Simmonett, R. M. Parrish, E. G. Hohenstein,
    F. A. Evangelista, J. T. Fermann, B. J. Mintz, L. A. Burns, J. J. Wilke,
    M. L. Abrams, N. J. Russ, M. L. Leininger, C. L. Janssen, E. T. Seidl,
    W. D. Allen, H. F. Schaefer, R. A. King, E. F. Valeev, C. D. Sherrill,
    and T. D. Crawford, WIREs Comput. Mol. Sci. 2, 556-565 (2012)
    (doi: 10.1002/wcms.93)

                         Additional Contributions by
    A. E. DePrince, M. Saitow, U. Bozkaya, A. Yu. Sokolov
    -----------------------------------------------------------------------


    Psi4 started on: Fri Sep  9 23:19:04 2016

    Process ID:  28108
    PSI4DATADIR: /export131/home/mjharvey/miniconda3/share
    Memory level set to 256.000 MB

  ==> Input File <==

--------------------------------------------------------------------------
set {
	reference rhf
	basis cc-pvtz
}


set_num_threads( 4 )
memory 2 gb

molecule MOL {
0 1

H	 -3.436473	 1.252944	 -1.023892
O	 -3.458596	 0.315260	 -0.960865
C	 -3.176635	 -0.080824	 0.355601
C	 -1.763371	 0.265266	 0.799691
H	 -3.321825	 -1.153438	 0.379502
H	 -3.895468	 0.357385	 1.043382
C	 -0.673390	 -0.426948	 -0.013392
H	 -1.631049	 1.344913	 0.747560
H	 -1.664587	 -0.001624	 1.849167
C	 0.737842	 -0.043159	 0.423759
H	 -0.806103	 -0.190518	 -1.063345
H	 -0.797221	 -1.503753	 0.074146
C	 1.824000	 -0.743224	 -0.390623
H	 0.850588	 1.033777	 0.343840
H	 0.868587	 -0.286314	 1.476203
C	 3.255957	 -0.453067	 0.062319
H	 1.718250	 -0.470599	 -1.438164
H	 1.658105	 -1.815850	 -0.339904
C	 3.555112	 -0.827209	 1.512032
H	 3.448951	 0.607218	 -0.069305
H	 3.951199	 -0.970319	 -0.593813
H	 2.870910	 -0.328995	 2.191537
H	 4.562274	 -0.533245	 1.784891
H	 3.471102	 -1.893880	 1.681620

	symmetry c1
}
set optking {
	frozen_dihedral = ("
		20 16 13 17
	")
}

ee = optimize('scf')
oeprop('DIPOLE', 'QUADRUPOLE', 'MULLIKEN_CHARGES')
f=open( 'psi4out.xyz', 'w' )
f.write( "24  " )
f.write( str(ee) + "\n" )
f.write( MOL.save_string_xyz() )
f.close()
--------------------------------------------------------------------------

  Memory set to   2.000 GiB by Python script.
gradient() will perform analytic gradient computation.

*** tstart() called on cx1-27-1-3
*** at Fri Sep  9 23:19:04 2016


         ---------------------------------------------------------
                                   SCF
            by Justin Turney, Rob Parrish, and Andy Simmonett
                              RHF Reference
                        4 Threads,   2000 MiB Core
         ---------------------------------------------------------

  ==> Geometry <==

    Molecular point group: c1
    Full point group: C1

    Geometry (in Angstrom), charge = 0, multiplicity = 1:

       Center              X                  Y                   Z               Mass       
    ------------   -----------------  -----------------  -----------------  -----------------
           H         -3.416690701160     1.487660810810    -1.236794220794     1.007825032070
           O         -3.438813701160     0.549976810810    -1.173767220794    15.994914619560
           C         -3.156852701160     0.153892810810     0.142698779206    12.000000000000
           C         -1.743588701160     0.499982810810     0.586788779206    12.000000000000
           H         -3.302042701160    -0.918721189190     0.166599779206     1.007825032070
           H         -3.875685701160     0.592101810810     0.830479779206     1.007825032070
           C         -0.653607701160    -0.192231189190    -0.226294220794    12.000000000000
           H         -1.611266701160     1.579629810810     0.534657779206     1.007825032070
           H         -1.644804701160     0.233092810810     1.636264779206     1.007825032070
           C          0.757624298840     0.191557810810     0.210856779206    12.000000000000
           H         -0.786320701160     0.044198810810    -1.276247220794     1.007825032070
           H         -0.777438701160    -1.269036189190    -0.138756220794     1.007825032070
           C          1.843782298840    -0.508507189190    -0.603525220794    12.000000000000
           H          0.870370298840     1.268493810810     0.130937779206     1.007825032070
           H          0.888369298840    -0.051597189190     1.263300779206     1.007825032070
           C          3.275739298840    -0.218350189190    -0.150583220794    12.000000000000
           H          1.738032298840    -0.235882189190    -1.651066220794     1.007825032070
           H          1.677887298840    -1.581133189190    -0.552806220794     1.007825032070
           C          3.574894298840    -0.592492189190     1.299129779206    12.000000000000
           H          3.468733298840     0.841934810810    -0.282207220794     1.007825032070
           H          3.970981298840    -0.735602189190    -0.806715220794     1.007825032070
           H          2.890692298840    -0.094278189190     1.978634779206     1.007825032070
           H          4.582056298840    -0.298528189190     1.571988779206     1.007825032070
           H          3.490884298840    -1.659163189190     1.468717779206     1.007825032070

  Running in c1 symmetry.

  Rotational constants: A =      0.21122  B =      0.01990  C =      0.01896 [cm^-1]
  Rotational constants: A =   6332.09774  B =    596.45977  C =    568.30733 [MHz]
  Nuclear repulsion =  385.369809975180260

  Charge       = 0
  Multiplicity = 1
  Electrons    = 66
  Nalpha       = 33
  Nbeta        = 33

  ==> Algorithm <==

  SCF Algorithm Type is DF.
  DIIS enabled.
  MOM disabled.
  Fractional occupation disabled.
  Guess Type is CORE.
  Energy threshold   = 1.00e-08
  Density threshold  = 1.00e-08
  Integral threshold = 0.00e+00

  ==> Primary Basis <==

  Basis Set: CC-PVTZ
    Number of shells: 176
    Number of basis function: 464
    Number of Cartesian functions: 520
    Spherical Harmonics?: true
    Max angular momentum: 3

  ==> Pre-Iterations <==

   -------------------------------------------------------
    Irrep   Nso     Nmo     Nalpha   Nbeta   Ndocc  Nsocc
   -------------------------------------------------------
     A        464     464       0       0       0       0
   -------------------------------------------------------
    Total     464     464      33      33      33       0
   -------------------------------------------------------

 OEINTS: Overlap, kinetic, potential, dipole, and quadrupole integrals
         stored in file 35.

  ==> Integral Setup <==

  ==> DFJK: Density-Fitted J/K Matrices <==

    J tasked:                  Yes
    K tasked:                  Yes
    wK tasked:                  No
    OpenMP threads:              4
    Integrals threads:           4
    Memory (MB):              1430
    Algorithm:                Core
    Integral Cache:           NONE
    Schwarz Cutoff:          1E-12
    Fitting Condition:       1E-12

   => Auxiliary Basis Set <=

  Basis Set: 
    Number of shells: 360
    Number of basis function: 1112
    Number of Cartesian functions: 1328
    Spherical Harmonics?: true
    Max angular momentum: 4

  Minimum eigenvalue in the overlap matrix is 2.5805108850E-04.
  Using Symmetric Orthogonalization.
  SCF Guess: Core (One-Electron) Hamiltonian.

  ==> Iterations <==

                           Total Energy        Delta E     RMS |[F,P]|

   @DF-RHF iter   1:  -237.28848084291985   -2.37288e+02   3.35192e-02 
   @DF-RHF iter   2:   -47.18728920396870    1.90101e+02   3.68830e-02 DIIS
   @DF-RHF iter   3:  -203.99255967212844   -1.56805e+02   2.18366e-02 DIIS
   @DF-RHF iter   4:  -183.31024099879482    2.06823e+01   2.61645e-02 DIIS
   @DF-RHF iter   5:  -314.23930720675730   -1.30929e+02   1.42660e-02 DIIS
   @DF-RHF iter   6:  -318.75312261156819   -4.51382e+00   1.20228e-02 DIIS
   @DF-RHF iter   7:  -348.74438108262893   -2.99913e+01   2.31178e-03 DIIS
   @DF-RHF iter   8:  -349.27329056455073   -5.28909e-01   1.02351e-03 DIIS
   @DF-RHF iter   9:  -349.35943794301625   -8.61474e-02   3.66568e-04 DIIS
   @DF-RHF iter  10:  -349.37729637537814   -1.78584e-02   1.15113e-04 DIIS
   @DF-RHF iter  11:  -349.37923202664820   -1.93565e-03   2.66802e-05 DIIS
   @DF-RHF iter  12:  -349.37935491784947   -1.22891e-04   8.18370e-06 DIIS
   @DF-RHF iter  13:  -349.37936640057899   -1.14827e-05   3.00786e-06 DIIS
   @DF-RHF iter  14:  -349.37936821425706   -1.81368e-06   6.57070e-07 DIIS
   @DF-RHF iter  15:  -349.37936830725766   -9.30006e-08   1.77068e-07 DIIS
   @DF-RHF iter  16:  -349.37936831464867   -7.39101e-09   5.19963e-08 DIIS
   @DF-RHF iter  17:  -349.37936831521097   -5.62295e-10   1.36314e-08 DIIS
   @DF-RHF iter  18:  -349.37936831525258   -4.16094e-11   3.42558e-09 DIIS

  ==> Post-Iterations <==

    Orbital Energies (a.u.)
    -----------------------

    Doubly Occupied:                                                      

       1A    -20.546276     2A    -11.265528     3A    -11.215188  
       4A    -11.212127     5A    -11.210083     6A    -11.209413  
       7A    -11.208928     8A    -11.205153     9A     -1.364087  
      10A     -1.090196    11A     -1.049481    12A     -0.986173  
      13A     -0.916141    14A     -0.852364    15A     -0.801861  
      16A     -0.775146    17A     -0.681738    18A     -0.655784  
      19A     -0.625857    20A     -0.621217    21A     -0.599949  
      22A     -0.584701    23A     -0.559890    24A     -0.540619  
      25A     -0.518653    26A     -0.508888    27A     -0.498262  
      28A     -0.471838    29A     -0.469154    30A     -0.461117  
      31A     -0.457042    32A     -0.450234    33A     -0.421315  

    Virtual:                                                              

      34A      0.138409    35A      0.146200    36A      0.159662  
      37A      0.165356    38A      0.175876    39A      0.181163  
      40A      0.197539    41A      0.215865    42A      0.216567  
      43A      0.219692    44A      0.230701    45A      0.244369  
      46A      0.260286    47A      0.268003    48A      0.274336  
      49A      0.284956    50A      0.299908    51A      0.332622  
      52A      0.339920    53A      0.352417    54A      0.357058  
      55A      0.373874    56A      0.392813    57A      0.406908  
      58A      0.415874    59A      0.427783    60A      0.444414  
      61A      0.460097    62A      0.474593    63A      0.477659  
      64A      0.509387    65A      0.519336    66A      0.526329  
      67A      0.547120    68A      0.550283    69A      0.573567  
      70A      0.581187    71A      0.588975    72A      0.593426  
      73A      0.607382    74A      0.614490    75A      0.620708  
      76A      0.621892    77A      0.631933    78A      0.644754  
      79A      0.646630    80A      0.657681    81A      0.661359  
      82A      0.666639    83A      0.670003    84A      0.672094  
      85A      0.684686    86A      0.690400    87A      0.694931  
      88A      0.698515    89A      0.723373    90A      0.729099  
      91A      0.737303    92A      0.748050    93A      0.763775  
      94A      0.782503    95A      0.808382    96A      0.809099  
      97A      0.833701    98A      0.856059    99A      0.873965  
     100A      0.877325   101A      0.900971   102A      0.905040  
     103A      0.927678   104A      0.947162   105A      0.973074  
     106A      0.979719   107A      0.993049   108A      1.000857  
     109A      1.013007   110A      1.024807   111A      1.043825  
     112A      1.054539   113A      1.062646   114A      1.089774  
     115A      1.097085   116A      1.112585   117A      1.124654  
     118A      1.146383   119A      1.152699   120A      1.158796  
     121A      1.194180   122A      1.229739   123A      1.237288  
     124A      1.242197   125A      1.244646   126A      1.262199  
     127A      1.276573   128A      1.288379   129A      1.296454  
     130A      1.301416   131A      1.314429   132A      1.324430  
     133A      1.331813   134A      1.346118   135A      1.352714  
     136A      1.362845   137A      1.375881   138A      1.384062  
     139A      1.388736   140A      1.402321   141A      1.404712  
     142A      1.419765   143A      1.428271   144A      1.433484  
     145A      1.442555   146A      1.449975   147A      1.463681  
     148A      1.477659   149A      1.486834   150A      1.493244  
     151A      1.494307   152A      1.505220   153A      1.525343  
     154A      1.534270   155A      1.543580   156A      1.551588  
     157A      1.567595   158A      1.580953   159A      1.586272  
     160A      1.598996   161A      1.603951   162A      1.621518  
     163A      1.634480   164A      1.650286   165A      1.663773  
     166A      1.685277   167A      1.694425   168A      1.700778  
     169A      1.720579   170A      1.729783   171A      1.750783  
     172A      1.767124   173A      1.776999   174A      1.792910  
     175A      1.807750   176A      1.824837   177A      1.828082  
     178A      1.844333   179A      1.856396   180A      1.863517  
     181A      1.889655   182A      1.903903   183A      1.947197  
     184A      2.002205   185A      2.029642   186A      2.053178  
     187A      2.062308   188A      2.155901   189A      2.249333  
     190A      2.293927   191A      2.370834   192A      2.432435  
     193A      2.518992   194A      2.578646   195A      2.604321  
     196A      2.628337   197A      2.638968   198A      2.675908  
     199A      2.684833   200A      2.688360   201A      2.719900  
     202A      2.725563   203A      2.745854   204A      2.757385  
     205A      2.766299   206A      2.787279   207A      2.798084  
     208A      2.810497   209A      2.819116   210A      2.831630  
     211A      2.847729   212A      2.868260   213A      2.886598  
     214A      2.893843   215A      2.916330   216A      2.926379  
     217A      2.946157   218A      2.950656   219A      2.958973  
     220A      2.969068   221A      2.997493   222A      3.005179  
     223A      3.015483   224A      3.034677   225A      3.050704  
     226A      3.056381   227A      3.077425   228A      3.090537  
     229A      3.097833   230A      3.121857   231A      3.148838  
     232A      3.154324   233A      3.165445   234A      3.185558  
     235A      3.221910   236A      3.230537   237A      3.246583  
     238A      3.250749   239A      3.264327   240A      3.266139  
     241A      3.275541   242A      3.307129   243A      3.316121  
     244A      3.327098   245A      3.330461   246A      3.344970  
     247A      3.362626   248A      3.372962   249A      3.378472  
     250A      3.392145   251A      3.400352   252A      3.404848  
     253A      3.412390   254A      3.425753   255A      3.429847  
     256A      3.442477   257A      3.450534   258A      3.457278  
     259A      3.462836   260A      3.474913   261A      3.479183  
     262A      3.490500   263A      3.503000   264A      3.509262  
     265A      3.510879   266A      3.530444   267A      3.540048  
     268A      3.545228   269A      3.564402   270A      3.565622  
     271A      3.581766   272A      3.587190   273A      3.610782  
     274A      3.616478   275A      3.617328   276A      3.631291  
     277A      3.643065   278A      3.666930   279A      3.688533  
     280A      3.710728   281A      3.719470   282A      3.733090  
     283A      3.758615   284A      3.767751   285A      3.782401  
     286A      3.791698   287A      3.818834   288A      3.834332  
     289A      3.839144   290A      3.849568   291A      3.855376  
     292A      3.867529   293A      3.878841   294A      3.890511  
     295A      3.913033   296A      3.930022   297A      3.937625  
     298A      3.946566   299A      3.956521   300A      3.964001  
     301A      3.975405   302A      4.001250   303A      4.019856  
     304A      4.026865   305A      4.046200   306A      4.057473  
     307A      4.069519   308A      4.101803   309A      4.110771  
     310A      4.123300   311A      4.128082   312A      4.139270  
     313A      4.144520   314A      4.146506   315A      4.161215  
     316A      4.168037   317A      4.176256   318A      4.187697  
     319A      4.196577   320A      4.208670   321A      4.221169  
     322A      4.229219   323A      4.240917   324A      4.247516  
     325A      4.266868   326A      4.276547   327A      4.284614  
     328A      4.301135   329A      4.301819   330A      4.320629  
     331A      4.345974   332A      4.353547   333A      4.360720  
     334A      4.369028   335A      4.369647   336A      4.386067  
     337A      4.389843   338A      4.416286   339A      4.421218  
     340A      4.424815   341A      4.438650   342A      4.461837  
     343A      4.468985   344A      4.479616   345A      4.486619  
     346A      4.505572   347A      4.508546   348A      4.520544  
     349A      4.521666   350A      4.542116   351A      4.557252  
     352A      4.568956   353A      4.574867   354A      4.606854  
     355A      4.611956   356A      4.619939   357A      4.638823  
     358A      4.660192   359A      4.667338   360A      4.674704  
     361A      4.678792   362A      4.695624   363A      4.703510  
     364A      4.727845   365A      4.735192   366A      4.746916  
     367A      4.777224   368A      4.784840   369A      4.794571  
     370A      4.824567   371A      4.840552   372A      4.846988  
     373A      4.859721   374A      4.925737   375A      4.966140  
     376A      4.977653   377A      4.991686   378A      5.021359  
     379A      5.037238   380A      5.053945   381A      5.074117  
     382A      5.090747   383A      5.108281   384A      5.130023  
     385A      5.162183   386A      5.170039   387A      5.178534  
     388A      5.194927   389A      5.212831   390A      5.225611  
     391A      5.234682   392A      5.256518   393A      5.259077  
     394A      5.276309   395A      5.302339   396A      5.310808  
     397A      5.326045   398A      5.349031   399A      5.368003  
     400A      5.376441   401A      5.398284   402A      5.406638  
     403A      5.417099   404A      5.429002   405A      5.467233  
     406A      5.490124   407A      5.531855   408A      5.536690  
     409A      5.551792   410A      5.563658   411A      5.581365  
     412A      5.616915   413A      5.644428   414A      5.663267  
     415A      5.740157   416A      5.743464   417A      5.767099  
     418A      5.783054   419A      5.784974   420A      5.803782  
     421A      5.823534   422A      5.841017   423A      5.857319  
     424A      5.863286   425A      5.882062   426A      5.898186  
     427A      5.930172   428A      5.937249   429A      5.952257  
     430A      5.960710   431A      5.962735   432A      6.002644  
     433A      6.033191   434A      6.049626   435A      6.076779  
     436A      6.100253   437A      6.134424   438A      6.217377  
     439A      6.297431   440A      6.332879   441A      6.350791  
     442A      6.368698   443A      6.413327   444A      6.423103  
     445A      6.466787   446A      6.505472   447A      6.534604  
     448A      6.760819   449A      7.077730   450A      7.178365  
     451A      7.265871   452A      7.301471   453A      7.428274  
     454A      7.534407   455A      7.723129   456A      8.029103  
     457A     12.805246   458A     13.084617   459A     13.376436  
     460A     13.526981   461A     13.713583   462A     13.818573  
     463A     14.045273   464A     14.245299  

    Final Occupation by Irrep:
              A 
    DOCC [    33 ]

  Energy converged.

  @DF-RHF Final Energy:  -349.37936831525258

   => Energetics <=

    Nuclear Repulsion Energy =            385.3698099751802602
    One-Electron Energy =               -1237.4295474612445105
    Two-Electron Energy =                 502.6803691708120141
    DFT Exchange-Correlation Energy =       0.0000000000000000
    Empirical Dispersion Energy =           0.0000000000000000
    PCM Polarization Energy =               0.0000000000000000
    EFP Energy =                            0.0000000000000000
    Total Energy =                       -349.3793683152522362

    Alert: EFP and PCM quantities not currently incorporated into SCF psivars.

Properties will be evaluated at   0.000000,   0.000000,   0.000000 Bohr
  ==> Properties <==


Properties computed using the SCF density matrix

  Nuclear Dipole Moment: (a.u.)
     X:     7.6367      Y:    -0.7444      Z:     3.4039

  Electronic Dipole Moment: (a.u.)
     X:    -7.4620      Y:     1.1474      Z:    -2.9575

  Dipole Moment: (a.u.)
     X:     0.1748      Y:     0.4031      Z:     0.4464     Total:     0.6263

  Dipole Moment: (Debye)
     X:     0.4442      Y:     1.0245      Z:     1.1347     Total:     1.5920


  Saving occupied orbitals to File 180.

*** tstop() called on cx1-27-1-3 at Fri Sep  9 23:19:39 2016
Module time:
	user time   =     117.39 seconds =       1.96 minutes
	system time =       1.72 seconds =       0.03 minutes
	total time  =         35 seconds =       0.58 minutes
Total time:
	user time   =     117.39 seconds =       1.96 minutes
	system time =       1.72 seconds =       0.03 minutes
	total time  =         35 seconds =       0.58 minutes

*** tstart() called on cx1-27-1-3
*** at Fri Sep  9 23:19:39 2016


         ------------------------------------------------------------
                                   SCF GRAD                          
                          Rob Parrish, Justin Turney,                
                       Andy Simmonett, and Alex Sokolov              
         ------------------------------------------------------------

  ==> Geometry <==

    Molecular point group: c1
    Full point group: C1

    Geometry (in Angstrom), charge = 0, multiplicity = 1:

       Center              X                  Y                   Z               Mass       
    ------------   -----------------  -----------------  -----------------  -----------------
           H         -3.416690701160     1.487660810810    -1.236794220794     1.007825032070
           O         -3.438813701160     0.549976810810    -1.173767220794    15.994914619560
           C         -3.156852701160     0.153892810810     0.142698779206    12.000000000000
           C         -1.743588701160     0.499982810810     0.586788779206    12.000000000000
           H         -3.302042701160    -0.918721189190     0.166599779206     1.007825032070
           H         -3.875685701160     0.592101810810     0.830479779206     1.007825032070
           C         -0.653607701160    -0.192231189190    -0.226294220794    12.000000000000
           H         -1.611266701160     1.579629810810     0.534657779206     1.007825032070
           H         -1.644804701160     0.233092810810     1.636264779206     1.007825032070
           C          0.757624298840     0.191557810810     0.210856779206    12.000000000000
           H         -0.786320701160     0.044198810810    -1.276247220794     1.007825032070
           H         -0.777438701160    -1.269036189190    -0.138756220794     1.007825032070
           C          1.843782298840    -0.508507189190    -0.603525220794    12.000000000000
           H          0.870370298840     1.268493810810     0.130937779206     1.007825032070
           H          0.888369298840    -0.051597189190     1.263300779206     1.007825032070
           C          3.275739298840    -0.218350189190    -0.150583220794    12.000000000000
           H          1.738032298840    -0.235882189190    -1.651066220794     1.007825032070
           H          1.677887298840    -1.581133189190    -0.552806220794     1.007825032070
           C          3.574894298840    -0.592492189190     1.299129779206    12.000000000000
           H          3.468733298840     0.841934810810    -0.282207220794     1.007825032070
           H          3.970981298840    -0.735602189190    -0.806715220794     1.007825032070
           H          2.890692298840    -0.094278189190     1.978634779206     1.007825032070
           H          4.582056298840    -0.298528189190     1.571988779206     1.007825032070
           H          3.490884298840    -1.659163189190     1.468717779206     1.007825032070

  Nuclear repulsion =  385.369809975180260

  ==> Basis Set <==

  Basis Set: CC-PVTZ
    Number of shells: 176
    Number of basis function: 464
    Number of Cartesian functions: 520
    Spherical Harmonics?: true
    Max angular momentum: 3

  ==> DFJKGrad: Density-Fitted SCF Gradients <==

    Gradient:                    1
    J tasked:                  Yes
    K tasked:                  Yes
    wK tasked:                  No
    OpenMP threads:              4
    Integrals threads:           4
    Memory (MB):              1430
    Schwarz Cutoff:          0E+00
    Fitting Condition:       1E-12

   => Auxiliary Basis Set <=

  Basis Set: 
    Number of shells: 360
    Number of basis function: 1112
    Number of Cartesian functions: 1328
    Spherical Harmonics?: true
    Max angular momentum: 4


  -Total Gradient:
     Atom            X                  Y                   Z
    ------   -----------------  -----------------  -----------------
       1       -0.000004328410     0.000026618485    -0.000026772608
       2       -0.000019435606     0.000058679579    -0.000039380096
       3        0.000019936715    -0.000082037339     0.000005185692
       4       -0.000055759333     0.000007418571     0.000009653852
       5        0.000019759972    -0.000004587283     0.000043852610
       6        0.000013754047     0.000005633199     0.000002613310
       7       -0.000065766979    -0.000071492021     0.000268953787
       8        0.000012590485    -0.000006546209    -0.000003524106
       9       -0.000005786153     0.000000520069     0.000000422561
      10        0.000206134782     0.001857495695    -0.001785686368
      11        0.000102480976     0.000025884872     0.000043362809
      12       -0.000040500016    -0.000051651654    -0.000027158079
      13       -0.000300530178     0.003710506968    -0.000513688396
      14       -0.001605109857    -0.001384437435     0.000317171853
      15        0.002863551989    -0.000786721197     0.002399232895
      16        0.000351641525    -0.003845995266     0.000390103511
      17       -0.000591024948     0.000022533635    -0.001012620208
      18        0.000919778034     0.001091437502     0.000360802733
      19        0.000488813553    -0.001976095973    -0.000952741698
      20       -0.001177806960    -0.001094403596     0.000006508339
      21        0.001261790759    -0.000168083469    -0.000394610209
      22       -0.003507289048     0.001063277278    -0.000098546203
      23       -0.000025431072     0.000104452289     0.000204691948
      24        0.001138535717     0.001497593302     0.000802172074


*** tstop() called on cx1-27-1-3 at Fri Sep  9 23:20:35 2016
Module time:
	user time   =     216.99 seconds =       3.62 minutes
	system time =       1.01 seconds =       0.02 minutes
	total time  =         56 seconds =       0.93 minutes
Total time:
	user time   =     334.39 seconds =       5.57 minutes
	system time =       2.73 seconds =       0.05 minutes
	total time  =         91 seconds =       1.52 minutes
CURRENT ENERGY: -349.3793683153

			-----------------------------------------
			 OPTKING 2.0: for geometry optimizations 
			  - R.A. King,  Bethel University        
			-----------------------------------------

	Internal coordinates to be generated automatically.
	Detected frag with atoms:  1 2 3 4 5 6 7 8 9 10 11 12 13 14 15 16 17 18 19 20
	 21 22 23 24
	---Fragment 1 Bond Connectivity---
	 1 : 2
	 2 : 1 3
	 3 : 2 4 5 6
	 4 : 3 7 8 9
	 5 : 3
	 6 : 3
	 7 : 4 10 11 12
	 8 : 4
	 9 : 4
	 10 : 7 13 14 15
	 11 : 7
	 12 : 7
	 13 : 10 16 17 18
	 14 : 10
	 15 : 10
	 16 : 13 19 20 21
	 17 : 13
	 18 : 13
	 19 : 16 22 23 24
	 20 : 16
	 21 : 16
	 22 : 19
	 23 : 19
	 24 : 19

	Assuming in current code that numbering for constraints corresponds to unified fragment.
	Frozen dihedral atom list: 
	    20    16    13    17
	---Fragment 1 Geometry and Gradient---
	 H          -6.4566097060        2.8112715111       -2.3372023600
	 O          -6.4984161172        1.0393055519       -2.2180985911
	 C          -5.9655870471        0.2908152663        0.2696616122
	 C          -3.2949051336        0.9448305836        1.1088700905
	 H          -6.2399563843       -1.7361314400        0.3148279565
	 H          -7.3239845523        1.1189102652        1.5693793416
	 C          -1.2351395535       -0.3632643018       -0.4276341028
	 H          -3.0448527922        2.9850677338        1.0103567775
	 H          -3.1082304273        0.4404815760        3.0920923136
	 C           1.4317024364        0.3619918010        0.3984615660
	 H          -1.4859307778        0.0835236478       -2.4117577252
	 H          -1.4691462303       -2.3981308503       -0.2622112565
	 C           3.4842435935       -0.9609393242       -1.1404973816
	 H           1.6447614990        2.3971059037        0.2474365431
	 H           1.6787746797       -0.0975045568        2.3872924962
	 C           6.1902501575       -0.4126220586       -0.2845610475
	 H           3.2844050549       -0.4457527372       -3.1200629846
	 H           3.1707474767       -2.9879087072       -1.0446523619
	 C           6.7555711788       -1.1196479734        2.4549994938
	 H           6.5549559628        1.5910262142       -0.5332943600
	 H           7.5040671336       -1.3900866803       -1.5244708345
	 H           5.4626167792       -0.1781599579        3.7390778497
	 H           8.6588315303       -0.5641365205        2.9706282767
	 H           6.5968152864       -3.1353640373        2.7754743692
	            -0.0000043284        0.0000266185       -0.0000267726
	            -0.0000194356        0.0000586796       -0.0000393801
	             0.0000199367       -0.0000820373        0.0000051857
	            -0.0000557593        0.0000074186        0.0000096539
	             0.0000197600       -0.0000045873        0.0000438526
	             0.0000137540        0.0000056332        0.0000026133
	            -0.0000657670       -0.0000714920        0.0002689538
	             0.0000125905       -0.0000065462       -0.0000035241
	            -0.0000057862        0.0000005201        0.0000004226
	             0.0002061348        0.0018574957       -0.0017856864
	             0.0001024810        0.0000258849        0.0000433628
	            -0.0000405000       -0.0000516517       -0.0000271581
	            -0.0003005302        0.0037105070       -0.0005136884
	            -0.0016051099       -0.0013844374        0.0003171719
	             0.0028635520       -0.0007867212        0.0023992329
	             0.0003516415       -0.0038459953        0.0003901035
	            -0.0005910249        0.0000225336       -0.0010126202
	             0.0009197780        0.0010914375        0.0003608027
	             0.0004888136       -0.0019760960       -0.0009527417
	            -0.0011778070       -0.0010944036        0.0000065083
	             0.0012617908       -0.0001680835       -0.0003946102
	            -0.0035072890        0.0010632773       -0.0000985462
	            -0.0000254311        0.0001044523        0.0002046919
	             0.0011385357        0.0014975933        0.0008021721

	Previous optimization step data not found.  Starting new optimization.

	---Fragment 1 Intrafragment Coordinates---
	 - Coordinate -           - BOHR/RAD -       - ANG/DEG -
	 R(1,2)           =         1.776456	       0.940060
	 R(2,3)           =         2.651998	       1.403377
	 R(3,4)           =         2.874813	       1.521286
	 R(3,5)           =         2.045930	       1.082660
	 R(3,6)           =         2.054325	       1.087102
	 R(4,7)           =         2.883503	       1.525884
	 R(4,8)           =         2.057863	       1.088974
	 R(4,9)           =         2.054844	       1.087377
	 R(7,10)          =         2.884524	       1.526424
	 R(7,11)          =         2.049210	       1.084395
	 R(7,12)          =         2.054947	       1.087431
	 R(10,13)         =         2.886428	       1.527432
	 R(10,14)         =         2.051802	       1.085767
	 R(10,15)         =         2.056120	       1.088052
	 R(13,16)         =         2.890631	       1.529656
	 R(13,17)         =         2.055245	       1.087589
	 R(13,18)         =         2.053307	       1.086564
	 R(16,19)         =         2.885250	       1.526808
	 R(16,20)         =         2.051703	       1.085715
	 R(16,21)         =         2.054003	       1.086932
	 R(19,22)         =         2.051094	       1.085392
	 R(19,23)         =         2.048625	       1.084086
	 R(19,24)         =         2.047198	       1.083330
	 B(1,2,3)         =         1.917382	     109.857880
	 B(2,3,4)         =         1.978258	     113.345861
	 B(2,3,5)         =         1.847704	     105.865657
	 B(2,3,6)         =         1.925028	     110.295994
	 B(3,4,7)         =         1.987611	     113.881728
	 B(3,4,8)         =         1.901235	     108.932738
	 B(3,4,9)         =         1.886305	     108.077317
	 B(4,3,5)         =         1.921465	     110.091821
	 B(4,3,6)         =         1.915473	     109.748538
	 B(4,7,10)        =         1.975509	     113.188316
	 B(4,7,11)        =         1.906681	     109.244779
	 B(4,7,12)        =         1.901783	     108.964112
	 B(5,3,6)         =         1.872048	     107.260452
	 B(7,4,8)         =         1.915008	     109.721893
	 B(7,4,9)         =         1.915639	     109.758006
	 B(7,10,13)       =         1.970891	     112.923739
	 B(7,10,14)       =         1.901077	     108.923706
	 B(7,10,15)       =         1.909138	     109.385572
	 B(8,4,9)         =         1.853035	     106.171057
	 B(10,7,11)       =         1.913062	     109.610374
	 B(10,7,12)       =         1.908372	     109.341639
	 B(10,13,16)      =         2.005198	     114.889392
	 B(10,13,17)      =         1.906577	     109.238824
	 B(10,13,18)      =         1.895462	     108.601958
	 B(11,7,12)       =         1.854492	     106.254557
	 B(13,10,14)      =         1.919325	     109.969210
	 B(13,10,15)      =         1.904820	     109.138157
	 B(13,16,19)      =         2.002141	     114.714255
	 B(13,16,20)      =         1.892045	     108.406172
	 B(13,16,21)      =         1.906854	     109.254690
	 B(14,10,15)      =         1.854985	     106.282831
	 B(16,13,17)      =         1.905700	     109.188547
	 B(16,13,18)      =         1.892686	     108.442923
	 B(16,19,22)      =         1.937393	     111.004429
	 B(16,19,23)      =         1.933250	     110.767068
	 B(16,19,24)      =         1.954896	     112.007279
	 B(17,13,18)      =         1.852058	     106.115102
	 B(19,16,20)      =         1.896094	     108.638197
	 B(19,16,21)      =         1.908406	     109.343598
	 B(20,16,21)      =         1.852355	     106.132142
	 B(22,19,23)      =         1.879267	     107.674094
	 B(22,19,24)      =         1.880810	     107.762460
	 B(23,19,24)      =         1.875109	     107.435817
	 D(1,2,3,4)       =        -1.135895	     -65.081972
	 D(1,2,3,5)       =         3.039395	     174.144510
	 D(1,2,3,6)       =         1.019675	      58.423088
	 D(2,3,4,7)       =        -1.089366	     -62.416066
	 D(2,3,4,8)       =         1.054284	      60.406016
	 D(2,3,4,9)       =         3.060386	     175.347189
	 D(3,4,7,10)      =         3.117777	     178.635459
	 D(3,4,7,11)      =         0.980963	      56.205063
	 D(3,4,7,12)      =        -1.038154	     -59.481819
	 D(4,7,10,13)     =         3.137973	     179.792631
	 D(4,7,10,14)     =        -1.007570	     -57.729496
	 D(4,7,10,15)     =         1.013097	      58.046163
	 D(5,3,4,7)       =         0.976321	      55.939057
	 D(5,3,4,8)       =         3.119970	     178.761138
	 D(5,3,4,9)       =        -1.157113	     -66.297688
	 D(6,3,4,7)       =         3.033020	     173.779226
	 D(6,3,4,8)       =        -1.106516	     -63.398692
	 D(6,3,4,9)       =         0.899586	      51.542481
	 D(7,10,13,16)    =        -3.083034	    -176.644830
	 D(7,10,13,17)    =         1.052152	      60.283844
	 D(7,10,13,18)    =        -0.960542	     -55.034980
	 D(8,4,7,10)      =         0.981679	      56.246076
	 D(8,4,7,11)      =        -1.155134	     -66.184320
	 D(8,4,7,12)      =         3.108934	     178.128799
	 D(9,4,7,10)      =        -1.048208	     -60.057873
	 D(9,4,7,11)      =         3.098164	     177.511731
	 D(9,4,7,12)      =         1.079047	      61.824850
	 D(10,13,16,19)   =         1.021000	      58.499002
	 D(10,13,16,20)   =        -1.101271	     -63.098208
	 D(10,13,16,21)   =        -3.112606	    -178.339197
	 D(11,7,10,13)    =        -1.011954	     -57.980719
	 D(11,7,10,14)    =         1.125688	      64.497155
	 D(11,7,10,15)    =        -3.136831	    -179.727187
	 D(12,7,10,13)    =         1.014413	      58.121576
	 D(12,7,10,14)    =        -3.131130	    -179.400551
	 D(12,7,10,15)    =        -1.110464	     -63.624892
	 D(13,16,19,22)   =        -0.986875	     -56.543783
	 D(13,16,19,23)   =        -3.073673	    -176.108510
	 D(13,16,19,24)   =         1.116378	      63.963722
	 D(14,10,13,16)   =         1.072746	      61.463831
	 D(14,10,13,17)   =        -1.075254	     -61.607495
	 D(14,10,13,18)   =        -3.087947	    -176.926319
	 D(15,10,13,16)   =        -0.955725	     -54.759006
	 D(15,10,13,17)   =        -3.103725	    -177.830331
	 D(15,10,13,18)   =         1.166767	      66.850844
	 D(17,13,16,19)   =        -3.113716	    -178.402778
	*D(17,13,16,20)   =         1.047198	      60.000012
	 D(17,13,16,21)   =        -0.964137	     -55.240978
	 D(18,13,16,19)   =        -1.103001	     -63.197277
	 D(18,13,16,20)   =         3.057913	     175.205513
	 D(18,13,16,21)   =         1.046578	      59.964524
	 D(20,16,19,22)   =         1.133185	      64.926744
	 D(20,16,19,23)   =        -0.953613	     -54.637983
	 D(20,16,19,24)   =        -3.046747	    -174.565751
	 D(21,16,19,22)   =        -3.135622	    -179.657894
	 D(21,16,19,23)   =         1.060765	      60.777379
	 D(21,16,19,24)   =        -1.032369	     -59.150389

	Current energy   :      -349.3793683153

	Generating empirical Hessian (Schlegel '84) for each fragment.
	Taking RFO optimization step.
	Going to follow RFO solution 1.
	Using RFO vector 1.

	Determining step-restricting scale parameter for RS-RFO.
	Maximum step size allowed    0.50000

	 Iter      |step|        alpha        rfo_root  
	------------------------------------------------
	    0     0.54432       1.00000           1
	    1     0.50482       1.18516           1
	    2     0.50007       1.21050           1
	    3     0.50000       1.21087           1
	------------------------------------------------
	Norm of target step-size    0.50000
	Projected energy change by RFO approximation:        -0.0039367587

	Back-transformation to cartesian coordinates...
	Successfully converged to displaced geometry.

	Back-transformation to cartesian coordinates to adjust frozen coordinates...
	Successfully converged to displaced geometry.

	--- Internal Coordinate Step in ANG or DEG, aJ/ANG or AJ/DEG ---
	 ---------------------------------------------------------------------------
	   Coordinate                Previous        Force       Change         New 
	   ----------                --------       ------       ------       ------
	    1 R(1,2)          =      0.940060    -0.000233    -0.000025     0.940035
	    2 R(2,3)          =      1.403377    -0.000749    -0.000106     1.403271
	    3 R(3,4)          =      1.521286     0.000200     0.000042     1.521328
	    4 R(3,5)          =      1.082660    -0.000024    -0.000004     1.082656
	    5 R(3,6)          =      1.087102     0.000043     0.000008     1.087110
	    6 R(4,7)          =      1.525884    -0.000100    -0.000021     1.525863
	    7 R(4,8)          =      1.088974     0.000039     0.000007     1.088981
	    8 R(4,9)          =      1.087377     0.000002     0.000000     1.087377
	    9 R(7,10)         =      1.526424     0.000289     0.000062     1.526486
	   10 R(7,11)         =      1.084395     0.000403     0.000072     1.084468
	   11 R(7,12)         =      1.087431    -0.000441    -0.000080     1.087351
	   12 R(10,13)        =      1.527432     0.004669     0.001000     1.528432
	   13 R(10,14)        =      1.085767     0.012879     0.002321     1.088088
	   14 R(10,15)        =      1.088052    -0.023403    -0.004250     1.083802
	   15 R(13,16)        =      1.529656     0.018345     0.003956     1.533612
	   16 R(13,17)        =      1.087589    -0.008555    -0.001551     1.086038
	   17 R(13,18)        =      1.086564     0.009895     0.001788     1.088351
	   18 R(16,19)        =      1.526808     0.004815     0.001029     1.527837
	   19 R(16,20)        =      1.085715     0.010537     0.001899     1.087613
	   20 R(16,21)        =      1.086932    -0.009271    -0.001677     1.085254
	   21 R(19,22)        =      1.085392    -0.021728    -0.003911     1.081482
	   22 R(19,23)        =      1.084086    -0.000463    -0.000083     1.084003
	   23 R(19,24)        =      1.083330     0.011841     0.002117     1.085447
	   24 B(1,2,3)        =    109.857880    -0.000003    -0.015837   109.842042
	   25 B(2,3,4)        =    113.345861    -0.000000    -0.002456   113.343405
	   26 B(2,3,5)        =    105.865657    -0.000003    -0.031914   105.833743
	   27 B(2,3,6)        =    110.295994     0.000001     0.009062   110.305056
	   28 B(3,4,7)        =    113.881728     0.000000     0.000950   113.882678
	   29 B(3,4,8)        =    108.932738    -0.000000    -0.002661   108.930077
	   30 B(3,4,9)        =    108.077317    -0.000000    -0.000650   108.076667
	   31 B(4,3,5)        =    110.091821     0.000002     0.007047   110.098868
	   32 B(4,3,6)        =    109.748538     0.000001     0.015564   109.764102
	   33 B(4,7,10)       =    113.188316    -0.000004    -0.015409   113.172907
	   34 B(4,7,11)       =    109.244779    -0.000003    -0.004077   109.240701
	   35 B(4,7,12)       =    108.964112     0.000003    -0.011847   108.952265
	   36 B(5,3,6)        =    107.260452    -0.000000     0.001378   107.261831
	   37 B(7,4,8)        =    109.721893     0.000000     0.003525   109.725417
	   38 B(7,4,9)        =    109.758006    -0.000000    -0.000595   109.757412
	   39 B(7,10,13)      =    112.923739    -0.000049    -0.197395   112.726344
	   40 B(7,10,14)      =    108.923706     0.000082     0.089400   109.013106
	   41 B(7,10,15)      =    109.385572    -0.000103    -0.461698   108.923874
	   42 B(8,4,9)        =    106.171057    -0.000000    -0.000768   106.170289
	   43 B(10,7,11)      =    109.610374     0.000009     0.072951   109.683325
	   44 B(10,7,12)      =    109.341639    -0.000003    -0.040305   109.301333
	   45 B(10,13,16)     =    114.889392     0.000329     1.016997   115.906389
	   46 B(10,13,17)     =    109.238824    -0.000119    -1.900058   107.338766
	   47 B(10,13,18)     =    108.601958    -0.000070     0.809661   109.411619
	   48 B(11,7,12)      =    106.254557    -0.000001    -0.000975   106.253582
	   49 B(13,10,14)     =    109.969210    -0.000092    -0.815200   109.154010
	   50 B(13,10,15)     =    109.138157     0.000169     1.314437   110.452594
	   51 B(13,16,19)     =    114.714255     0.000328     1.323102   116.037357
	   52 B(13,16,20)     =    108.406172     0.000018     1.404556   109.810728
	   53 B(13,16,21)     =    109.254690    -0.000197    -2.077953   107.176737
	   54 B(14,10,15)     =    106.282831    -0.000005     0.079292   106.362123
	   55 B(16,13,17)     =    109.188547    -0.000192    -1.783052   107.405494
	   56 B(16,13,18)     =    108.442923     0.000000     1.509426   109.952349
	   57 B(16,19,22)     =    111.004429     0.000263     1.344919   112.349349
	   58 B(16,19,23)     =    110.767068    -0.000040    -0.293197   110.473871
	   59 B(16,19,24)     =    112.007279    -0.000168    -0.804381   111.202898
	   60 B(17,13,18)     =    106.115102     0.000034     0.240925   106.356027
	   61 B(19,16,20)     =    108.638197    -0.000088     1.269768   109.907964
	   62 B(19,16,21)     =    109.343598    -0.000131    -1.480235   107.863363
	   63 B(20,16,21)     =    106.132142     0.000054    -0.666777   105.465365
	   64 B(22,19,23)     =    107.674094    -0.000108    -0.442339   107.231754
	   65 B(22,19,24)     =    107.762460    -0.000025     0.081264   107.843723
	   66 B(23,19,24)     =    107.435817     0.000074     0.090291   107.526108
	   67 D(1,2,3,4)      =    -65.081972    -0.000000    -0.015947   -65.097919
	   68 D(1,2,3,5)      =    174.144510    -0.000000    -0.001801   174.142709
	   69 D(1,2,3,6)      =     58.423088     0.000000     0.009577    58.432665
	   70 D(2,3,4,7)      =    -62.416066     0.000000     0.062031   -62.354035
	   71 D(2,3,4,8)      =     60.406016     0.000000     0.065265    60.471280
	   72 D(2,3,4,9)      =    175.347189     0.000000     0.062634   175.409823
	   73 D(3,4,7,10)     =    178.635459     0.000001     0.099620   178.735079
	   74 D(3,4,7,11)     =     56.205063    -0.000000     0.019341    56.224404
	   75 D(3,4,7,12)     =    -59.481819    -0.000000     0.029288   -59.452531
	   76 D(4,7,10,13)    =    179.792631     0.000015     0.782500   180.575131
	   77 D(4,7,10,14)    =    -57.729496    -0.000006    -0.324045   -58.053541
	   78 D(4,7,10,15)    =     58.046163    -0.000010    -0.433622    57.612541
	   79 D(5,3,4,7)      =     55.939057    -0.000000     0.024832    55.963889
	   80 D(5,3,4,8)      =    178.761138    -0.000000     0.028066   178.789204
	   81 D(5,3,4,9)      =    -66.297688    -0.000000     0.025435   -66.272253
	   82 D(6,3,4,7)      =    173.779226     0.000000     0.040134   173.819360
	   83 D(6,3,4,8)      =    -63.398692     0.000000     0.043368   -63.355325
	   84 D(6,3,4,9)      =     51.542481     0.000000     0.040737    51.583218
	   85 D(7,10,13,16)   =   -176.644830    -0.000026    -8.354900  -184.999730
	   86 D(7,10,13,17)   =     60.283844    -0.000001    -5.285177    54.998667
	   87 D(7,10,13,18)   =    -55.034980     0.000013    -4.978347   -60.013327
	   88 D(8,4,7,10)     =     56.246076     0.000001     0.099762    56.345839
	   89 D(8,4,7,11)     =    -66.184320    -0.000000     0.019484   -66.164836
	   90 D(8,4,7,12)     =    178.128799    -0.000000     0.029431   178.158229
	   91 D(9,4,7,10)     =    -60.057873     0.000001     0.098997   -59.958876
	   92 D(9,4,7,11)     =    177.511731    -0.000000     0.018718   177.530450
	   93 D(9,4,7,12)     =     61.824850    -0.000000     0.028665    61.853515
	   94 D(10,13,16,19)  =     58.499002     0.000044     6.901846    65.400848
	   95 D(10,13,16,20)  =    -63.098208     0.000016     3.132799   -59.965409
	   96 D(10,13,16,21)  =   -178.339197     0.000023     4.293760  -174.045438
	   97 D(11,7,10,13)   =    -57.980719     0.000015     0.819940   -57.160779
	   98 D(11,7,10,14)   =     64.497155    -0.000006    -0.286606    64.210549
	   99 D(11,7,10,15)   =   -179.727187    -0.000010    -0.396182  -180.123369
	  100 D(12,7,10,13)   =     58.121576     0.000016     0.837066    58.958641
	  101 D(12,7,10,14)   =   -179.400551    -0.000005    -0.269480  -179.670031
	  102 D(12,7,10,15)   =    -63.624892    -0.000009    -0.379056   -64.003949
	  103 D(13,16,19,22)  =    -56.543783    -0.000034    -8.311236   -64.855020
	  104 D(13,16,19,23)  =   -176.108510    -0.000036    -8.442517  -184.551027
	  105 D(13,16,19,24)  =     63.963722    -0.000026    -7.830752    56.132970
	  106 D(14,10,13,16)  =     61.463831    -0.000027    -7.754812    53.709019
	  107 D(14,10,13,17)  =    -61.607495    -0.000002    -4.685089   -66.292584
	  108 D(14,10,13,18)  =   -176.926319     0.000012    -4.378259  -181.304578
	  109 D(15,10,13,16)  =    -54.759006    -0.000036    -8.135680   -62.894686
	  110 D(15,10,13,17)  =   -177.830331    -0.000011    -5.065957  -182.896289
	  111 D(15,10,13,18)  =     66.850844     0.000003    -4.759127    62.091717
	  112 D(17,13,16,19)  =   -178.402778     0.000028     3.769047  -174.633731
	  113 *D(17,13,16,20) =     60.000012    -0.000000    -0.000000    60.000012
	  114 D(17,13,16,21)  =    -55.240978     0.000007     1.160961   -54.080017
	  115 D(18,13,16,19)  =    -63.197277     0.000014     3.889522   -59.307755
	  116 D(18,13,16,20)  =    175.205513    -0.000014     0.120475   175.325988
	  117 D(18,13,16,21)  =     59.964524    -0.000007     1.281436    61.245960
	  118 D(20,16,19,22)  =     64.926744     0.000007    -4.465033    60.461711
	  119 D(20,16,19,23)  =    -54.637983     0.000005    -4.596314   -59.234297
	  120 D(20,16,19,24)  =   -174.565751     0.000016    -3.984549  -178.550300
	  121 D(21,16,19,22)  =   -179.657894    -0.000005    -5.380922  -185.038816
	  122 D(21,16,19,23)  =     60.777379    -0.000007    -5.512202    55.265177
	  123 D(21,16,19,24)  =    -59.150389     0.000003    -4.900438   -64.050827
	 ---------------------------------------------------------------------------

  ==> Convergence Check <==

  Measures of convergence in internal coordinates in au.
  Criteria marked as inactive (o), active & met (*), and active & unmet ( ).
  --------------------------------------------------------------------------------------------- ~
   Step     Total Energy     Delta E     MAX Force     RMS Force      MAX Disp      RMS Disp    ~
  --------------------------------------------------------------------------------------------- ~
    Convergence Criteria    1.00e-06 *    3.00e-04 *             o    1.20e-03 *             o  ~
  --------------------------------------------------------------------------------------------- ~
      1    -349.37936832   -3.49e+02      4.32e-03      1.13e-03 o    1.47e-01      4.51e-02 o  ~
  ---------------------------------------------------------------------------------------------

	Writing optimization data to binary file.
	Structure for next step:
	Cartesian Geometry (in Angstrom)
	    H    -3.3713665535   1.5453038808  -1.2908832333
	    O    -3.4154173552   0.6073903638  -1.2456678385
	    C    -3.1938617516   0.1831910166   0.0734751433
	    C    -1.7921663481   0.4911053877   0.5783281210
	    H    -3.3622186199  -0.8862935582   0.0720734486
	    H    -3.9300617020   0.6247689210   0.7404280998
	    C    -0.6857289428  -0.2095335270  -0.2047169575
	    H    -1.6357589383   1.5684634753   0.5515604099
	    H    -1.7400055127   0.2034606641   1.6256719822
	    C     0.7147385931   0.1346181935   0.2956924654
	    H    -0.7722519122   0.0487121207  -1.2544278885
	    H    -0.8355036356  -1.2847196225  -0.1424701671
	    C     1.8153222555  -0.5614932092  -0.5044629071
	    H     0.8574433318   1.2117040456   0.2368959975
	    H     0.7869195654  -0.1260882644   1.3451921457
	    C     3.2543246139  -0.1752214467  -0.1411005118
	    H     1.6650496666  -0.3081633183  -1.5497954923
	    H     1.6900703952  -1.6400050074  -0.4294080133
	    C     3.7198224385  -0.5654312935   1.2608036919
	    H     3.4000302331   0.8913672425  -0.2962158140
	    H     3.9077335318  -0.6636650054  -0.8568217054
	    H     3.1706610940  -0.0477519908   2.0354211560
	    H     4.7679854248  -0.3229205892   1.3934885968
	    H     3.6071749589  -1.6317980894   1.4292332561
			--------------------------
			 OPTKING Finished Execution 
			--------------------------

    Structure for next step:
    Molecular point group: c1
    Full point group: C1

    Geometry (in Angstrom), charge = 0, multiplicity = 1:

    H           -3.368181784208     1.541359955159    -1.290969842497
    O           -3.412232582512     0.603446509837    -1.245754451144
    C           -3.190676995806     0.179247195017     0.073388429911
    C           -1.788981699354     0.487161542598     0.578241369015
    H           -3.359033851257    -0.890237298140     0.071986735332
    H           -3.926876889992     0.620825065685     0.740341335434
    C           -0.682544378546    -0.213477318666    -0.204803649672
    H           -1.632574301491     1.564519547893     0.551473660046
    H           -1.736820867900     0.199516840961     1.625585150243
    C            0.717923050455     0.130674375591     0.295605734999
    H           -0.769067341347     0.044768309399    -1.254514500437
    H           -0.832319059956    -1.288663332006    -0.142556864030
    C            1.818506628774    -0.565436973912    -0.504549576323
    H            0.860627778234     1.207760145414     0.236809271599
    H            0.790104017155    -0.130032062362     1.345105335152
    C            3.257508877294    -0.179165240913    -0.141187208771
    H            1.668234051316    -0.312107102355    -1.549882081713
    H            1.693254778065    -1.643948689816    -0.429494688320
    C            3.723006666334    -0.569375057908     1.260716887884
    H            3.403214485386     0.887423366803    -0.296302499128
    H            3.910917745251    -0.667608762331    -0.856908347732
    H            3.173845363768    -0.051695794814     2.035334292781
    H            4.771169572558    -0.326864372199     1.393401782593
    H            3.610359195303    -1.635741772440     1.429146439145

gradient() will perform analytic gradient computation.

*** tstart() called on cx1-27-1-3
*** at Fri Sep  9 23:20:37 2016


         ---------------------------------------------------------
                                   SCF
            by Justin Turney, Rob Parrish, and Andy Simmonett
                              RHF Reference
                        4 Threads,   2000 MiB Core
         ---------------------------------------------------------

  ==> Geometry <==

    Molecular point group: c1
    Full point group: C1

    Geometry (in Angstrom), charge = 0, multiplicity = 1:

       Center              X                  Y                   Z               Mass       
    ------------   -----------------  -----------------  -----------------  -----------------
           H         -3.368181784208     1.541359955159    -1.290969842497     1.007825032070
           O         -3.412232582512     0.603446509837    -1.245754451144    15.994914619560
           C         -3.190676995806     0.179247195017     0.073388429911    12.000000000000
           C         -1.788981699354     0.487161542598     0.578241369015    12.000000000000
           H         -3.359033851257    -0.890237298140     0.071986735332     1.007825032070
           H         -3.926876889992     0.620825065685     0.740341335434     1.007825032070
           C         -0.682544378546    -0.213477318666    -0.204803649672    12.000000000000
           H         -1.632574301491     1.564519547893     0.551473660046     1.007825032070
           H         -1.736820867900     0.199516840961     1.625585150243     1.007825032070
           C          0.717923050455     0.130674375591     0.295605734999    12.000000000000
           H         -0.769067341347     0.044768309399    -1.254514500437     1.007825032070
           H         -0.832319059956    -1.288663332006    -0.142556864030     1.007825032070
           C          1.818506628774    -0.565436973912    -0.504549576323    12.000000000000
           H          0.860627778234     1.207760145414     0.236809271599     1.007825032070
           H          0.790104017155    -0.130032062362     1.345105335152     1.007825032070
           C          3.257508877294    -0.179165240913    -0.141187208771    12.000000000000
           H          1.668234051316    -0.312107102355    -1.549882081713     1.007825032070
           H          1.693254778065    -1.643948689816    -0.429494688320     1.007825032070
           C          3.723006666334    -0.569375057908     1.260716887884    12.000000000000
           H          3.403214485386     0.887423366803    -0.296302499128     1.007825032070
           H          3.910917745251    -0.667608762331    -0.856908347732     1.007825032070
           H          3.173845363768    -0.051695794814     2.035334292781     1.007825032070
           H          4.771169572558    -0.326864372199     1.393401782593     1.007825032070
           H          3.610359195303    -1.635741772440     1.429146439145     1.007825032070

  Running in c1 symmetry.

  Rotational constants: A =      0.21793  B =      0.01945  C =      0.01862 [cm^-1]
  Rotational constants: A =   6533.33514  B =    583.01560  C =    558.09496 [MHz]
  Nuclear repulsion =  383.970473136917406

  Charge       = 0
  Multiplicity = 1
  Electrons    = 66
  Nalpha       = 33
  Nbeta        = 33

  ==> Algorithm <==

  SCF Algorithm Type is DF.
  DIIS enabled.
  MOM disabled.
  Fractional occupation disabled.
  Guess Type is READ.
  Energy threshold   = 1.00e-08
  Density threshold  = 1.00e-08
  Integral threshold = 0.00e+00

  ==> Primary Basis <==

  Basis Set: CC-PVTZ
    Number of shells: 176
    Number of basis function: 464
    Number of Cartesian functions: 520
    Spherical Harmonics?: true
    Max angular momentum: 3

  ==> Pre-Iterations <==

   -------------------------------------------------------
    Irrep   Nso     Nmo     Nalpha   Nbeta   Ndocc  Nsocc
   -------------------------------------------------------
     A        464     464       0       0       0       0
   -------------------------------------------------------
    Total     464     464      33      33      33       0
   -------------------------------------------------------

 OEINTS: Overlap, kinetic, potential, dipole, and quadrupole integrals
         stored in file 35.

  ==> Integral Setup <==

  ==> DFJK: Density-Fitted J/K Matrices <==

    J tasked:                  Yes
    K tasked:                  Yes
    wK tasked:                  No
    OpenMP threads:              4
    Integrals threads:           4
    Memory (MB):              1430
    Algorithm:                Core
    Integral Cache:           NONE
    Schwarz Cutoff:          1E-12
    Fitting Condition:       1E-12

   => Auxiliary Basis Set <=

  Basis Set: 
    Number of shells: 360
    Number of basis function: 1112
    Number of Cartesian functions: 1328
    Spherical Harmonics?: true
    Max angular momentum: 4

  Minimum eigenvalue in the overlap matrix is 2.6385653989E-04.
  Using Symmetric Orthogonalization.
  SCF Guess: Reading in previously saved MOs, projecting if necessary.

  Using orbitals from previous SCF, no projection.
  Recomputing DOCC and SOCC from number of alpha and beta electrons from previous calculation.
              A 
    DOCC [    33 ]

  ==> Iterations <==

                           Total Energy        Delta E     RMS |[F,P]|

   @DF-RHF iter   0:  -349.34698286156987   -3.49347e+02   3.94975e-04 
   @DF-RHF iter   1:  -349.37877614875191   -3.17933e-02   7.86670e-05 
   @DF-RHF iter   2:  -349.37989262079515   -1.11647e-03   2.77486e-05 DIIS
   @DF-RHF iter   3:  -349.38003162396313   -1.39003e-04   1.18069e-05 DIIS
   @DF-RHF iter   4:  -349.38005329740105   -2.16734e-05   1.57267e-06 DIIS
   @DF-RHF iter   5:  -349.38005387274535   -5.75344e-07   6.74229e-07 DIIS
   @DF-RHF iter   6:  -349.38005395485203   -8.21067e-08   1.88891e-07 DIIS
   @DF-RHF iter   7:  -349.38005396271893   -7.86690e-09   6.24784e-08 DIIS
   @DF-RHF iter   8:  -349.38005396359966   -8.80732e-10   1.94377e-08 DIIS
   @DF-RHF iter   9:  -349.38005396369277   -9.31095e-11   6.03584e-09 DIIS

  ==> Post-Iterations <==

    Orbital Energies (a.u.)
    -----------------------

    Doubly Occupied:                                                      

       1A    -20.546287     2A    -11.265501     3A    -11.215157  
       4A    -11.212735     5A    -11.210348     6A    -11.209660  
       7A    -11.208877     8A    -11.205365     9A     -1.364151  
      10A     -1.089028    11A     -1.048612    12A     -0.987347  
      13A     -0.916425    14A     -0.851589    15A     -0.801481  
      16A     -0.775831    17A     -0.681714    18A     -0.655835  
      19A     -0.625093    20A     -0.619208    21A     -0.598708  
      22A     -0.586256    23A     -0.558480    24A     -0.541256  
      25A     -0.518048    26A     -0.510949    27A     -0.497824  
      28A     -0.471821    29A     -0.468160    30A     -0.460389  
      31A     -0.458697    32A     -0.450637    33A     -0.420722  

    Virtual:                                                              

      34A      0.138447    35A      0.145527    36A      0.159789  
      37A      0.165537    38A      0.175434    39A      0.180964  
      40A      0.197135    41A      0.214299    42A      0.216457  
      43A      0.220488    44A      0.232137    45A      0.241198  
      46A      0.260534    47A      0.264196    48A      0.271456  
      49A      0.286191    50A      0.299890    51A      0.331338  
      52A      0.339252    53A      0.350307    54A      0.357606  
      55A      0.375758    56A      0.389290    57A      0.405706  
      58A      0.416881    59A      0.431809    60A      0.448673  
      61A      0.453608    62A      0.474723    63A      0.477438  
      64A      0.509043    65A      0.518188    66A      0.525938  
      67A      0.547325    68A      0.552518    69A      0.568775  
      70A      0.580798    71A      0.589873    72A      0.594515  
      73A      0.608223    74A      0.610510    75A      0.620963  
      76A      0.628259    77A      0.631050    78A      0.639383  
      79A      0.648442    80A      0.657989    81A      0.660179  
      82A      0.663694    83A      0.667410    84A      0.669740  
      85A      0.683926    86A      0.692016    87A      0.697319  
      88A      0.698929    89A      0.719724    90A      0.727375  
      91A      0.733995    92A      0.747773    93A      0.761459  
      94A      0.780954    95A      0.810536    96A      0.814504  
      97A      0.830102    98A      0.856051    99A      0.865551  
     100A      0.877037   101A      0.897807   102A      0.910494  
     103A      0.928366   104A      0.943411   105A      0.972050  
     106A      0.976200   107A      0.991623   108A      1.002747  
     109A      1.015929   110A      1.026153   111A      1.043752  
     112A      1.049918   113A      1.060161   114A      1.088926  
     115A      1.097224   116A      1.111573   117A      1.117370  
     118A      1.142052   119A      1.151194   120A      1.162473  
     121A      1.198968   122A      1.226891   123A      1.236242  
     124A      1.247567   125A      1.248353   126A      1.266022  
     127A      1.278616   128A      1.285269   129A      1.296880  
     130A      1.308606   131A      1.311856   132A      1.316927  
     133A      1.333008   134A      1.336268   135A      1.352288  
     136A      1.354199   137A      1.374218   138A      1.386281  
     139A      1.391999   140A      1.396416   141A      1.403117  
     142A      1.417542   143A      1.424603   144A      1.433665  
     145A      1.438453   146A      1.447232   147A      1.470540  
     148A      1.476908   149A      1.486027   150A      1.493605  
     151A      1.496059   152A      1.510876   153A      1.521895  
     154A      1.528758   155A      1.544222   156A      1.550458  
     157A      1.561243   158A      1.578158   159A      1.581059  
     160A      1.598941   161A      1.611772   162A      1.616879  
     163A      1.637304   164A      1.654313   165A      1.665156  
     166A      1.686257   167A      1.692200   168A      1.702351  
     169A      1.708115   170A      1.725601   171A      1.753554  
     172A      1.758165   173A      1.776006   174A      1.788759  
     175A      1.806257   176A      1.821653   177A      1.826742  
     178A      1.834384   179A      1.851612   180A      1.866237  
     181A      1.884875   182A      1.902418   183A      1.954118  
     184A      1.984105   185A      2.009891   186A      2.035937  
     187A      2.056915   188A      2.155083   189A      2.249314  
     190A      2.293853   191A      2.370884   192A      2.431491  
     193A      2.521114   194A      2.571344   195A      2.605162  
     196A      2.632186   197A      2.640411   198A      2.676784  
     199A      2.681073   200A      2.690575   201A      2.717353  
     202A      2.734342   203A      2.738328   204A      2.756829  
     205A      2.761355   206A      2.785938   207A      2.791901  
     208A      2.811333   209A      2.817059   210A      2.833522  
     211A      2.843141   212A      2.849817   213A      2.884386  
     214A      2.896350   215A      2.908534   216A      2.929087  
     217A      2.937891   218A      2.952221   219A      2.962122  
     220A      2.977327   221A      3.000675   222A      3.005858  
     223A      3.021963   224A      3.028169   225A      3.042530  
     226A      3.060154   227A      3.077576   228A      3.084137  
     229A      3.108611   230A      3.123627   231A      3.144477  
     232A      3.156502   233A      3.159850   234A      3.183420  
     235A      3.215990   236A      3.223356   237A      3.237623  
     238A      3.257344   239A      3.262919   240A      3.268135  
     241A      3.277660   242A      3.299886   243A      3.314028  
     244A      3.320202   245A      3.327029   246A      3.334825  
     247A      3.363347   248A      3.368026   249A      3.380733  
     250A      3.388960   251A      3.400033   252A      3.405460  
     253A      3.413187   254A      3.423577   255A      3.429123  
     256A      3.437604   257A      3.444489   258A      3.459527  
     259A      3.465951   260A      3.471523   261A      3.485051  
     262A      3.486585   263A      3.499597   264A      3.507167  
     265A      3.507938   266A      3.524271   267A      3.537609  
     268A      3.545722   269A      3.561204   270A      3.568167  
     271A      3.580527   272A      3.588291   273A      3.597036  
     274A      3.608559   275A      3.615586   276A      3.627580  
     277A      3.645635   278A      3.671002   279A      3.681854  
     280A      3.708015   281A      3.718228   282A      3.741610  
     283A      3.749103   284A      3.769505   285A      3.782214  
     286A      3.789225   287A      3.816846   288A      3.832037  
     289A      3.837253   290A      3.845348   291A      3.856541  
     292A      3.875989   293A      3.877490   294A      3.888059  
     295A      3.911607   296A      3.926431   297A      3.941076  
     298A      3.946340   299A      3.952039   300A      3.961990  
     301A      3.973419   302A      3.993123   303A      4.019423  
     304A      4.021040   305A      4.039099   306A      4.054013  
     307A      4.077151   308A      4.092122   309A      4.111582  
     310A      4.120085   311A      4.129904   312A      4.134295  
     313A      4.141586   314A      4.152119   315A      4.159017  
     316A      4.166005   317A      4.170344   318A      4.181954  
     319A      4.186316   320A      4.208571   321A      4.212625  
     322A      4.228311   323A      4.240426   324A      4.255879  
     325A      4.267482   326A      4.269894   327A      4.287691  
     328A      4.295646   329A      4.306849   330A      4.317835  
     331A      4.339292   332A      4.341092   333A      4.356483  
     334A      4.365781   335A      4.371330   336A      4.379987  
     337A      4.389520   338A      4.406085   339A      4.418294  
     340A      4.424275   341A      4.443791   342A      4.455808  
     343A      4.462115   344A      4.476373   345A      4.492915  
     346A      4.502574   347A      4.505018   348A      4.515569  
     349A      4.520531   350A      4.541140   351A      4.561462  
     352A      4.568917   353A      4.571718   354A      4.592320  
     355A      4.611427   356A      4.618103   357A      4.639311  
     358A      4.645372   359A      4.666040   360A      4.673198  
     361A      4.676502   362A      4.686645   363A      4.700739  
     364A      4.711379   365A      4.736640   366A      4.747248  
     367A      4.762215   368A      4.788371   369A      4.795341  
     370A      4.806251   371A      4.828526   372A      4.846112  
     373A      4.857290   374A      4.922377   375A      4.938914  
     376A      4.974692   377A      4.991679   378A      5.016563  
     379A      5.030044   380A      5.054292   381A      5.077392  
     382A      5.079408   383A      5.113538   384A      5.125375  
     385A      5.149832   386A      5.169346   387A      5.178172  
     388A      5.198321   389A      5.210465   390A      5.221359  
     391A      5.228350   392A      5.253275   393A      5.254861  
     394A      5.281646   395A      5.300729   396A      5.309586  
     397A      5.327046   398A      5.348690   399A      5.366268  
     400A      5.379096   401A      5.391965   402A      5.394584  
     403A      5.418809   404A      5.429783   405A      5.463603  
     406A      5.491573   407A      5.527419   408A      5.541315  
     409A      5.552591   410A      5.579980   411A      5.585880  
     412A      5.619563   413A      5.639694   414A      5.665532  
     415A      5.740775   416A      5.742607   417A      5.759023  
     418A      5.778859   419A      5.797827   420A      5.805491  
     421A      5.820817   422A      5.840712   423A      5.854686  
     424A      5.856965   425A      5.874206   426A      5.898537  
     427A      5.928230   428A      5.933335   429A      5.944466  
     430A      5.950573   431A      5.960702   432A      6.004183  
     433A      6.032563   434A      6.049492   435A      6.070886  
     436A      6.104658   437A      6.129665   438A      6.217188  
     439A      6.293841   440A      6.331316   441A      6.344293  
     442A      6.364306   443A      6.409021   444A      6.427247  
     445A      6.462277   446A      6.505233   447A      6.531545  
     448A      6.760726   449A      7.077764   450A      7.178406  
     451A      7.265968   452A      7.301603   453A      7.428163  
     454A      7.534615   455A      7.722890   456A      8.029064  
     457A     12.803156   458A     13.054130   459A     13.341263  
     460A     13.525635   461A     13.693722   462A     13.807841  
     463A     14.017422   464A     14.279466  

    Final Occupation by Irrep:
              A 
    DOCC [    33 ]

  Energy converged.

  @DF-RHF Final Energy:  -349.38005396369277

   => Energetics <=

    Nuclear Repulsion Energy =            383.9704731369174056
    One-Electron Energy =               -1234.6366746515618615
    Two-Electron Energy =                 501.2861475509518527
    DFT Exchange-Correlation Energy =       0.0000000000000000
    Empirical Dispersion Energy =           0.0000000000000000
    PCM Polarization Energy =               0.0000000000000000
    EFP Energy =                            0.0000000000000000
    Total Energy =                       -349.3800539636925464

    Alert: EFP and PCM quantities not currently incorporated into SCF psivars.

Properties will be evaluated at   0.000000,   0.000000,   0.000000 Bohr
  ==> Properties <==


Properties computed using the SCF density matrix

  Nuclear Dipole Moment: (a.u.)
     X:     7.7242      Y:    -0.8228      Z:     3.3769

  Electronic Dipole Moment: (a.u.)
     X:    -7.5587      Y:     1.2131      Z:    -2.9235

  Dipole Moment: (a.u.)
     X:     0.1654      Y:     0.3904      Z:     0.4534     Total:     0.6208

  Dipole Moment: (Debye)
     X:     0.4205      Y:     0.9923      Z:     1.1525     Total:     1.5778


  Saving occupied orbitals to File 180.

*** tstop() called on cx1-27-1-3 at Fri Sep  9 23:21:02 2016
Module time:
	user time   =      81.64 seconds =       1.36 minutes
	system time =       1.06 seconds =       0.02 minutes
	total time  =         25 seconds =       0.42 minutes
Total time:
	user time   =     417.98 seconds =       6.97 minutes
	system time =       3.88 seconds =       0.06 minutes
	total time  =        118 seconds =       1.97 minutes

*** tstart() called on cx1-27-1-3
*** at Fri Sep  9 23:21:02 2016


         ------------------------------------------------------------
                                   SCF GRAD                          
                          Rob Parrish, Justin Turney,                
                       Andy Simmonett, and Alex Sokolov              
         ------------------------------------------------------------

  ==> Geometry <==

    Molecular point group: c1
    Full point group: C1

    Geometry (in Angstrom), charge = 0, multiplicity = 1:

       Center              X                  Y                   Z               Mass       
    ------------   -----------------  -----------------  -----------------  -----------------
           H         -3.368181784208     1.541359955159    -1.290969842497     1.007825032070
           O         -3.412232582512     0.603446509837    -1.245754451144    15.994914619560
           C         -3.190676995806     0.179247195017     0.073388429911    12.000000000000
           C         -1.788981699354     0.487161542598     0.578241369015    12.000000000000
           H         -3.359033851257    -0.890237298140     0.071986735332     1.007825032070
           H         -3.926876889992     0.620825065685     0.740341335434     1.007825032070
           C         -0.682544378546    -0.213477318666    -0.204803649672    12.000000000000
           H         -1.632574301491     1.564519547893     0.551473660046     1.007825032070
           H         -1.736820867900     0.199516840961     1.625585150243     1.007825032070
           C          0.717923050455     0.130674375591     0.295605734999    12.000000000000
           H         -0.769067341347     0.044768309399    -1.254514500437     1.007825032070
           H         -0.832319059956    -1.288663332006    -0.142556864030     1.007825032070
           C          1.818506628774    -0.565436973912    -0.504549576323    12.000000000000
           H          0.860627778234     1.207760145414     0.236809271599     1.007825032070
           H          0.790104017155    -0.130032062362     1.345105335152     1.007825032070
           C          3.257508877294    -0.179165240913    -0.141187208771    12.000000000000
           H          1.668234051316    -0.312107102355    -1.549882081713     1.007825032070
           H          1.693254778065    -1.643948689816    -0.429494688320     1.007825032070
           C          3.723006666334    -0.569375057908     1.260716887884    12.000000000000
           H          3.403214485386     0.887423366803    -0.296302499128     1.007825032070
           H          3.910917745251    -0.667608762331    -0.856908347732     1.007825032070
           H          3.173845363768    -0.051695794814     2.035334292781     1.007825032070
           H          4.771169572558    -0.326864372199     1.393401782593     1.007825032070
           H          3.610359195303    -1.635741772440     1.429146439145     1.007825032070

  Nuclear repulsion =  383.970473136917406

  ==> Basis Set <==

  Basis Set: CC-PVTZ
    Number of shells: 176
    Number of basis function: 464
    Number of Cartesian functions: 520
    Spherical Harmonics?: true
    Max angular momentum: 3

  ==> DFJKGrad: Density-Fitted SCF Gradients <==

    Gradient:                    1
    J tasked:                  Yes
    K tasked:                  Yes
    wK tasked:                  No
    OpenMP threads:              4
    Integrals threads:           4
    Memory (MB):              1430
    Schwarz Cutoff:          0E+00
    Fitting Condition:       1E-12

   => Auxiliary Basis Set <=

  Basis Set: 
    Number of shells: 360
    Number of basis function: 1112
    Number of Cartesian functions: 1328
    Spherical Harmonics?: true
    Max angular momentum: 4


  -Total Gradient:
     Atom            X                  Y                   Z
    ------   -----------------  -----------------  -----------------
       1        0.000002845714    -0.000011349055     0.000019121420
       2        0.000001344191    -0.000038430142     0.000008968792
       3       -0.000007261421     0.000064987966    -0.000005008546
       4        0.000037583068     0.000119319790    -0.000108587647
       5        0.000000841856     0.000008601174    -0.000030672209
       6       -0.000005902786    -0.000010935628     0.000005456808
       7        0.000121164137    -0.000001880655     0.000222674235
       8       -0.000038531053     0.000013680205     0.000015229441
       9        0.000037404535    -0.000023560002    -0.000003436676
      10       -0.000636446759    -0.000360585934     0.000193063451
      11       -0.000016192580    -0.000017651491    -0.000126017128
      12        0.000044348476     0.000163291995     0.000036843113
      13        0.000436933563    -0.003802825687     0.000094113372
      14       -0.000491215548     0.000084067120    -0.000148098627
      15       -0.000816098517     0.000380948805    -0.001644491805
      16       -0.000587613583     0.003390859607     0.001778525977
      17       -0.000337562220     0.001828965152     0.001057729216
      18       -0.001192232853    -0.000797959540    -0.000675746062
      19        0.000745307022    -0.000385993525     0.000788376245
      20        0.001806014197     0.000250711884    -0.001691234510
      21       -0.000864589298    -0.000109235599     0.000636503020
      22        0.001462523434    -0.000640557862    -0.000867873951
      23       -0.000171719782     0.000016859643     0.000155621145
      24        0.000469056207    -0.000121328218     0.000288940923


*** tstop() called on cx1-27-1-3 at Fri Sep  9 23:21:56 2016
Module time:
	user time   =     210.68 seconds =       3.51 minutes
	system time =       0.92 seconds =       0.02 minutes
	total time  =         54 seconds =       0.90 minutes
Total time:
	user time   =     628.67 seconds =      10.48 minutes
	system time =       4.80 seconds =       0.08 minutes
	total time  =        172 seconds =       2.87 minutes
CURRENT ENERGY: -349.3800539637

			-----------------------------------------
			 OPTKING 2.0: for geometry optimizations 
			  - R.A. King,  Bethel University        
			-----------------------------------------

	Previous internal coordinate definitions found.
	---Fragment 1 Geometry and Gradient---
	 H          -6.3649411379        2.9127481874       -2.4395794481
	 O          -6.4481850827        1.1403486394       -2.3541347415
	 C          -6.0295057006        0.3387281087        0.1386840339
	 C          -3.3806854685        0.9206018980        1.0927178261
	 H          -6.3476540500       -1.6823046868        0.1360352150
	 H          -7.4207218796        1.1731893506        1.3990423688
	 C          -1.2898219490       -0.4034136679       -0.3870228089
	 H          -3.0851183214        2.9565134751        1.0421341870
	 H          -3.2821157822        0.3770321883        3.0719107396
	 C           1.3566779498        0.2469387825        0.5586138825
	 H          -1.4533266529        0.0845998442       -2.3706888356
	 H          -1.5728550785       -2.4352207750       -0.2693934314
	 C           3.4364794992       -1.0685210261       -0.9534605197
	 H           1.6263508032        2.2823359090        0.4475046691
	 H           1.4930802089       -0.2457249864        2.5418807033
	 C           6.1557996535       -0.3385732379       -0.2668051580
	 H           3.1525054825       -0.5897969476       -2.9288526727
	 H           3.1997878037       -3.1066128003       -0.8116273365
	 C           7.0354629903       -1.0759629263        2.3824096492
	 H           6.4311433488        1.6769871272       -0.5599305758
	 H           7.3905634668       -1.2615977247       -1.6193220982
	 H           5.9976985257       -0.0976908944        3.8462244022
[...]
	 D(11,7,10,15)    =         3.122964	     178.932646
	 D(12,7,10,13)    =         1.006083	      57.644314
	 D(12,7,10,14)    =         3.128787	     179.266283
	 D(12,7,10,15)    =        -1.133832	     -64.963793
	 D(13,16,19,22)   =        -1.134133	     -64.981060
	 D(13,16,19,23)   =         3.055908	     175.090625
	 D(13,16,19,24)   =         0.969568	      55.552149
	 D(14,10,13,16)   =         0.934844	      53.562595
	 D(14,10,13,17)   =        -1.182254	     -67.738190
	 D(14,10,13,18)   =         3.085419	     176.781484
	 D(15,10,13,16)   =        -1.094186	     -62.692227
	 D(15,10,13,17)   =         3.071901	     176.006989
	 D(15,10,13,18)   =         1.056390	      60.526662
	 D(17,13,16,19)   =        -3.078490	    -176.384498
	*D(17,13,16,20)   =         1.047198	      60.000012
	 D(17,13,16,21)   =        -0.956574	     -54.807632
	 D(18,13,16,19)   =        -1.063098	     -60.911010
	 D(18,13,16,20)   =         3.062590	     175.473499
	 D(18,13,16,21)   =         1.058819	      60.665855
	 D(20,16,19,22)   =         1.020251	      58.456073
	 D(20,16,19,23)   =        -1.072893	     -61.472242
	 D(20,16,19,24)   =         3.123952	     178.989282
	 D(21,16,19,22)   =         3.031176	     173.673603
	 D(21,16,19,23)   =         0.938032	      53.745288
	 D(21,16,19,24)   =        -1.148308	     -65.793188

	Current energy   :      -349.3803659573

	Energy change for the previous step:
		Projected    :        -0.0000048926
		Actual       :        -0.0000005080
	Energy ratio indicates iffy step: Trust radius decreased to 3.125e-02.


	Performing BFGS update.
	Previous computed or guess Hessian on step 1.
	Steps to be used in Hessian update: 5 4
	Taking RFO optimization step.
	Going to follow RFO solution 1.
	Using RFO vector 1.
	Norm of target step-size    0.00279
	Projected energy change by RFO approximation:         0.0000001195

	Back-transformation to cartesian coordinates...
	Successfully converged to displaced geometry.

	Back-transformation to cartesian coordinates to adjust frozen coordinates...
	Successfully converged to displaced geometry.

	--- Internal Coordinate Step in ANG or DEG, aJ/ANG or AJ/DEG ---
	 ---------------------------------------------------------------------------
	   Coordinate                Previous        Force       Change         New 
	   ----------                --------       ------       ------       ------
	    1 R(1,2)          =      0.940043    -0.000010    -0.000001     0.940042
	    2 R(2,3)          =      1.403307     0.000004     0.000000     1.403307
	    3 R(3,4)          =      1.521314     0.000007     0.000001     1.521315
	    4 R(3,5)          =      1.082671    -0.000014    -0.000002     1.082668
	    5 R(3,6)          =      1.087106     0.000016     0.000002     1.087109
	    6 R(4,7)          =      1.525864     0.000074     0.000014     1.525878
	    7 R(4,8)          =      1.089008     0.000003    -0.000000     1.089007
	    8 R(4,9)          =      1.087349     0.000000     0.000000     1.087349
	    9 R(7,10)         =      1.526497     0.000003     0.000002     1.526499
	   10 R(7,11)         =      1.084276    -0.000011    -0.000001     1.084275
	   11 R(7,12)         =      1.087586     0.000004     0.000001     1.087587
	   12 R(10,13)        =      1.527780    -0.000048    -0.000010     1.527771
	   13 R(10,14)        =      1.088156    -0.000004    -0.000003     1.088153
	   14 R(10,15)        =      1.085698    -0.000064    -0.000006     1.085693
	   15 R(13,16)        =      1.529630     0.000245     0.000034     1.529665
	   16 R(13,17)        =      1.086469    -0.000007     0.000002     1.086471
	   17 R(13,18)        =      1.087518    -0.000009    -0.000005     1.087514
	   18 R(16,19)        =      1.526501    -0.000135    -0.000028     1.526472
	   19 R(16,20)        =      1.086931     0.000005    -0.000004     1.086927
	   20 R(16,21)        =      1.085961     0.000025     0.000007     1.085968
	   21 R(19,22)        =      1.083224    -0.000049    -0.000003     1.083220
	   22 R(19,23)        =      1.084043     0.000030     0.000006     1.084049
	   23 R(19,24)        =      1.085514    -0.000041    -0.000009     1.085505
	   24 B(1,2,3)        =    109.848648    -0.000000    -0.000456   109.848192
	   25 B(2,3,4)        =    113.345289    -0.000000    -0.000853   113.344436
	   26 B(2,3,5)        =    105.846902    -0.000000    -0.001808   105.845094
	   27 B(2,3,6)        =    110.298586     0.000000     0.001862   110.300449
	   28 B(3,4,7)        =    113.884878     0.000000     0.000800   113.885679
	   29 B(3,4,8)        =    108.937069    -0.000000    -0.002166   108.934903
	   30 B(3,4,9)        =    108.073455     0.000000     0.001237   108.074692
	   31 B(4,3,5)        =    110.097855    -0.000000    -0.001431   110.096423
	   32 B(4,3,6)        =    109.757770     0.000000     0.002192   109.759962
	   33 B(4,7,10)       =    113.194944     0.000000     0.001013   113.195956
	   34 B(4,7,11)       =    109.255248    -0.000000    -0.001422   109.253826
	   35 B(4,7,12)       =    108.944801     0.000000     0.001605   108.946406
	   36 B(5,3,6)        =    107.261122    -0.000000    -0.000098   107.261024
	   37 B(7,4,8)        =    109.706004     0.000000    -0.000236   109.705767
	   38 B(7,4,9)        =    109.771953    -0.000000     0.000397   109.772350
	   39 B(7,10,13)      =    112.885375     0.000001     0.001027   112.886402
	   40 B(7,10,14)      =    109.234343     0.000000     0.002856   109.237198
	   41 B(7,10,15)      =    109.059738    -0.000000    -0.002625   109.057113
	   42 B(8,4,9)        =    106.169204     0.000000    -0.000087   106.169116
	   43 B(10,7,11)      =    109.667270    -0.000000    -0.002095   109.665175
	   44 B(10,7,12)      =    109.284989    -0.000000     0.001802   109.286791
	   45 B(10,13,16)     =    114.946318     0.000001     0.003915   114.950234
	   46 B(10,13,17)     =    108.347329    -0.000001    -0.004674   108.342655
	   47 B(10,13,18)     =    109.249632    -0.000001    -0.001121   109.248511
	   48 B(11,7,12)      =    106.255682    -0.000000    -0.001004   106.254678
	   49 B(13,10,14)     =    109.145281    -0.000000    -0.000081   109.145200
	   50 B(13,10,15)     =    110.014671    -0.000000    -0.002035   110.012636
	   51 B(13,16,19)     =    114.940189     0.000001     0.003404   114.943592
	   52 B(13,16,20)     =    109.238229     0.000000     0.001763   109.239992
	   53 B(13,16,21)     =    108.198952     0.000000     0.001786   108.200738
	   54 B(14,10,15)     =    106.284600     0.000000     0.000895   106.285495
	   55 B(16,13,17)     =    108.321660    -0.000000     0.000636   108.322296
	   56 B(16,13,18)     =    109.263028    -0.000000     0.000890   109.263919
	   57 B(16,19,22)     =    112.027655    -0.000001    -0.003063   112.024592
	   58 B(16,19,23)     =    110.726928     0.000000    -0.000193   110.726734
	   59 B(16,19,24)     =    111.029298    -0.000000    -0.000829   111.028468
	   60 B(17,13,18)     =    106.363235     0.000000     0.000053   106.363288
	   61 B(19,16,20)     =    109.573680    -0.000001    -0.001630   109.572050
	   62 B(19,16,21)     =    108.624519    -0.000001    -0.005337   108.619182
	   63 B(20,16,21)     =    105.867837     0.000000    -0.000280   105.867557
	   64 B(22,19,23)     =    107.447142     0.000000     0.001382   107.448524
	   65 B(22,19,24)     =    107.758118     0.000000     0.001972   107.760089
	   66 B(23,19,24)     =    107.661224     0.000000     0.000999   107.662223
	   67 D(1,2,3,4)      =    -65.087903    -0.000000    -0.000369   -65.088272
	   68 D(1,2,3,5)      =    174.144040     0.000000     0.003117   174.147157
	   69 D(1,2,3,6)      =     58.430818     0.000000     0.003303    58.434120
	   70 D(2,3,4,7)      =    -62.362319     0.000000     0.036123   -62.326196
	   71 D(2,3,4,8)      =     60.444611     0.000000     0.034752    60.479363
	   72 D(2,3,4,9)      =    175.383805     0.000000     0.034180   175.417984
	   73 D(3,4,7,10)     =    178.592360    -0.000000    -0.039439   178.552921
	   74 D(3,4,7,11)     =     56.076577    -0.000000    -0.036400    56.040177
	   75 D(3,4,7,12)     =    -59.606723    -0.000000    -0.035309   -59.642031
	   76 D(4,7,10,13)    =    179.254375     0.000000    -0.000383   179.253992
	   77 D(4,7,10,14)    =    -59.123655     0.000000     0.002231   -59.121424
	   78 D(4,7,10,15)    =     56.646269     0.000000     0.003421    56.649690
	   79 D(5,3,4,7)      =     55.972809     0.000000     0.032294    56.005103
	   80 D(5,3,4,8)      =    178.779739     0.000000     0.030923   178.810661
	   81 D(5,3,4,9)      =    -66.281068    -0.000000     0.030351   -66.250717
	   82 D(6,3,4,7)      =    173.822984     0.000000     0.032639   173.855623
	   83 D(6,3,4,8)      =    -63.370086     0.000000     0.031268   -63.338818
	   84 D(6,3,4,9)      =     51.569107     0.000000     0.030696    51.599803
	   85 D(7,10,13,16)   =    175.234857    -0.000000    -0.018642   175.216214
	   86 D(7,10,13,17)   =     53.934072    -0.000000    -0.018603    53.915469
	   87 D(7,10,13,18)   =    -61.546255     0.000000    -0.015521   -61.561776
	   88 D(8,4,7,10)     =     56.207062    -0.000000    -0.037007    56.170055
	   89 D(8,4,7,11)     =    -66.308721    -0.000000    -0.033968   -66.342689
	   90 D(8,4,7,12)     =    178.007979     0.000000    -0.032877   177.975102
	   91 D(9,4,7,10)     =    -60.093514    -0.000000    -0.036994   -60.130509
	   92 D(9,4,7,11)     =    177.390702     0.000000    -0.033955   177.356747
	   93 D(9,4,7,12)     =     61.707403     0.000000    -0.032864    61.674539
	   94 D(10,13,16,19)  =     62.300731     0.000000     0.004651    62.305383
	   95 D(10,13,16,20)  =    -61.314759     0.000000     0.002933   -61.311826
	   96 D(10,13,16,21)  =   -176.122403    -0.000000     0.001382  -176.121021
	   97 D(11,7,10,13)   =    -58.459247    -0.000000    -0.003050   -58.462298
	   98 D(11,7,10,14)   =     63.162722     0.000000    -0.000437    63.162285
	   99 D(11,7,10,15)   =    178.932646     0.000000     0.000753   178.933400
	  100 D(12,7,10,13)   =     57.644314    -0.000000    -0.004415    57.639899
	  101 D(12,7,10,14)   =    179.266283    -0.000000    -0.001801   179.264482
	  102 D(12,7,10,15)   =    -64.963793    -0.000000    -0.000611   -64.964404
	  103 D(13,16,19,22)  =    -64.981060    -0.000000    -0.009103   -64.990163
	  104 D(13,16,19,23)  =    175.090625    -0.000000    -0.008674   175.081951
	  105 D(13,16,19,24)  =     55.552149    -0.000000    -0.009259    55.542890
	  106 D(14,10,13,16)  =     53.562595    -0.000000    -0.022911    53.539684
	  107 D(14,10,13,17)  =    -67.738190    -0.000000    -0.022872   -67.761062
	  108 D(14,10,13,18)  =    176.781484     0.000000    -0.019790   176.761693
	  109 D(15,10,13,16)  =    -62.692227    -0.000000    -0.022789   -62.715016
	  110 D(15,10,13,17)  =    176.006989    -0.000000    -0.022750   175.984238
	  111 D(15,10,13,18)  =     60.526662     0.000000    -0.019669    60.506993
	  112 D(17,13,16,19)  =   -176.384498     0.000000     0.001718  -176.382780
	  113 *D(17,13,16,20) =     60.000012    -0.000000    -0.000000    60.000012
	  114 D(17,13,16,21)  =    -54.807632    -0.000000    -0.001551   -54.809183
	  115 D(18,13,16,19)  =    -60.911010     0.000000     0.002603   -60.908407
	  116 D(18,13,16,20)  =    175.473499     0.000000     0.000884   175.474384
	  117 D(18,13,16,21)  =     60.665855    -0.000000    -0.000666    60.665189
	  118 D(20,16,19,22)  =     58.456073     0.000000    -0.005564    58.450509
	  119 D(20,16,19,23)  =    -61.472242     0.000000    -0.005135   -61.477377
	  120 D(20,16,19,24)  =    178.989282     0.000000    -0.005720   178.983562
	  121 D(21,16,19,22)  =    173.673603    -0.000000    -0.009721   173.663882
	  122 D(21,16,19,23)  =     53.745288    -0.000000    -0.009292    53.735996
	  123 D(21,16,19,24)  =    -65.793188    -0.000000    -0.009877   -65.803065
	 ---------------------------------------------------------------------------

  ==> Convergence Check <==

  Measures of convergence in internal coordinates in au.
  Criteria marked as inactive (o), active & met (*), and active & unmet ( ).
  ---------------------------------------------------------------------------------------------
   Step     Total Energy     Delta E     MAX Force     RMS Force      MAX Disp      RMS Disp   
  ---------------------------------------------------------------------------------------------
    Convergence Criteria    1.00e-06 *    3.00e-04 *             o    1.20e-03 *             o
  ---------------------------------------------------------------------------------------------
      6    -349.38036596   -5.08e-07 *    2.97e-05 *    5.07e-06 o    6.88e-04 *    2.52e-04 o  ~
  ---------------------------------------------------------------------------------------------


  **** Optimization is complete! (in 6 steps) ****

  ==> Optimization Summary <==

  Measures of convergence in internal coordinates in au.
  --------------------------------------------------------------------------------------------------------------- ~
   Step         Total Energy             Delta E       MAX Force       RMS Force        MAX Disp        RMS Disp  ~
  --------------------------------------------------------------------------------------------------------------- ~
      1    -349.379368315253   -349.379368315253      0.00432420      0.00113332      0.14734971      0.04508173  ~
      2    -349.380053963693     -0.000685648440      0.00397374      0.00082289      0.04750045      0.01127095  ~
      3    -349.380354704461     -0.000300740768      0.00084033      0.00015254      0.02319561      0.00634356  ~
      4    -349.380364083963     -0.000009379502      0.00014406      0.00003312      0.01308420      0.00403850  ~
      5    -349.380365449296     -0.000001365332      0.00009118      0.00001897      0.00387645      0.00153983  ~
      6    -349.380365957274     -0.000000507978      0.00002969      0.00000507      0.00068834      0.00025198  ~
  --------------------------------------------------------------------------------------------------------------- ~

	Writing optimization data to binary file.
	Final energy is   -349.3803659572740
	Final (previous) structure:
	Cartesian Geometry (in Angstrom)
	    H    -3.3659078797   1.5719457641  -1.2357271359
	    O    -3.4109644847   0.6332298736  -1.2142077875
	    C    -3.1767235438   0.1747656680   0.0912466015
	    C    -1.7695988013   0.4678607347   0.5897360388
	    H    -3.3467060864  -0.8941346886   0.0641613154
	    H    -3.9054582081   0.6000123438   0.7767473952
	    C    -0.6720589670  -0.2137036970  -0.2221364677
	    H    -1.6116335066   1.5453502972   0.5888764652
	    H    -1.7075259965   0.1535532979   1.6288150606
	    C     0.7341860064   0.1181795600   0.2703286799
	    H    -0.7700430379   0.0693215073  -1.2642254973
	    H    -0.8213296980  -1.2903131311  -0.1837353667
	    C     1.8267468233  -0.5820858463  -0.5359292780
	    H     0.8872155315   1.1943114937   0.2192844637
	    H     0.8154932924  -0.1514887104   1.3188558781
	    C     3.2570728166  -0.1945619823  -0.1567699200
	    H     1.6774966924  -0.3509424541  -1.5869825348
	    H     1.7092042840  -1.6589104634  -0.4393432509
	    C     3.6585130009  -0.5370025483   1.2756351849
	    H     3.3977707118   0.8692202699  -0.3299494233
	    H     3.9367755092  -0.6986439045  -0.8373704468
	    H     3.0849832408   0.0240062274   2.0034443186
	    H     4.7056630727  -0.3131737732   1.4445364823
	    H     3.5103034378  -1.5927746564   1.4798920140
	Saving final (previous) structure.
			--------------------------
			 OPTKING Finished Execution 
			--------------------------

    Final optimized geometry and variables:
    Molecular point group: c1
    Full point group: C1

    Geometry (in Angstrom), charge = 0, multiplicity = 1:

    H           -3.365907622672     1.571945644030    -1.235727041527
    O           -3.410964224195     0.633229825271    -1.214207694819
    C           -3.176723301189     0.174765654704     0.091246594533
    C           -1.769598666142     0.467860698934     0.589735993790
    H           -3.346705830796    -0.894134620305     0.064161310476
    H           -3.905457909881     0.600012297965     0.776747335859
    C           -0.672058915675    -0.213703680701    -0.222136450687
    H           -1.611633383487     1.545350179187     0.588876420264
    H           -1.707525866058     0.153553286162     1.628814936184
    C            0.734185950379     0.118179551000     0.270328659294
    H           -0.770042979135     0.069321501984    -1.264225400759
    H           -0.821329635325    -1.290313032529    -0.183735352686
    C            1.826746683807    -0.582085801836    -0.535929237051
    H            0.887215463711     1.194311402499     0.219284447000
    H            0.815493230127    -0.151488698873     1.318855777338
    C            3.257072567910    -0.194561967455    -0.156769908069
    H            1.677496564335    -0.350942427253    -1.586982413601
    H            1.709204153438    -1.658910336745    -0.439343217346
    C            3.658512721479    -0.537002507290     1.275635087482
    H            3.397770452379     0.869220203511    -0.329949398151
    H            3.936775208616    -0.698643851159    -0.837370382858
    H            3.084983005190     0.024006225583     2.003444165650
    H            4.705662713308    -0.313173749250     1.444536371965
    H            3.510303169690    -1.592774534772     1.479891900998

	Cleaning optimization helper files.


Properties will be evaluated at   0.000000,   0.000000,   0.000000 Bohr

Properties computed using the  density matrix

  Nuclear Dipole Moment: (a.u.)
     X:     7.6674      Y:    -0.8619      Z:     3.4134

  Electronic Dipole Moment: (a.u.)
     X:    -7.4973      Y:     1.2390      Z:    -2.9491

  Dipole Moment: (a.u.)
     X:     0.1701      Y:     0.3771      Z:     0.4643     Total:     0.6218

  Dipole Moment: (Debye)
     X:     0.4322      Y:     0.9584      Z:     1.1801     Total:     1.5805

  Quadrupole Moment: (Debye Ang)
    XX:   -57.2630     YY:   -49.6775     ZZ:   -56.1237
    XY:    -3.2132     XZ:    -5.1426     YZ:    -1.4715

  Traceless Quadrupole Moment: (Debye Ang)
    XX:    -2.9083     YY:     4.6772     ZZ:    -1.7689
    XY:    -3.2132     XZ:    -5.1426     YZ:    -1.4715

  Mulliken Charges: (a.u.)
   Center  Symbol    Alpha    Beta     Spin     Total
       1     H     0.39531  0.39531  0.00000  0.20938
       2     O     4.20370  4.20370  0.00000 -0.40739
       3     C     2.97787  2.97787  0.00000  0.04426
       4     C     3.10178  3.10178  0.00000 -0.20355
       5     H     0.45881  0.45881  0.00000  0.08238
       6     H     0.46027  0.46027  0.00000  0.07946
       7     C     3.08735  3.08735  0.00000 -0.17470
       8     H     0.45914  0.45914  0.00000  0.08172
       9     H     0.45343  0.45343  0.00000  0.09313
      10     C     3.09194  3.09194  0.00000 -0.18388
      11     H     0.44584  0.44584  0.00000  0.10832
      12     H     0.45535  0.45535  0.00000  0.08931
      13     C     3.09481  3.09481  0.00000 -0.18963
      14     H     0.45554  0.45554  0.00000  0.08892
      15     H     0.45383  0.45383  0.00000  0.09235
      16     C     3.09011  3.09011  0.00000 -0.18021
      17     H     0.44951  0.44951  0.00000  0.10097
      18     H     0.45348  0.45348  0.00000  0.09304
      19     C     3.15355  3.15355  0.00000 -0.30710
      20     H     0.45481  0.45481  0.00000  0.09038
      21     H     0.44888  0.44888  0.00000  0.10224
      22     H     0.45363  0.45363  0.00000  0.09274
      23     H     0.44632  0.44632  0.00000  0.10736
      24     H     0.45475  0.45475  0.00000  0.09051

   Total alpha = 33.00000, Total beta = 33.00000, Total charge = -0.00000


*** PSI4 exiting successfully. Buy a developer a beer!
