    -----------------------------------------------------------------------
          Psi4: An Open-Source Ab Initio Electronic Structure Package
                              Psi4 1.0.54 Driver

                          Git: Rev {master} 8d4cec3 dirty

    J. M. Turney, A. C. Simmonett, R. M. Parrish, E. G. Hohenstein,
    F. A. Evangelista, J. T. Fermann, B. J. Mintz, L. A. Burns, J. J. Wilke,
    M. L. Abrams, N. J. Russ, M. L. Leininger, C. L. Janssen, E. T. Seidl,
    W. D. Allen, H. F. Schaefer, R. A. King, E. F. Valeev, C. D. Sherrill,
    and T. D. Crawford, WIREs Comput. Mol. Sci. 2, 556-565 (2012)
    (doi: 10.1002/wcms.93)

                         Additional Contributions by
    A. E. DePrince, U. Bozkaya, A. Yu. Sokolov, D. G. A. Smith, R. Di Remigio,
    R. M. Richard, J. F. Gonthier, H. R. McAlexander, M. Saitow, and
    B. P. Pritchard
    -----------------------------------------------------------------------


    Psi4 started on: Sat Sep 10 15:38:34 2016

    Process ID:  26183
    PSI4DATADIR: /export131/home/mjharvey/miniconda3/share/psi4
    Memory level set to 256.000 MB

  ==> Input File <==

--------------------------------------------------------------------------
set {
	reference rhf
	basis cc-pvtz
}


set_num_threads( 4 )
memory 2 gb

molecule MOL {
0 1

H	 0.250317	 -1.048115	 -1.435363
C	 0.390193	 0.033974	 -1.563251
C	 0.062554	 0.862911	 -0.350953
O	 0.778662	 0.462604	 -2.594039
C	 -1.339253	 0.577611	 0.196911
H	 0.184850	 1.907974	 -0.604690
H	 0.800859	 0.612749	 0.407598
C	 -1.813142	 -0.849710	 -0.061612
H	 -2.032833	 1.276441	 -0.256032
H	 -1.357249	 0.782269	 1.263793
H	 -1.839268	 -1.063526	 -1.124230
H	 -2.810118	 -1.001930	 0.334000
H	 -1.159274	 -1.579980	 0.402282

	symmetry c1
}
set optking {
	frozen_dihedral = ("
		6 3 5 9
	")
}

ee,wfn = optimize('scf', return_wfn=True)
oeprop( wfn, 'DIPOLE', 'QUADRUPOLE', 'MULLIKEN_CHARGES')
f=open( 'psi4out.xyz', 'w' )
f.write( "13  " )
f.write( str(ee) + "\n" )
f.write( MOL.save_string_xyz() )
f.close()
--------------------------------------------------------------------------

  Memory set to   2.000 GiB by Python script.
gradient() will perform analytic gradient computation.

*** tstart() called on cx1-27-2-1
*** at Sat Sep 10 15:38:34 2016


         ---------------------------------------------------------
                                   SCF
            by Justin Turney, Rob Parrish, and Andy Simmonett
                              RHF Reference
                        4 Threads,   2000 MiB Core
         ---------------------------------------------------------

  ==> Geometry <==

    Molecular point group: c1
    Full point group: C1

    Geometry (in Angstrom), charge = 0, multiplicity = 1:

       Center              X                  Y                   Z               Mass       
    ------------   -----------------  -----------------  -----------------  -----------------
           H          0.638425975846    -1.253252972508    -0.549142341534     1.007825032070
           C          0.778301975846    -0.171163972508    -0.677030341534    12.000000000000
           C          0.450662975846     0.657773027492     0.535267658466    12.000000000000
           O          1.166770975846     0.257466027492    -1.707818341534    15.994914619560
           C         -0.951144024154     0.372473027492     1.083131658466    12.000000000000
           H          0.572958975846     1.702836027492     0.281530658466     1.007825032070
           H          1.188967975846     0.407611027492     1.293818658466     1.007825032070
           C         -1.425033024154    -1.054847972508     0.824608658466    12.000000000000
           H         -1.644724024154     1.071303027492     0.630188658466     1.007825032070
           H         -0.969140024154     0.577131027492     2.150013658466     1.007825032070
           H         -1.451159024154    -1.268663972508    -0.238009341534     1.007825032070
           H         -2.422009024154    -1.207067972508     1.220220658466     1.007825032070
           H         -0.771165024154    -1.785117972508     1.288502658466     1.007825032070

  Running in c1 symmetry.

  Rotational constants: A =      0.35565  B =      0.10211  C =      0.08671 [cm^-1]
  Rotational constants: A =  10662.03350  B =   3061.21603  C =   2599.41503 [MHz]
  Nuclear repulsion =  175.245567049784455

  Charge       = 0
  Multiplicity = 1
  Electrons    = 40
  Nalpha       = 20
  Nbeta        = 20

  ==> Algorithm <==

  SCF Algorithm Type is DF.
  DIIS enabled.
  MOM disabled.
  Fractional occupation disabled.
  Guess Type is SAD.
  Energy threshold   = 1.00e-08
  Density threshold  = 1.00e-08
  Integral threshold = 0.00e+00

  ==> Primary Basis <==

  Basis Set: CC-PVTZ
    Number of shells: 98
    Number of basis function: 262
    Number of Cartesian functions: 295
    Spherical Harmonics?: true
    Max angular momentum: 3

  ==> Pre-Iterations <==

   -------------------------------------------------------
    Irrep   Nso     Nmo     Nalpha   Nbeta   Ndocc  Nsocc
   -------------------------------------------------------
     A        262     262       0       0       0       0
   -------------------------------------------------------
    Total     262     262      20      20      20       0
   -------------------------------------------------------

  ==> Integral Setup <==

  ==> DFJK: Density-Fitted J/K Matrices <==

    J tasked:                  Yes
    K tasked:                  Yes
    wK tasked:                  No
    OpenMP threads:              4
    Integrals threads:           4
    Memory (MB):              1430
    Algorithm:                Core
    Integral Cache:           NONE
    Schwarz Cutoff:          1E-12
    Fitting Condition:       1E-12

   => Auxiliary Basis Set <=

  Basis Set: 
    Number of shells: 205
    Number of basis function: 635
    Number of Cartesian functions: 760
    Spherical Harmonics?: true
    Max angular momentum: 4

  Minimum eigenvalue in the overlap matrix is 4.4114506644E-04.
  Using Symmetric Orthogonalization.
  SCF Guess: Superposition of Atomic Densities via on-the-fly atomic UHF.

  ==> Iterations <==

                           Total Energy        Delta E     RMS |[F,P]|

   @DF-RHF iter   0:  -233.08028981290070   -2.33080e+02   1.66886e-02 
   @DF-RHF iter   1:  -230.88829583203719    2.19199e+00   2.10617e-03 
   @DF-RHF iter   2:  -231.00799263781144   -1.19697e-01   1.40869e-03 DIIS
   @DF-RHF iter   3:  -231.05769702078382   -4.97044e-02   3.35614e-04 DIIS
   @DF-RHF iter   4:  -231.06262734689446   -4.93033e-03   5.89072e-05 DIIS
   @DF-RHF iter   5:  -231.06289614677272   -2.68800e-04   1.89981e-05 DIIS
   @DF-RHF iter   6:  -231.06292351303770   -2.73663e-05   6.28451e-06 DIIS
   @DF-RHF iter   7:  -231.06292681154079   -3.29850e-06   2.15257e-06 DIIS
   @DF-RHF iter   8:  -231.06292736788058   -5.56340e-07   8.79753e-07 DIIS
   @DF-RHF iter   9:  -231.06292750712745   -1.39247e-07   3.72185e-07 DIIS
   @DF-RHF iter  10:  -231.06292753619525   -2.90678e-08   1.61741e-07 DIIS
   @DF-RHF iter  11:  -231.06292754196144   -5.76620e-09   6.11960e-08 DIIS
   @DF-RHF iter  12:  -231.06292754275748   -7.96035e-10   1.80994e-08 DIIS
   @DF-RHF iter  13:  -231.06292754280602   -4.85443e-11   5.61698e-09 DIIS

  ==> Post-Iterations <==

    Orbital Energies (a.u.)
    -----------------------

    Doubly Occupied:                                                      

       1A    -20.550378     2A    -11.319136     3A    -11.236497  
       4A    -11.233770     5A    -11.224518     6A     -1.405590  
       7A     -1.090885     8A     -0.971907     9A     -0.862549  
      10A     -0.775955    11A     -0.678986    12A     -0.650020  
      13A     -0.622692    14A     -0.599130    15A     -0.565482  
      16A     -0.532575    17A     -0.519438    18A     -0.494988  
      19A     -0.479616    20A     -0.408327  

    Virtual:                                                              

      21A      0.125777    22A      0.151802    23A      0.160421  
      24A      0.171358    25A      0.191707    26A      0.213900  
      27A      0.224469    28A      0.235544    29A      0.238455  
      30A      0.309137    31A      0.324611    32A      0.340206  
      33A      0.376628    34A      0.391864    35A      0.401728  
      36A      0.421885    37A      0.445024    38A      0.477716  
      39A      0.482480    40A      0.513821    41A      0.571257  
      42A      0.584721    43A      0.590638    44A      0.594689  
      45A      0.604793    46A      0.625903    47A      0.630888  
      48A      0.642210    49A      0.648349    50A      0.664354  
      51A      0.674728    52A      0.687997    53A      0.695955  
      54A      0.720590    55A      0.746972    56A      0.779037  
      57A      0.842464    58A      0.854217    59A      0.883799  
      60A      0.918841    61A      0.930387    62A      0.943161  
      63A      0.961175    64A      0.983006    65A      1.016218  
      66A      1.062549    67A      1.087699    68A      1.120450  
      69A      1.156962    70A      1.191016    71A      1.216273  
      72A      1.222424    73A      1.237047    74A      1.262947  
      75A      1.285825    76A      1.289941    77A      1.304659  
      78A      1.320947    79A      1.329197    80A      1.341919  
      81A      1.364007    82A      1.369867    83A      1.390788  
      84A      1.406924    85A      1.428423    86A      1.455585  
      87A      1.478034    88A      1.485167    89A      1.507197  
      90A      1.520132    91A      1.545311    92A      1.569416  
      93A      1.593804    94A      1.627356    95A      1.641887  
      96A      1.652121    97A      1.668830    98A      1.711685  
      99A      1.739286   100A      1.767150   101A      1.803429  
     102A      1.831590   103A      1.907801   104A      1.924423  
     105A      1.969337   106A      2.068257   107A      2.164920  
     108A      2.314786   109A      2.381783   110A      2.442882  
     111A      2.452769   112A      2.495454   113A      2.539619  
     114A      2.584288   115A      2.628260   116A      2.657747  
     117A      2.732925   118A      2.737230   119A      2.760495  
     120A      2.796889   121A      2.810188   122A      2.845457  
     123A      2.857255   124A      2.864204   125A      2.898582  
     126A      2.938184   127A      2.969330   128A      2.992653  
     129A      3.020660   130A      3.047434   131A      3.065887  
     132A      3.087546   133A      3.119493   134A      3.159499  
     135A      3.176597   136A      3.180193   137A      3.196074  
     138A      3.213554   139A      3.232676   140A      3.273196  
     141A      3.308680   142A      3.321010   143A      3.337873  
     144A      3.365243   145A      3.368210   146A      3.385172  
     147A      3.392127   148A      3.418905   149A      3.424884  
     150A      3.465090   151A      3.478417   152A      3.485189  
     153A      3.501291   154A      3.532257   155A      3.566114  
     156A      3.594870   157A      3.622849   158A      3.632316  
     159A      3.670401   160A      3.691763   161A      3.705125  
     162A      3.729777   163A      3.743188   164A      3.802645  
     165A      3.819020   166A      3.848040   167A      3.854799  
     168A      3.877305   169A      3.889807   170A      3.933456  
     171A      3.965789   172A      3.988524   173A      4.006502  
     174A      4.062485   175A      4.070692   176A      4.072785  
     177A      4.087505   178A      4.121581   179A      4.142979  
     180A      4.165362   181A      4.175868   182A      4.200405  
     183A      4.235693   184A      4.238308   185A      4.251325  
     186A      4.267432   187A      4.298428   188A      4.346395  
     189A      4.352035   190A      4.374711   191A      4.394433  
     192A      4.408433   193A      4.430357   194A      4.453599  
     195A      4.499598   196A      4.517983   197A      4.519636  
     198A      4.549108   199A      4.581510   200A      4.605604  
     201A      4.613459   202A      4.636188   203A      4.652477  
     204A      4.687472   205A      4.719534   206A      4.749952  
     207A      4.788985   208A      4.809328   209A      4.816961  
     210A      4.894349   211A      4.951296   212A      4.978852  
     213A      5.033262   214A      5.057695   215A      5.092869  
     216A      5.147087   217A      5.213324   218A      5.231793  
     219A      5.247472   220A      5.254344   221A      5.272295  
     222A      5.318981   223A      5.364561   224A      5.367578  
     225A      5.395038   226A      5.448213   227A      5.484255  
     228A      5.529894   229A      5.578810   230A      5.623885  
     231A      5.652637   232A      5.695867   233A      5.708459  
     234A      5.730453   235A      5.747076   236A      5.765405  
     237A      5.796362   238A      5.828805   239A      5.870814  
     240A      5.887464   241A      5.923014   242A      5.965540  
     243A      6.082923   244A      6.168525   245A      6.284462  
     246A      6.312526   247A      6.350811   248A      6.372700  
     249A      6.434076   250A      6.785331   251A      6.801018  
     252A      6.916108   253A      6.974152   254A      7.369374  
     255A      7.395003   256A      7.541278   257A      7.592939  
     258A     10.942954   259A     12.712472   260A     13.635024  
     261A     14.228797   262A     14.362527  

    Final Occupation by Irrep:
              A 
    DOCC [    20 ]

  Energy converged.

  @DF-RHF Final Energy:  -231.06292754280602

   => Energetics <=

    Nuclear Repulsion Energy =            175.2455670497844551
    One-Electron Energy =                -660.1721108207073030
    Two-Electron Energy =                 253.8636162281168254
    DFT Exchange-Correlation Energy =       0.0000000000000000
    Empirical Dispersion Energy =           0.0000000000000000
    PCM Polarization Energy =               0.0000000000000000
    EFP Energy =                            0.0000000000000000
    Total Energy =                       -231.0629275428060510


  Saving occupied orbitals to File 180.

*** tstop() called on cx1-27-2-1 at Sat Sep 10 15:38:39 2016
Module time:
	user time   =      15.54 seconds =       0.26 minutes
	system time =       0.44 seconds =       0.01 minutes
	total time  =          5 seconds =       0.08 minutes
Total time:
	user time   =      15.54 seconds =       0.26 minutes
	system time =       0.44 seconds =       0.01 minutes
	total time  =          5 seconds =       0.08 minutes


Properties will be evaluated at   0.000000,   0.000000,   0.000000 Bohr

Properties computed using the SCF density matrix

  Nuclear Dipole Moment: (a.u.)
     X:    -4.5485      Y:    -1.6442      Z:     5.6889

  Electronic Dipole Moment: (a.u.)
     X:     4.0461      Y:     1.3650      Z:    -4.5490

  Dipole Moment: (a.u.)
     X:    -0.5024      Y:    -0.2793      Z:     1.1399     Total:     1.2766

  Dipole Moment: (Debye)
     X:    -1.2769      Y:    -0.7098      Z:     2.8973     Total:     3.2448


*** tstart() called on cx1-27-2-1
*** at Sat Sep 10 15:38:39 2016


         ------------------------------------------------------------
                                   SCF GRAD                          
                          Rob Parrish, Justin Turney,                
                       Andy Simmonett, and Alex Sokolov              
         ------------------------------------------------------------

  ==> Geometry <==

    Molecular point group: c1
    Full point group: C1

    Geometry (in Angstrom), charge = 0, multiplicity = 1:

       Center              X                  Y                   Z               Mass       
    ------------   -----------------  -----------------  -----------------  -----------------
           H          0.638425975846    -1.253252972508    -0.549142341534     1.007825032070
           C          0.778301975846    -0.171163972508    -0.677030341534    12.000000000000
           C          0.450662975846     0.657773027492     0.535267658466    12.000000000000
           O          1.166770975846     0.257466027492    -1.707818341534    15.994914619560
           C         -0.951144024154     0.372473027492     1.083131658466    12.000000000000
           H          0.572958975846     1.702836027492     0.281530658466     1.007825032070
           H          1.188967975846     0.407611027492     1.293818658466     1.007825032070
           C         -1.425033024154    -1.054847972508     0.824608658466    12.000000000000
           H         -1.644724024154     1.071303027492     0.630188658466     1.007825032070
           H         -0.969140024154     0.577131027492     2.150013658466     1.007825032070
           H         -1.451159024154    -1.268663972508    -0.238009341534     1.007825032070
           H         -2.422009024154    -1.207067972508     1.220220658466     1.007825032070
           H         -0.771165024154    -1.785117972508     1.288502658466     1.007825032070

  Nuclear repulsion =  175.245567049784484

  ==> Basis Set <==

  Basis Set: CC-PVTZ
    Number of shells: 98
    Number of basis function: 262
    Number of Cartesian functions: 295
    Spherical Harmonics?: true
    Max angular momentum: 3

  ==> DFJKGrad: Density-Fitted SCF Gradients <==

    Gradient:                    1
    J tasked:                  Yes
    K tasked:                  Yes
    wK tasked:                  No
    OpenMP threads:              4
    Integrals threads:           4
    Memory (MB):              1430
    Schwarz Cutoff:          0E+00
    Fitting Condition:       1E-12

   => Auxiliary Basis Set <=

  Basis Set: 
    Number of shells: 205
    Number of basis function: 635
    Number of Cartesian functions: 760
    Spherical Harmonics?: true
    Max angular momentum: 4


  -Total Gradient:
     Atom            X                  Y                   Z
    ------   -----------------  -----------------  -----------------
       1       -0.005336213115    -0.004356890082     0.001902027290
       2       -0.003171891065     0.002905928411     0.000170240718
       3       -0.003176546122    -0.000315472189     0.000380931893
       4       -0.000230859406    -0.001855629024     0.001547551176
       5        0.003702100083    -0.001319808831    -0.001808627614
       6       -0.000966553915     0.000955183099    -0.001191892280
       7       -0.001139108206     0.000925510392     0.001305202769
       8        0.005081479429     0.000582198831    -0.002231115766
       9        0.001480709239     0.001656991003     0.000820211235
      10        0.000050452568     0.000001796621     0.002163951912
      11        0.004107996824     0.000884189034    -0.002353955085
      12       -0.000431553891    -0.000348782654    -0.000118886254
      13        0.000029987577     0.000284785389    -0.000585639993


*** tstop() called on cx1-27-2-1 at Sat Sep 10 15:38:43 2016
Module time:
	user time   =      14.38 seconds =       0.24 minutes
	system time =       0.34 seconds =       0.01 minutes
	total time  =          4 seconds =       0.07 minutes
Total time:
	user time   =      29.98 seconds =       0.50 minutes
	system time =       0.79 seconds =       0.01 minutes
	total time  =          9 seconds =       0.15 minutes

			-----------------------------------------
			 OPTKING 2.0: for geometry optimizations 
			  - R.A. King,  Bethel University        
			-----------------------------------------

	Internal coordinates to be generated automatically.
	Detected frag 1 with atoms:  1 2 3 4 5 6 7 8 9 10 11 12 13
	---Fragment 1 Bond Connectivity---
	 1 : 2
	 2 : 1 3 4
	 3 : 2 5 6 7
	 4 : 2
	 5 : 3 8 9 10
	 6 : 3
	 7 : 3
	 8 : 5 11 12 13
	 9 : 5
	 10 : 5
	 11 : 8
	 12 : 8
	 13 : 8

	Assuming in current code that numbering for constraints corresponds to unified fragment.
	Frozen dihedral atom list: 
	     6     3     5     9
	---Fragment 1 Geometry and Gradient---
	 H           1.2064502505       -2.3683048933       -1.0377286335
	 C           1.4707775830       -0.3234530319       -1.2794019292
	 C           0.8516296026        1.2430108796        1.0115092823
	 O           2.2048776041        0.4865402805       -3.2273089502
	 C          -1.7974017186        0.7038720138        2.0468222004
	 H           1.0827355497        3.2178937412        0.5320158425
	 H           2.2468238551        0.7702732107        2.4449629301
	 C          -2.6929221460       -1.9933737799        1.5582845313
	 H          -3.1080779698        2.0244693273        1.1908839766
	 H          -1.8314092301        1.0906195848        4.0629369965
	 H          -2.7422931309       -2.3974274627       -0.4497724726
	 H          -4.5769337470       -2.2810278918        2.3058828662
	 H          -1.4572906989       -3.3733840829        2.4349171460
	            -0.0053362131       -0.0043568901        0.0019020273
	            -0.0031718911        0.0029059284        0.0001702407
	            -0.0031765461       -0.0003154722        0.0003809319
	            -0.0002308594       -0.0018556290        0.0015475512
	             0.0037021001       -0.0013198088       -0.0018086276
	            -0.0009665539        0.0009551831       -0.0011918923
	            -0.0011391082        0.0009255104        0.0013052028
	             0.0050814794        0.0005821988       -0.0022311158
	             0.0014807092        0.0016569910        0.0008202112
	             0.0000504526        0.0000017966        0.0021639519
	             0.0041079968        0.0008841890       -0.0023539551
	            -0.0004315539       -0.0003487827       -0.0001188863
	             0.0000299876        0.0002847854       -0.0005856400

	Previous optimization step data not found.  Starting new optimization.

	---Fragment 1 Intrafragment Coordinates---
	 - Coordinate -           - BOHR/RAD -       - ANG/DEG -
	 R(1,2)           =         2.075980	       1.098561
	 R(2,3)           =         2.843489	       1.504709
	 R(2,4)           =         2.233682	       1.182013
	 R(3,5)           =         2.894808	       1.531866
	 R(3,6)           =         2.045357	       1.082356
	 R(3,7)           =         2.055441	       1.087692
	 R(5,8)           =         2.883706	       1.525992
	 R(5,9)           =         2.048043	       1.083778
	 R(5,10)          =         2.053156	       1.086483
	 R(8,11)          =         2.048900	       1.084231
	 R(8,12)          =         2.047229	       1.083347
	 R(8,13)          =         2.049317	       1.084452
	 B(1,2,3)         =         2.005475	     114.905258
	 B(1,2,4)         =         2.095037	     120.036769
	 B(2,3,5)         =         1.965786	     112.631222
	 B(2,3,6)         =         1.894877	     108.568463
	 B(2,3,7)         =         1.862274	     106.700440
	 B(3,2,4)         =         2.182648	     125.056537
	 B(3,5,8)         =         1.979903	     113.440103
	 B(3,5,9)         =         1.892379	     108.425341
	 B(3,5,10)        =         1.908443	     109.345732
	 B(5,3,6)         =         1.946650	     111.534804
	 B(5,3,7)         =         1.905931	     109.201811
	 B(5,8,11)        =         1.936892	     110.975762
	 B(5,8,12)        =         1.934079	     110.814562
	 B(5,8,13)        =         1.949963	     111.724633
	 B(6,3,7)         =         1.884794	     107.990739
	 B(8,5,9)         =         1.910890	     109.485924
	 B(8,5,10)        =         1.914950	     109.718581
	 B(9,5,10)        =         1.852850	     106.160488
	 B(11,8,12)       =         1.883899	     107.939462
	 B(11,8,13)       =         1.876508	     107.515992
	 B(12,8,13)       =         1.879735	     107.700897
	 D(1,2,3,5)       =        -0.925281	     -53.014707
	 D(1,2,3,6)       =        -3.089949	    -177.041030
	 D(1,2,3,7)       =         1.165775	      66.793959
	 D(2,3,5,8)       =         0.514462	      29.476512
	 D(2,3,5,9)       =        -1.612186	     -92.371456
	 D(2,3,5,10)      =         2.658047	     152.294898
	 D(3,5,8,11)      =        -1.039367	     -59.551330
	 D(3,5,8,12)      =        -3.132201	    -179.461889
	 D(3,5,8,13)      =         1.054720	      60.430990
	 D(4,2,3,5)       =         2.223956	     127.423293
	 D(4,2,3,6)       =         0.059288	       3.396970
	 D(4,2,3,7)       =        -1.968174	    -112.768041
	 D(6,3,5,8)       =         2.650247	     151.847990
	*D(6,3,5,9)       =         0.523599	      30.000022
	 D(6,3,5,10)      =        -1.489353	     -85.333624
	 D(7,3,5,8)       =        -1.551158	     -88.874828
	 D(7,3,5,9)       =         2.605379	     149.277204
	 D(7,3,5,10)      =         0.592427	      33.943559
	 D(9,5,8,11)      =         1.076927	      61.703386
	 D(9,5,8,12)      =        -1.015907	     -58.207173
	 D(9,5,8,13)      =        -3.112172	    -178.314293
	 D(10,5,8,11)     =         3.103827	     177.836191
	 D(10,5,8,12)     =         1.010993	      57.925632
	 D(10,5,8,13)     =        -1.085272	     -62.181488

	Current energy   :      -231.0629275428

	Generating empirical Hessian (Schlegel '84) for each fragment.
	Taking RFO optimization step.
	Going to follow RFO solution 1.
	Using RFO vector 1.
	Norm of target step-size    0.43055
	Projected energy change by RFO approximation:        -0.0109514144

	Back-transformation to cartesian coordinates...
	Successfully converged to displaced geometry.

	Back-transformation to cartesian coordinates to adjust frozen coordinates...
	Successfully converged to displaced geometry.

	--- Internal Coordinate Step in ANG or DEG, aJ/ANG or AJ/DEG ---
	 ---------------------------------------------------------------------------
	   Coordinate                Previous        Force       Change         New 
	   ----------                --------       ------       ------       ------
	    1 R(1,2)          =      1.098561    -0.042779     0.012973     1.111535
	    2 R(2,3)          =      1.504709     0.024697     0.033524     1.538234
	    3 R(2,4)          =      1.182013     0.017288     0.014691     1.196704
	    4 R(3,5)          =      1.531866     0.120503     0.026865     1.558731
	    5 R(3,6)          =      1.082356    -0.009001     0.015945     1.098302
	    6 R(3,7)          =      1.087692     0.000625     0.019861     1.107553
	    7 R(5,8)          =      1.525992     0.025908     0.023557     1.549548
	    8 R(5,9)          =      1.083778     0.001829     0.021783     1.105561
	    9 R(5,10)         =      1.086483    -0.017502     0.019109     1.105593
	   10 R(8,11)         =      1.084231    -0.016755     0.019683     1.103914
	   11 R(8,12)         =      1.083347    -0.003318     0.002774     1.086121
	   12 R(8,13)         =      1.084452     0.003495     0.022660     1.107111
	   13 B(1,2,3)        =    114.905258     0.000352     1.954025   116.859283
	   14 B(1,2,4)        =    120.036769    -0.000080    -1.866002   118.170767
	   15 B(2,3,5)        =    112.631222     0.001755     5.880752   118.511974
	   16 B(2,3,6)        =    108.568463    -0.000655    -2.580651   105.987812
	   17 B(2,3,7)        =    106.700440    -0.000572    -1.017215   105.683225
	   18 B(3,2,4)        =    125.056537    -0.000273    -0.660584   124.395954
	   19 B(3,5,8)        =    113.440103     0.001736     5.580755   119.020858
	   20 B(3,5,9)        =    108.425341    -0.000376    -0.281563   108.143778
	   21 B(3,5,10)       =    109.345732    -0.000617    -2.626953   106.718779
	   22 B(5,3,6)        =    111.534804    -0.000562    -2.905001   108.629803
	   23 B(5,3,7)        =    109.201811    -0.000228     0.307823   109.509634
	   24 B(5,8,11)       =    110.975762     0.000308     1.956145   112.931907
	   25 B(5,8,12)       =    110.814562    -0.000134    -2.096605   108.717957
	   26 B(5,8,13)       =    111.724633    -0.000007     0.679731   112.404364
	   27 B(6,3,7)        =    107.990739     0.000211     0.079294   108.070033
	   28 B(8,5,9)        =    109.485924    -0.000532    -0.142545   109.343379
	   29 B(8,5,10)       =    109.718581    -0.000560    -2.012082   107.706499
	   30 B(9,5,10)       =    106.160488     0.000258    -1.142739   105.017749
	   31 B(11,8,12)      =    107.939462    -0.000157    -0.762882   107.176580
	   32 B(11,8,13)      =    107.515992    -0.000028     0.448203   107.964195
	   33 B(12,8,13)      =    107.700897     0.000008    -0.325457   107.375441
	   34 D(1,2,3,5)      =    -53.014707    -0.000073   -11.698601   -64.713308
	   35 D(1,2,3,6)      =   -177.041030    -0.000074    -9.935789  -186.976819
	   36 D(1,2,3,7)      =     66.793959     0.000013    -8.326734    58.467225
	   37 D(2,3,5,8)      =     29.476512     0.000044     5.078099    34.554611
	   38 D(2,3,5,9)      =    -92.371456    -0.000002     1.446762   -90.924695
	   39 D(2,3,5,10)     =    152.294898     0.000050     4.251955   156.546853
	   40 D(3,5,8,11)     =    -59.551330    -0.000055    -5.860150   -65.411480
	   41 D(3,5,8,12)     =   -179.461889    -0.000035    -4.760251  -184.222141
	   42 D(3,5,8,13)     =     60.430990    -0.000016    -3.386760    57.044230
	   43 D(4,2,3,5)      =    127.423293    -0.000033    -3.264603   124.158690
	   44 D(4,2,3,6)      =      3.396970    -0.000034    -1.501791     1.895179
	   45 D(4,2,3,7)      =   -112.768041     0.000053     0.107264  -112.660777
	   46 D(6,3,5,8)      =    151.847990     0.000046     3.631337   155.479327
	   47 *D(6,3,5,9)     =     30.000022    -0.000000    -0.000000    30.000022
	   48 D(6,3,5,10)     =    -85.333624     0.000052     2.805193   -82.528431
	   49 D(7,3,5,8)      =    -88.874828    -0.000008     2.175223   -86.699605
	   50 D(7,3,5,9)      =    149.277204    -0.000054    -1.456114   147.821090
	   51 D(7,3,5,10)     =     33.943559    -0.000001     1.349079    35.292638
	   52 D(9,5,8,11)     =     61.703386     0.000016    -2.212820    59.490566
	   53 D(9,5,8,12)     =    -58.207173     0.000035    -1.112922   -59.320095
	   54 D(9,5,8,13)     =   -178.314293     0.000055     0.260570  -178.053724
	   55 D(10,5,8,11)    =    177.836191    -0.000055    -4.745334   173.090857
	   56 D(10,5,8,12)    =     57.925632    -0.000036    -3.645435    54.280197
	   57 D(10,5,8,13)    =    -62.181488    -0.000016    -2.271944   -64.453432
	 ---------------------------------------------------------------------------
	Successfully symmetrized geometry.

  ==> Convergence Check <==

  Measures of convergence in internal coordinates in au.
  Criteria marked as inactive (o), active & met (*), and active & unmet ( ).
  --------------------------------------------------------------------------------------------- ~
   Step     Total Energy     Delta E     MAX Force     RMS Force      MAX Disp      RMS Disp    ~
  --------------------------------------------------------------------------------------------- ~
    Convergence Criteria    1.00e-06 *    3.00e-04 *             o    1.20e-03 *             o  ~
  --------------------------------------------------------------------------------------------- ~
      1    -231.06292754   -2.31e+02      2.31e-02      5.82e-03 o    2.04e-01      6.04e-02 o  ~
  ---------------------------------------------------------------------------------------------

	Writing optimization data to binary file.
	Structure for next step:
	Cartesian Geometry (in Angstrom)
	    H     0.9060853960  -0.9129416392  -1.0331386520
	    C     0.8512668749   0.1732521747  -0.8036015734
	    C     0.4948113032   0.5610395168   0.6416399772
	    O     1.2163334352   0.9467032561  -1.6406204719
	    C    -0.9162023598   0.1845591780   1.1865668141
	    H     0.6142683404   1.6512346312   0.7005545352
	    H     1.2731430013   0.0953125848   1.2772285000
	    C    -1.5756066182  -1.1365982094   0.7166422265
	    H    -1.6006214158   1.0283802560   0.9821147994
	    H    -0.8315062588   0.1448321395   2.2881943283
	    H    -1.8131506786  -1.1390660841  -0.3614086810
	    H    -2.5115781941  -1.2685351983   1.2516275243
	    H    -0.9455281396  -2.0216942485   0.9294832334
			--------------------------
			 OPTKING Finished Execution 
			--------------------------

    Structure for next step:
    Molecular point group: c1
    Full point group: C1

    Geometry (in Angstrom), charge = 0, multiplicity = 1:

    H            0.895551037537    -1.052941418025    -1.043342472182
    C            0.840732516424     0.033252395828    -0.813805393596
    C            0.484276944707     0.421039737904     0.631436156998
    O            1.205799076751     0.806703477230    -1.650824292014
    C           -0.926736718262     0.044559399097     1.176362993928
    H            0.603733981939     1.511234852337     0.690350715001
    H            1.262608642809    -0.044687194077     1.267024679842
    C           -1.586140976615    -1.276597988276     0.706438406384
    H           -1.611155774200     0.888380477093     0.971910979290
    H           -0.842040617223     0.004832360673     2.277990508100
    H           -1.823685037072    -1.279065862994    -0.371612501109
    H           -2.522112552559    -1.408534977196     1.241423704172
    H           -0.956062498091    -2.161694027380     0.919279413239

gradient() will perform analytic gradient computation.

*** tstart() called on cx1-27-2-1
*** at Sat Sep 10 15:38:44 2016


         ---------------------------------------------------------
                                   SCF
            by Justin Turney, Rob Parrish, and Andy Simmonett
                              RHF Reference
                        4 Threads,   2000 MiB Core
         ---------------------------------------------------------

  ==> Geometry <==

    Molecular point group: c1
    Full point group: C1

    Geometry (in Angstrom), charge = 0, multiplicity = 1:

       Center              X                  Y                   Z               Mass       
    ------------   -----------------  -----------------  -----------------  -----------------
           H          0.895551037537    -1.052941418025    -1.043342472182     1.007825032070
           C          0.840732516424     0.033252395828    -0.813805393596    12.000000000000
           C          0.484276944707     0.421039737904     0.631436156998    12.000000000000
           O          1.205799076751     0.806703477230    -1.650824292014    15.994914619560
           C         -0.926736718262     0.044559399097     1.176362993928    12.000000000000
           H          0.603733981939     1.511234852337     0.690350715001     1.007825032070
           H          1.262608642809    -0.044687194077     1.267024679842     1.007825032070
           C         -1.586140976615    -1.276597988276     0.706438406384    12.000000000000
           H         -1.611155774200     0.888380477093     0.971910979290     1.007825032070
           H         -0.842040617223     0.004832360673     2.277990508100     1.007825032070
           H         -1.823685037072    -1.279065862994    -0.371612501109     1.007825032070
           H         -2.522112552559    -1.408534977196     1.241423704172     1.007825032070
           H         -0.956062498091    -2.161694027380     0.919279413239     1.007825032070

  Running in c1 symmetry.

  Rotational constants: A =      0.37259  B =      0.08779  C =      0.07751 [cm^-1]
  Rotational constants: A =  11169.96028  B =   2631.79682  C =   2323.57267 [MHz]
  Nuclear repulsion =  169.736249614475753

  Charge       = 0
  Multiplicity = 1
  Electrons    = 40
  Nalpha       = 20
  Nbeta        = 20

  ==> Algorithm <==

  SCF Algorithm Type is DF.
  DIIS enabled.
  MOM disabled.
  Fractional occupation disabled.
  Guess Type is READ.
  Energy threshold   = 1.00e-08
  Density threshold  = 1.00e-08
  Integral threshold = 0.00e+00

  ==> Primary Basis <==

  Basis Set: CC-PVTZ
    Number of shells: 98
    Number of basis function: 262
    Number of Cartesian functions: 295
    Spherical Harmonics?: true
    Max angular momentum: 3

  ==> Pre-Iterations <==

   -------------------------------------------------------
    Irrep   Nso     Nmo     Nalpha   Nbeta   Ndocc  Nsocc
   -------------------------------------------------------
     A        262     262       0       0       0       0
   -------------------------------------------------------
    Total     262     262      20      20      20       0
   -------------------------------------------------------

  ==> Integral Setup <==

  ==> DFJK: Density-Fitted J/K Matrices <==

    J tasked:                  Yes
    K tasked:                  Yes
    wK tasked:                  No
    OpenMP threads:              4
    Integrals threads:           4
    Memory (MB):              1430
    Algorithm:                Core
    Integral Cache:           NONE
    Schwarz Cutoff:          1E-12
    Fitting Condition:       1E-12

   => Auxiliary Basis Set <=

  Basis Set: 
    Number of shells: 205
    Number of basis function: 635
    Number of Cartesian functions: 760
    Spherical Harmonics?: true
    Max angular momentum: 4

  Minimum eigenvalue in the overlap matrix is 5.6576439128E-04.
  Using Symmetric Orthogonalization.
  SCF Guess: Reading in previously saved MOs, projecting if necessary.

  Using orbitals from previous SCF, no projection.
  Recomputing DOCC and SOCC from number of alpha and beta electrons from previous calculation.
              A 
    DOCC [    20 ]

  ==> Iterations <==

                           Total Energy        Delta E     RMS |[F,P]|

   @DF-RHF iter   0:  -230.57986831444754   -2.30580e+02   2.98782e-03 
   @DF-RHF iter   1:  -231.03747128840456   -4.57603e-01   7.11628e-04 
   @DF-RHF iter   2:  -231.05742973263619   -1.99584e-02   2.94222e-04 DIIS
   @DF-RHF iter   3:  -231.06034594568541   -2.91621e-03   7.27509e-05 DIIS
   @DF-RHF iter   4:  -231.06065932240966   -3.13377e-04   3.38306e-05 DIIS
   @DF-RHF iter   5:  -231.06069032533412   -3.10029e-05   5.78123e-06 DIIS
   @DF-RHF iter   6:  -231.06069308203229   -2.75670e-06   2.16502e-06 DIIS
   @DF-RHF iter   7:  -231.06069345165730   -3.69625e-07   8.27914e-07 DIIS
   @DF-RHF iter   8:  -231.06069355085941   -9.92021e-08   3.85339e-07 DIIS
   @DF-RHF iter   9:  -231.06069358014116   -2.92818e-08   1.78854e-07 DIIS
   @DF-RHF iter  10:  -231.06069358772839   -7.58723e-09   6.18218e-08 DIIS
   @DF-RHF iter  11:  -231.06069358847554   -7.47150e-10   2.28390e-08 DIIS
   @DF-RHF iter  12:  -231.06069358854523   -6.96900e-11   9.44365e-09 DIIS

  ==> Post-Iterations <==

    Orbital Energies (a.u.)
    -----------------------

    Doubly Occupied:                                                      

       1A    -20.554428     2A    -11.328936     3A    -11.247222  
       4A    -11.246239     5A    -11.232507     6A     -1.398034  
       7A     -1.071861     8A     -0.968914     9A     -0.852534  
      10A     -0.773561    11A     -0.671702    12A     -0.635743  
      13A     -0.612304    14A     -0.598257    15A     -0.562745  
      16A     -0.529849    17A     -0.510740    18A     -0.488235  
      19A     -0.477818    20A     -0.411115  

    Virtual:                                                              

      21A      0.118143    22A      0.149239    23A      0.159648  
      24A      0.170551    25A      0.191227    26A      0.210128  
      27A      0.217806    28A      0.225111    29A      0.237664  
      30A      0.294593    31A      0.321162    32A      0.342238  
      33A      0.375577    34A      0.397302    35A      0.403280  
      36A      0.426390    37A      0.435683    38A      0.452756  
      39A      0.474455    40A      0.509335    41A      0.559029  
      42A      0.572182    43A      0.579690    44A      0.586951  
      45A      0.596856    46A      0.618649    47A      0.621731  
      48A      0.630403    49A      0.641879    50A      0.656358  
      51A      0.666956    52A      0.682023    53A      0.692602  
      54A      0.710863    55A      0.749345    56A      0.778244  
      57A      0.798782    58A      0.838021    59A      0.867153  
      60A      0.897662    61A      0.919792    62A      0.944976  
      63A      0.954983    64A      0.963569    65A      0.994314  
      66A      1.039526    67A      1.089029    68A      1.094935  
      69A      1.128536    70A      1.166930    71A      1.191645  
      72A      1.229968    73A      1.233204    74A      1.249728  
      75A      1.266789    76A      1.273655    77A      1.281589  
      78A      1.304140    79A      1.318532    80A      1.333036  
      81A      1.344895    82A      1.357794    83A      1.362560  
      84A      1.382252    85A      1.397373    86A      1.445552  
      87A      1.460647    88A      1.486778    89A      1.494690  
      90A      1.517433    91A      1.530396    92A      1.550613  
      93A      1.565468    94A      1.583482    95A      1.608124  
      96A      1.643959    97A      1.651908    98A      1.675997  
      99A      1.725209   100A      1.740572   101A      1.779498  
     102A      1.808682   103A      1.879383   104A      1.906029  
     105A      1.964904   106A      2.035220   107A      2.133763  
     108A      2.282179   109A      2.361469   110A      2.446638  
     111A      2.449485   112A      2.477141   113A      2.530874  
     114A      2.600520   115A      2.622166   116A      2.637180  
     117A      2.692277   118A      2.711255   119A      2.721535  
     120A      2.766984   121A      2.786760   122A      2.788749  
     123A      2.825932   124A      2.863277   125A      2.885748  
     126A      2.937653   127A      2.942897   128A      2.979193  
     129A      3.009524   130A      3.014146   131A      3.072317  
     132A      3.081796   133A      3.104885   134A      3.126282  
     135A      3.136208   136A      3.173231   137A      3.177535  
     138A      3.211728   139A      3.236861   140A      3.265180  
     141A      3.292365   142A      3.298850   143A      3.324877  
     144A      3.340370   145A      3.360447   146A      3.371395  
     147A      3.375204   148A      3.398887   149A      3.408223  
     150A      3.429925   151A      3.438392   152A      3.444952  
     153A      3.485236   154A      3.516409   155A      3.552374  
     156A      3.576282   157A      3.578165   158A      3.614256  
     159A      3.636528   160A      3.651747   161A      3.668670  
     162A      3.695698   163A      3.740755   164A      3.763760  
     165A      3.776171   166A      3.786773   167A      3.811076  
     168A      3.829225   169A      3.850589   170A      3.889404  
     171A      3.914028   172A      3.928866   173A      3.969389  
     174A      3.992588   175A      4.015304   176A      4.027015  
     177A      4.050775   178A      4.058545   179A      4.113706  
     180A      4.124900   181A      4.128785   182A      4.149304  
     183A      4.178850   184A      4.205082   185A      4.216583  
     186A      4.226181   187A      4.258215   188A      4.282926  
     189A      4.314485   190A      4.338727   191A      4.349488  
     192A      4.365345   193A      4.383492   194A      4.414394  
     195A      4.463193   196A      4.470653   197A      4.475500  
     198A      4.493072   199A      4.515370   200A      4.540366  
     201A      4.544536   202A      4.598918   203A      4.610796  
     204A      4.623061   205A      4.664289   206A      4.674335  
     207A      4.721047   208A      4.752501   209A      4.766628  
     210A      4.831539   211A      4.854151   212A      4.930874  
     213A      4.993965   214A      5.002598   215A      5.032132  
     216A      5.091105   217A      5.148402   218A      5.169067  
     219A      5.176799   220A      5.198178   221A      5.218672  
     222A      5.250760   223A      5.303035   224A      5.318233  
     225A      5.361332   226A      5.391095   227A      5.414698  
     228A      5.483149   229A      5.524610   230A      5.544840  
     231A      5.587098   232A      5.626875   233A      5.647424  
     234A      5.669070   235A      5.696649   236A      5.702102  
     237A      5.729587   238A      5.759445   239A      5.789640  
     240A      5.820701   241A      5.846170   242A      5.894081  
     243A      6.011628   244A      6.119387   245A      6.252060  
     246A      6.259451   247A      6.295678   248A      6.318828  
     249A      6.395193   250A      6.715560   251A      6.739960  
     252A      6.904927   253A      6.961775   254A      7.261571  
     255A      7.355782   256A      7.521763   257A      7.569167  
     258A     10.519353   259A     12.252629   260A     13.094786  
     261A     13.719834   262A     13.949046  

    Final Occupation by Irrep:
              A 
    DOCC [    20 ]

  Energy converged.

  @DF-RHF Final Energy:  -231.06069358854523

   => Energetics <=

    Nuclear Repulsion Energy =            169.7362496144757529
    One-Electron Energy =                -649.2483977395152124
    Two-Electron Energy =                 248.4514545364941114
    DFT Exchange-Correlation Energy =       0.0000000000000000
    Empirical Dispersion Energy =           0.0000000000000000
    PCM Polarization Energy =               0.0000000000000000
    EFP Energy =                            0.0000000000000000
    Total Energy =                       -231.0606935885453481


  Saving occupied orbitals to File 180.

*** tstop() called on cx1-27-2-1 at Sat Sep 10 15:38:47 2016
Module time:
	user time   =      12.21 seconds =       0.20 minutes
	system time =       0.19 seconds =       0.00 minutes
	total time  =          3 seconds =       0.05 minutes
Total time:
	user time   =      44.15 seconds =       0.74 minutes
	system time =       1.07 seconds =       0.02 minutes
	total time  =         13 seconds =       0.22 minutes


Properties will be evaluated at   0.000000,   0.000000,   0.000000 Bohr

Properties computed using the SCF density matrix

  Nuclear Dipole Moment: (a.u.)
     X:    -4.6751      Y:    -3.3171      Z:     5.5728

  Electronic Dipole Moment: (a.u.)
     X:     4.2029      Y:     2.6727      Z:    -4.5605

  Dipole Moment: (a.u.)
     X:    -0.4722      Y:    -0.6444      Z:     1.0124     Total:     1.2896

  Dipole Moment: (Debye)
     X:    -1.2003      Y:    -1.6380      Z:     2.5732     Total:     3.2779


*** tstart() called on cx1-27-2-1
*** at Sat Sep 10 15:38:47 2016


         ------------------------------------------------------------
                                   SCF GRAD                          
                          Rob Parrish, Justin Turney,                
                       Andy Simmonett, and Alex Sokolov              
         ------------------------------------------------------------

  ==> Geometry <==

    Molecular point group: c1
    Full point group: C1

    Geometry (in Angstrom), charge = 0, multiplicity = 1:

       Center              X                  Y                   Z               Mass       
    ------------   -----------------  -----------------  -----------------  -----------------
           H          0.895551037537    -1.052941418025    -1.043342472182     1.007825032070
           C          0.840732516424     0.033252395828    -0.813805393596    12.000000000000
           C          0.484276944707     0.421039737904     0.631436156998    12.000000000000
           O          1.205799076751     0.806703477230    -1.650824292014    15.994914619560
           C         -0.926736718262     0.044559399097     1.176362993928    12.000000000000
           H          0.603733981939     1.511234852337     0.690350715001     1.007825032070
           H          1.262608642809    -0.044687194077     1.267024679842     1.007825032070
           C         -1.586140976615    -1.276597988276     0.706438406384    12.000000000000
           H         -1.611155774200     0.888380477093     0.971910979290     1.007825032070
           H         -0.842040617223     0.004832360673     2.277990508100     1.007825032070
           H         -1.823685037072    -1.279065862994    -0.371612501109     1.007825032070
           H         -2.522112552559    -1.408534977196     1.241423704172     1.007825032070
           H         -0.956062498091    -2.161694027380     0.919279413239     1.007825032070

  Nuclear repulsion =  169.736249614475696

  ==> Basis Set <==

  Basis Set: CC-PVTZ
    Number of shells: 98
    Number of basis function: 262
    Number of Cartesian functions: 295
    Spherical Harmonics?: true
    Max angular momentum: 3

  ==> DFJKGrad: Density-Fitted SCF Gradients <==

    Gradient:                    1
    J tasked:                  Yes
    K tasked:                  Yes
    wK tasked:                  No
    OpenMP threads:              4
    Integrals threads:           4
    Memory (MB):              1430
    Schwarz Cutoff:          0E+00
    Fitting Condition:       1E-12

   => Auxiliary Basis Set <=

  Basis Set: 
    Number of shells: 205
    Number of basis function: 635
    Number of Cartesian functions: 760
    Spherical Harmonics?: true
    Max angular momentum: 4


  -Total Gradient:
     Atom            X                  Y                   Z
    ------   -----------------  -----------------  -----------------
       1        0.007104479517    -0.009652563901    -0.003869832532
       2       -0.016366366018    -0.005923971043     0.005149148218
       3       -0.001974125827    -0.002059395595     0.006602009431
       4        0.014319363979     0.014294069088    -0.020746937978
       5        0.004469747912    -0.003661410202    -0.006541465231
       6       -0.001093040275     0.011758062051    -0.001586623006
       7        0.009117330240    -0.004310614285     0.009226592882
       8       -0.009262744376     0.001537377525     0.005385409225
       9       -0.007723573981     0.012697177071     0.000587194039
      10        0.000987567388    -0.001130384282     0.013873976920
      11       -0.004589068169    -0.001242770504    -0.012475172875
      12       -0.002001483565     0.000265323464     0.001425779279
      13        0.007011913174    -0.012570899387     0.002969921632


*** tstop() called on cx1-27-2-1 at Sat Sep 10 15:38:51 2016
Module time:
	user time   =      14.74 seconds =       0.25 minutes
	system time =       0.39 seconds =       0.01 minutes
	total time  =          4 seconds =       0.07 minutes
Total time:
	user time   =      58.99 seconds =       0.98 minutes
	system time =       1.47 seconds =       0.02 minutes
	total time  =         17 seconds =       0.28 minutes

			-----------------------------------------
			 OPTKING 2.0: for geometry optimizations 
			  - R.A. King,  Bethel University        
			-----------------------------------------

	Previous internal coordinate definitions found.
	---Fragment 1 Geometry and Gradient---
	 H           1.6923461990       -1.9897709140       -1.9716315352
	 C           1.5887542071        0.0628379214       -1.5378693194
	 C           0.9151507980        0.7956497957        1.1932414071
	 O           2.2786300263        1.5244486424       -3.1196058054
	 C          -1.7512785948        0.0842050609        2.2230038914
	 H           1.1408918830        2.8558199934        1.3045737870
	 H           2.3859845479       -0.0844465585        2.3943296485
	 C          -2.9973720539       -2.4124205796        1.3349751178
	 H          -3.0446431707        1.6787958035        1.8366455764
	 H          -1.5912261593        0.0091318382        4.3047781936
	 H          -3.4462652727       -2.4170841870       -0.7022458547
	 H          -4.7661020007       -2.6617453555        2.3459508158
	 H          -1.8066962873       -4.0850096948        1.7371863306
	             0.0071044795       -0.0096525639       -0.0038698325
	            -0.0163663660       -0.0059239710        0.0051491482
	            -0.0019741258       -0.0020593956        0.0066020094
	             0.0143193640        0.0142940691       -0.0207469380
	             0.0044697479       -0.0036614102       -0.0065414652
	            -0.0010930403        0.0117580621       -0.0015866230
	             0.0091173302       -0.0043106143        0.0092265929
	            -0.0092627444        0.0015373775        0.0053854092
	            -0.0077235740        0.0126971771        0.0005871940
	             0.0009875674       -0.0011303843        0.0138739769
	            -0.0045890682       -0.0012427705       -0.0124751729
	            -0.0020014836        0.0002653235        0.0014257793
	             0.0070119132       -0.0125708994        0.0029699216

	---Fragment 1 Intrafragment Coordinates---
	 - Coordinate -           - BOHR/RAD -       - ANG/DEG -
	 R(1,2)           =         2.100496	       1.111535
	 R(2,3)           =         2.906840	       1.538234
	 R(2,4)           =         2.261443	       1.196704
	 R(3,5)           =         2.945575	       1.558731
	 R(3,6)           =         2.075489	       1.098302
	 R(3,7)           =         2.092973	       1.107553
	 R(5,8)           =         2.928222	       1.549548
	 R(5,9)           =         2.089207	       1.105561
	 R(5,10)          =         2.089267	       1.105593
	 R(8,11)          =         2.086096	       1.103914
	 R(8,12)          =         2.052472	       1.086121
	 R(8,13)          =         2.092137	       1.107111
	 B(1,2,3)         =         2.039579	     116.859283
	 B(1,2,4)         =         2.062469	     118.170767
	 B(2,3,5)         =         2.068424	     118.511974
	 B(2,3,6)         =         1.849836	     105.987812
	 B(2,3,7)         =         1.844520	     105.683225
	 B(3,2,4)         =         2.171119	     124.395954
	 B(3,5,8)         =         2.077306	     119.020858
	 B(3,5,9)         =         1.887465	     108.143778
	 B(3,5,10)        =         1.862594	     106.718779
	 B(5,3,6)         =         1.895948	     108.629803
	 B(5,3,7)         =         1.911304	     109.509634
	 B(5,8,11)        =         1.971034	     112.931907
	 B(5,8,12)        =         1.897486	     108.717957
	 B(5,8,13)        =         1.961826	     112.404364
	 B(6,3,7)         =         1.886178	     108.070033
	 B(8,5,9)         =         1.908402	     109.343379
	 B(8,5,10)        =         1.879833	     107.706499
	 B(9,5,10)        =         1.832905	     105.017749
	 B(11,8,12)       =         1.870584	     107.176580
	 B(11,8,13)       =         1.884331	     107.964195
	 B(12,8,13)       =         1.874055	     107.375441
	 D(1,2,3,5)       =        -1.129460	     -64.713308
	 D(1,2,3,6)       =         3.019824	     173.023181
	 D(1,2,3,7)       =         1.020446	      58.467225
	 D(2,3,5,8)       =         0.603092	      34.554611
	 D(2,3,5,9)       =        -1.586935	     -90.924695
	 D(2,3,5,10)      =         2.732258	     156.546853
	 D(3,5,8,11)      =        -1.141646	     -65.411480
	 D(3,5,8,12)      =         3.067902	     175.777859
	 D(3,5,8,13)      =         0.995610	      57.044230
	 D(4,2,3,5)       =         2.166978	     124.158690
	 D(4,2,3,6)       =         0.033077	       1.895179
	 D(4,2,3,7)       =        -1.966301	    -112.660777
	 D(6,3,5,8)       =         2.713626	     155.479327
	*D(6,3,5,9)       =         0.523599	      30.000022
	 D(6,3,5,10)      =        -1.440393	     -82.528431
	 D(7,3,5,8)       =        -1.513194	     -86.699605
	 D(7,3,5,9)       =         2.579965	     147.821090
	 D(7,3,5,10)      =         0.615973	      35.292638
	 D(9,5,8,11)      =         1.038306	      59.490566
	 D(9,5,8,12)      =        -1.035331	     -59.320095
	 D(9,5,8,13)      =        -3.107624	    -178.053724
	 D(10,5,8,11)     =         3.021005	     173.090857
	 D(10,5,8,12)     =         0.947368	      54.280197
	 D(10,5,8,13)     =        -1.124925	     -64.453432

	Current energy   :      -231.0606935885

	Energy change for the previous step:
		Projected    :        -0.0109514144
		Actual       :         0.0022339543

	Performing BFGS update.
	Previous computed or guess Hessian on step 1.
	Steps to be used in Hessian update: 1
	Taking RFO optimization step.
	Going to follow RFO solution 1.
	Using RFO vector 1.
	Norm of target step-size    0.29110
	Projected energy change by RFO approximation:        -0.0082499915

	Back-transformation to cartesian coordinates...
	Successfully converged to displaced geometry.

	Back-transformation to cartesian coordinates to adjust frozen coordinates...
	Successfully converged to displaced geometry.

	--- Internal Coordinate Step in ANG or DEG, aJ/ANG or AJ/DEG ---
	 ---------------------------------------------------------------------------
	   Coordinate                Previous        Force       Change         New 
	   ----------                --------       ------       ------       ------
	    1 R(1,2)          =      1.111535    -0.087182    -0.019056     1.092478
	    2 R(2,3)          =      1.538234    -0.163011    -0.031534     1.506700
	    3 R(2,4)          =      1.196704    -0.231656    -0.014062     1.182642
	    4 R(3,5)          =      1.558731    -0.106061    -0.012606     1.546125
	    5 R(3,6)          =      1.098302    -0.094476    -0.017690     1.080612
	    6 R(3,7)          =      1.107553    -0.111343    -0.020589     1.086964
	    7 R(5,8)          =      1.549548    -0.122098    -0.022605     1.526943
	    8 R(5,9)          =      1.105561    -0.118341    -0.022026     1.083534
	    9 R(5,10)         =      1.105593    -0.114852    -0.022092     1.083500
	   10 R(8,11)         =      1.103914    -0.108530    -0.021718     1.082196
	   11 R(8,12)         =      1.086121    -0.019731    -0.003522     1.082599
	   12 R(8,13)         =      1.107111    -0.120381    -0.022557     1.084555
	   13 B(1,2,3)        =    116.859283    -0.000100    -0.124468   116.734815
	   14 B(1,2,4)        =    118.170767     0.000430     0.821499   118.992265
	   15 B(2,3,5)        =    118.511974    -0.000849    -1.683470   116.828504
	   16 B(2,3,6)        =    105.987812     0.000211    -0.279858   105.707953
	   17 B(2,3,7)        =    105.683225     0.000188    -0.013339   105.669886
	   18 B(3,2,4)        =    124.395954    -0.000268    -0.139983   124.255971
	   19 B(3,5,8)        =    119.020858    -0.000799    -1.066945   117.953914
	   20 B(3,5,9)        =    108.143778     0.000282     0.702863   108.846641
	   21 B(3,5,10)       =    106.718779     0.000226     0.189011   106.907790
	   22 B(5,3,6)        =    108.629803     0.000329     1.096312   109.726115
	   23 B(5,3,7)        =    109.509634     0.000246     0.760424   110.270058
	   24 B(5,8,11)       =    112.931907    -0.000196    -0.710663   112.221243
	   25 B(5,8,12)       =    108.717957     0.000150     0.987995   109.705952
	   26 B(5,8,13)       =    112.404364    -0.000141    -0.621850   111.782514
	   27 B(6,3,7)        =    108.070033    -0.000092     0.166014   108.236047
	   28 B(8,5,9)        =    109.343379     0.000207     0.289802   109.633180
	   29 B(8,5,10)       =    107.706499     0.000257     0.218355   107.924854
	   30 B(9,5,10)       =    105.017749    -0.000106    -0.273290   104.744459
	   31 B(11,8,12)      =    107.176580     0.000066     0.126648   107.303228
	   32 B(11,8,13)      =    107.964195     0.000101     0.113060   108.077255
	   33 B(12,8,13)      =    107.375441     0.000038     0.165393   107.540833
	   34 D(1,2,3,5)      =    -64.713308     0.000071     3.461252   -61.252056
	   35 D(1,2,3,6)      =    173.023181     0.000064     3.370707   176.393888
	   36 D(1,2,3,7)      =     58.467225     0.000048     3.312003    61.779228
	   37 D(2,3,5,8)      =     34.554611    -0.000009     0.869902    35.424513
	   38 D(2,3,5,9)      =    -90.924695     0.000012     0.682726   -90.241969
	   39 D(2,3,5,10)     =    156.546853    -0.000015     0.577812   157.124665
	   40 D(3,5,8,11)     =    -65.411480     0.000017    -1.220552   -66.632032
	   41 D(3,5,8,12)     =    175.777859     0.000002    -1.592754   174.185105
	   42 D(3,5,8,13)     =     57.044230    -0.000011    -2.060454    54.983776
	   43 D(4,2,3,5)      =    124.158690    -0.000048    -6.927773   117.230917
	   44 D(4,2,3,6)      =      1.895179    -0.000055    -7.018318    -5.123140
	   45 D(4,2,3,7)      =   -112.660777    -0.000071    -7.077022  -119.737799
	   46 D(6,3,5,8)      =    155.479327    -0.000021     0.187176   155.666504
	   47 *D(6,3,5,9)     =     30.000022    -0.000000     0.000000    30.000022
	   48 D(6,3,5,10)     =    -82.528431    -0.000027    -0.104914   -82.633344
	   49 D(7,3,5,8)      =    -86.699605     0.000029     1.497442   -85.202163
	   50 D(7,3,5,9)      =    147.821090     0.000050     1.310265   149.131355
	   51 D(7,3,5,10)     =     35.292638     0.000023     1.205351    36.497989
	   52 D(9,5,8,11)     =     59.490566     0.000001    -0.841350    58.649216
	   53 D(9,5,8,12)     =    -59.320095    -0.000013    -1.213552   -60.533647
	   54 D(9,5,8,13)     =   -178.053724    -0.000026    -1.681252  -179.734976
	   55 D(10,5,8,11)    =    173.090857     0.000028    -0.901152   172.189706
	   56 D(10,5,8,12)    =     54.280197     0.000013    -1.273354    53.006843
	   57 D(10,5,8,13)    =    -64.453432    -0.000000    -1.741054   -66.194486
	 ---------------------------------------------------------------------------
	Successfully symmetrized geometry.

  ==> Convergence Check <==

  Measures of convergence in internal coordinates in au.
  Criteria marked as inactive (o), active & met (*), and active & unmet ( ).
  ---------------------------------------------------------------------------------------------
   Step     Total Energy     Delta E     MAX Force     RMS Force      MAX Disp      RMS Disp   
  ---------------------------------------------------------------------------------------------
    Convergence Criteria    1.00e-06 *    3.00e-04 *             o    1.20e-03 *             o
  ---------------------------------------------------------------------------------------------
      2    -231.06069359    2.23e-03      2.81e-02      7.57e-03 o    1.24e-01      3.83e-02 o  ~
  ---------------------------------------------------------------------------------------------

	Writing optimization data to binary file.
	Structure for next step:
	Cartesian Geometry (in Angstrom)
	    H     0.7470754629  -1.0088137200  -1.0550949470
	    C     0.7814198302   0.0517656997  -0.7952856830
	    C     0.4988963406   0.4071682785   0.6413819852
	    O     1.0077377616   0.8429635102  -1.6446551926
	    C    -0.8957760763   0.0302973472   1.1921616232
	    H     0.6423478311   1.4758835900   0.7120330364
	    H     1.2775636490  -0.0797233905   1.2228496100
	    C    -1.5346675624  -1.2652258480   0.6971952480
	    H    -1.5740857331   0.8582790049   1.0236700977
	    H    -0.8020716814  -0.0345429798   2.2696530319
	    H    -1.7852970485  -1.2221197013  -0.3546959768
	    H    -2.4531380737  -1.4498174427   1.2397433068
	    H    -0.8852366738  -2.1196331159   0.8536767581
			--------------------------
			 OPTKING Finished Execution 
			--------------------------

    Structure for next step:
    Molecular point group: c1
    Full point group: C1

    Geometry (in Angstrom), charge = 0, multiplicity = 1:

    H            0.782512565848    -1.016622619823    -1.061720403196
    C            0.816856933177     0.043956799910    -0.801911139205
    C            0.534333443532     0.399359378673     0.634756528992
    O            1.043174864536     0.835154610352    -1.651280648860
    C           -0.860338973362     0.022488447369     1.185536166915
    H            0.677784934009     1.468074690216     0.705407580180
    H            1.313000751889    -0.087532290353     1.216224153731
    C           -1.499230459463    -1.273034747804     0.690569791763
    H           -1.538648630190     0.850470105047     1.017044641504
    H           -0.766634578428    -0.042351879596     2.263027575642
    H           -1.749859945608    -1.229928601117    -0.361321433032
    H           -2.417700970741    -1.457626342542     1.233117850581
    H           -0.849799570911    -2.127442015680     0.847051301897

gradient() will perform analytic gradient computation.

*** tstart() called on cx1-27-2-1
*** at Sat Sep 10 15:38:52 2016


         ---------------------------------------------------------
                                   SCF
            by Justin Turney, Rob Parrish, and Andy Simmonett
                              RHF Reference
                        4 Threads,   2000 MiB Core
         ---------------------------------------------------------

  ==> Geometry <==

    Molecular point group: c1
    Full point group: C1

    Geometry (in Angstrom), charge = 0, multiplicity = 1:

       Center              X                  Y                   Z               Mass       
    ------------   -----------------  -----------------  -----------------  -----------------
           H          0.782512565848    -1.016622619823    -1.061720403196     1.007825032070
           C          0.816856933177     0.043956799910    -0.801911139205    12.000000000000
           C          0.534333443532     0.399359378673     0.634756528992    12.000000000000
           O          1.043174864536     0.835154610352    -1.651280648860    15.994914619560
           C         -0.860338973362     0.022488447369     1.185536166915    12.000000000000
           H          0.677784934009     1.468074690216     0.705407580180     1.007825032070
           H          1.313000751889    -0.087532290353     1.216224153731     1.007825032070
           C         -1.499230459463    -1.273034747804     0.690569791763    12.000000000000
           H         -1.538648630190     0.850470105047     1.017044641504     1.007825032070
           H         -0.766634578428    -0.042351879596     2.263027575642     1.007825032070
           H         -1.749859945608    -1.229928601117    -0.361321433032     1.007825032070
           H         -2.417700970741    -1.457626342542     1.233117850581     1.007825032070
           H         -0.849799570911    -2.127442015680     0.847051301897     1.007825032070

  Running in c1 symmetry.

  Rotational constants: A =      0.36829  B =      0.09361  C =      0.08226 [cm^-1]
  Rotational constants: A =  11041.16371  B =   2806.26458  C =   2466.15423 [MHz]
  Nuclear repulsion =  172.954241329587916

  Charge       = 0
  Multiplicity = 1
  Electrons    = 40
  Nalpha       = 20
  Nbeta        = 20

  ==> Algorithm <==

  SCF Algorithm Type is DF.
  DIIS enabled.
  MOM disabled.
  Fractional occupation disabled.
  Guess Type is READ.
  Energy threshold   = 1.00e-08
  Density threshold  = 1.00e-08
  Integral threshold = 0.00e+00

  ==> Primary Basis <==

  Basis Set: CC-PVTZ
    Number of shells: 98
    Number of basis function: 262
    Number of Cartesian functions: 295
    Spherical Harmonics?: true
    Max angular momentum: 3

  ==> Pre-Iterations <==

   -------------------------------------------------------
    Irrep   Nso     Nmo     Nalpha   Nbeta   Ndocc  Nsocc
   -------------------------------------------------------
     A        262     262       0       0       0       0
   -------------------------------------------------------
    Total     262     262      20      20      20       0
   -------------------------------------------------------

  ==> Integral Setup <==

  ==> DFJK: Density-Fitted J/K Matrices <==

    J tasked:                  Yes
    K tasked:                  Yes
    wK tasked:                  No
    OpenMP threads:              4
    Integrals threads:           4
    Memory (MB):              1430
    Algorithm:                Core
    Integral Cache:           NONE
    Schwarz Cutoff:          1E-12
    Fitting Condition:       1E-12

   => Auxiliary Basis Set <=

  Basis Set: 
    Number of shells: 205
    Number of basis function: 635
    Number of Cartesian functions: 760
    Spherical Harmonics?: true
    Max angular momentum: 4

  Minimum eigenvalue in the overlap matrix is 5.1810587961E-04.
  Using Symmetric Orthogonalization.
  SCF Guess: Reading in previously saved MOs, projecting if necessary.

  Using orbitals from previous SCF, no projection.
  Recomputing DOCC and SOCC from number of alpha and beta electrons from previous calculation.
              A 
    DOCC [    20 ]

  ==> Iterations <==

                           Total Energy        Delta E     RMS |[F,P]|

   @DF-RHF iter   0:  -231.11436017286204   -2.31114e+02   1.05461e-03 
   @DF-RHF iter   1:  -231.06350491576157    5.08553e-02   1.50408e-04 
   @DF-RHF iter   2:  -231.06484945965477   -1.34454e-03   7.19752e-05 DIIS
   @DF-RHF iter   3:  -231.06511480207487   -2.65342e-04   3.98031e-05 DIIS
   @DF-RHF iter   4:  -231.06523125258875   -1.16451e-04   1.39121e-05 DIIS
   @DF-RHF iter   5:  -231.06525708104172   -2.58285e-05   7.24218e-06 DIIS
   @DF-RHF iter   6:  -231.06526700951022   -9.92847e-06   2.59052e-06 DIIS
   @DF-RHF iter   7:  -231.06526836254082   -1.35303e-06   1.16004e-06 DIIS
   @DF-RHF iter   8:  -231.06526862393142   -2.61391e-07   4.66449e-07 DIIS
   @DF-RHF iter   9:  -231.06526866165265   -3.77212e-08   1.15865e-07 DIIS
   @DF-RHF iter  10:  -231.06526866353593   -1.88328e-09   2.71605e-08 DIIS
   @DF-RHF iter  11:  -231.06526866362688   -9.09495e-11   6.10455e-09 DIIS

  ==> Post-Iterations <==

    Orbital Energies (a.u.)
    -----------------------

    Doubly Occupied:                                                      

       1A    -20.551108     2A    -11.319826     3A    -11.237838  
       4A    -11.235153     5A    -11.223977     6A     -1.406248  
       7A     -1.082791     8A     -0.976901     9A     -0.858703  
      10A     -0.778776    11A     -0.679110    12A     -0.642740  
      13A     -0.617566    14A     -0.603778    15A     -0.567901  
      16A     -0.533710    17A     -0.514262    18A     -0.491323  
      19A     -0.481282    20A     -0.410651  

    Virtual:                                                              

      21A      0.123232    22A      0.152667    23A      0.160811  
      24A      0.174005    25A      0.193050    26A      0.213298  
      27A      0.218548    28A      0.227469    29A      0.238689  
      30A      0.302122    31A      0.326437    32A      0.342359  
      33A      0.376232    34A      0.396982    35A      0.404384  
      36A      0.426802    37A      0.441071    38A      0.456413  
      39A      0.478413    40A      0.513595    41A      0.569722  
      42A      0.574071    43A      0.586079    44A      0.596563  
      45A      0.602565    46A      0.628004    47A      0.631759  
      48A      0.643516    49A      0.651217    50A      0.665784  
      51A      0.669979    52A      0.685750    53A      0.696642  
      54A      0.719538    55A      0.754796    56A      0.779466  
      57A      0.814798    58A      0.852060    59A      0.869313  
      60A      0.907028    61A      0.923749    62A      0.945617  
      63A      0.961576    64A      0.974848    65A      1.010979  
      66A      1.052024    67A      1.095831    68A      1.114204  
      69A      1.136264    70A      1.188099    71A      1.197581  
      72A      1.231987    73A      1.242133    74A      1.257728  
      75A      1.272839    76A      1.284333    77A      1.289187  
      78A      1.316788    79A      1.324443    80A      1.330608  
      81A      1.363242    82A      1.373259    83A      1.380177  
      84A      1.389602    85A      1.409554    86A      1.462654  
      87A      1.483438    88A      1.485179    89A      1.499372  
      90A      1.521178    91A      1.538780    92A      1.566517  
      93A      1.573320    94A      1.603445    95A      1.630603  
      96A      1.663634    97A      1.673967    98A      1.698355  
      99A      1.748667   100A      1.766514   101A      1.797969  
     102A      1.831433   103A      1.904758   104A      1.915986  
     105A      1.965164   106A      2.061834   107A      2.162840  
     108A      2.289066   109A      2.364514   110A      2.440614  
     111A      2.451194   112A      2.475053   113A      2.535088  
     114A      2.606457   115A      2.632048   116A      2.646246  
     117A      2.685209   118A      2.706480   119A      2.740270  
     120A      2.780127   121A      2.789917   122A      2.804236  
     123A      2.852113   124A      2.875346   125A      2.900238  
     126A      2.956347   127A      2.963402   128A      3.007055  
     129A      3.015494   130A      3.029836   131A      3.083277  
     132A      3.093091   133A      3.117610   134A      3.142163  
     135A      3.152877   136A      3.171127   137A      3.193779  
     138A      3.226887   139A      3.242011   140A      3.276309  
     141A      3.295600   142A      3.310368   143A      3.345872  
     144A      3.353698   145A      3.372484   146A      3.381638  
     147A      3.393113   148A      3.414559   149A      3.418724  
     150A      3.436920   151A      3.471594   152A      3.476084  
     153A      3.501345   154A      3.525231   155A      3.572211  
     156A      3.590725   157A      3.619947   158A      3.624709  
     159A      3.662097   160A      3.686262   161A      3.698490  
     162A      3.715527   163A      3.762533   164A      3.794832  
     165A      3.800870   166A      3.827988   167A      3.840207  
     168A      3.857054   169A      3.879570   170A      3.929642  
     171A      3.937386   172A      3.951157   173A      4.002857  
     174A      4.041565   175A      4.048176   176A      4.064116  
     177A      4.075453   178A      4.098376   179A      4.147218  
     180A      4.154133   181A      4.160673   182A      4.170361  
     183A      4.216781   184A      4.230105   185A      4.245521  
     186A      4.264413   187A      4.295821   188A      4.315311  
     189A      4.356297   190A      4.377508   191A      4.388088  
     192A      4.400251   193A      4.415663   194A      4.446293  
     195A      4.487630   196A      4.519784   197A      4.523444  
     198A      4.531030   199A      4.559309   200A      4.587147  
     201A      4.593728   202A      4.645282   203A      4.651236  
     204A      4.664383   205A      4.706656   206A      4.710330  
     207A      4.775976   208A      4.805865   209A      4.823750  
     210A      4.872654   211A      4.926234   212A      4.986315  
     213A      5.038963   214A      5.053215   215A      5.090948  
     216A      5.143561   217A      5.217196   218A      5.226261  
     219A      5.238817   220A      5.248166   221A      5.269715  
     222A      5.307048   223A      5.363026   224A      5.372971  
     225A      5.418418   226A      5.438244   227A      5.481674  
     228A      5.536475   229A      5.574281   230A      5.612386  
     231A      5.654521   232A      5.679292   233A      5.705810  
     234A      5.739217   235A      5.746230   236A      5.760929  
     237A      5.799106   238A      5.841308   239A      5.874745  
     240A      5.878567   241A      5.911950   242A      5.957281  
     243A      6.072243   244A      6.166275   245A      6.285928  
     246A      6.298717   247A      6.335365   248A      6.359809  
     249A      6.429811   250A      6.773325   251A      6.784063  
     252A      6.916262   253A      6.968891   254A      7.362710  
     255A      7.380235   256A      7.537134   257A      7.588128  
     258A     10.846217   259A     12.716055   260A     13.555464  
     261A     14.176599   262A     14.314569  

    Final Occupation by Irrep:
              A 
    DOCC [    20 ]

  Energy converged.

  @DF-RHF Final Energy:  -231.06526866362688

   => Energetics <=

    Nuclear Repulsion Energy =            172.9542413295879157
    One-Electron Energy =                -655.6117358283153180
    Two-Electron Energy =                 251.5922258351006064
    DFT Exchange-Correlation Energy =       0.0000000000000000
    Empirical Dispersion Energy =           0.0000000000000000
    PCM Polarization Energy =               0.0000000000000000
    EFP Energy =                            0.0000000000000000
    Total Energy =                       -231.0652686636267674


  Saving occupied orbitals to File 180.

*** tstop() called on cx1-27-2-1 at Sat Sep 10 15:38:56 2016
Module time:
	user time   =      12.30 seconds =       0.20 minutes
	system time =       0.23 seconds =       0.00 minutes
	total time  =          4 seconds =       0.07 minutes
Total time:
	user time   =      72.32 seconds =       1.21 minutes
	system time =       1.73 seconds =       0.03 minutes
	total time  =         22 seconds =       0.37 minutes


Properties will be evaluated at   0.000000,   0.000000,   0.000000 Bohr

Properties computed using the SCF density matrix

  Nuclear Dipole Moment: (a.u.)
     X:    -4.2599      Y:    -3.4111      Z:     5.4845

  Electronic Dipole Moment: (a.u.)
     X:     3.8989      Y:     2.7466      Z:    -4.4715

  Dipole Moment: (a.u.)
     X:    -0.3609      Y:    -0.6645      Z:     1.0130     Total:     1.2642

  Dipole Moment: (Debye)
     X:    -0.9174      Y:    -1.6890      Z:     2.5749     Total:     3.2131


*** tstart() called on cx1-27-2-1
*** at Sat Sep 10 15:38:56 2016


         ------------------------------------------------------------
                                   SCF GRAD                          
                          Rob Parrish, Justin Turney,                
                       Andy Simmonett, and Alex Sokolov              
         ------------------------------------------------------------

  ==> Geometry <==

    Molecular point group: c1
    Full point group: C1

    Geometry (in Angstrom), charge = 0, multiplicity = 1:

       Center              X                  Y                   Z               Mass       
    ------------   -----------------  -----------------  -----------------  -----------------
           H          0.782512565848    -1.016622619823    -1.061720403196     1.007825032070
           C          0.816856933177     0.043956799910    -0.801911139205    12.000000000000
           C          0.534333443532     0.399359378673     0.634756528992    12.000000000000
           O          1.043174864536     0.835154610352    -1.651280648860    15.994914619560
           C         -0.860338973362     0.022488447369     1.185536166915    12.000000000000
           H          0.677784934009     1.468074690216     0.705407580180     1.007825032070
           H          1.313000751889    -0.087532290353     1.216224153731     1.007825032070
           C         -1.499230459463    -1.273034747804     0.690569791763    12.000000000000
           H         -1.538648630190     0.850470105047     1.017044641504     1.007825032070
           H         -0.766634578428    -0.042351879596     2.263027575642     1.007825032070
           H         -1.749859945608    -1.229928601117    -0.361321433032     1.007825032070
           H         -2.417700970741    -1.457626342542     1.233117850581     1.007825032070
           H         -0.849799570911    -2.127442015680     0.847051301897     1.007825032070

  Nuclear repulsion =  172.954241329587916

  ==> Basis Set <==

  Basis Set: CC-PVTZ
    Number of shells: 98
    Number of basis function: 262
    Number of Cartesian functions: 295
    Spherical Harmonics?: true
    Max angular momentum: 3

  ==> DFJKGrad: Density-Fitted SCF Gradients <==

    Gradient:                    1
    J tasked:                  Yes
    K tasked:                  Yes
    wK tasked:                  No
    OpenMP threads:              4
    Integrals threads:           4
    Memory (MB):              1430
    Schwarz Cutoff:          0E+00
    Fitting Condition:       1E-12

   => Auxiliary Basis Set <=

  Basis Set: 
    Number of shells: 205
    Number of basis function: 635
    Number of Cartesian functions: 760
    Spherical Harmonics?: true
    Max angular momentum: 4


  -Total Gradient:
     Atom            X                  Y                   Z
[...]
           H         -0.745997534391    -0.016063839965     2.269129615255     1.007825032070
           H         -1.600883555005    -1.208714858031    -0.406937156814     1.007825032070
           H         -2.368375380682    -1.438147545213     1.145064371359     1.007825032070
           H         -0.775551981682    -2.101617207546     0.857234777550     1.007825032070

  Nuclear repulsion =  174.303925191510359

  ==> Basis Set <==

  Basis Set: CC-PVTZ
    Number of shells: 98
    Number of basis function: 262
    Number of Cartesian functions: 295
    Spherical Harmonics?: true
    Max angular momentum: 3

  ==> DFJKGrad: Density-Fitted SCF Gradients <==

    Gradient:                    1
    J tasked:                  Yes
    K tasked:                  Yes
    wK tasked:                  No
    OpenMP threads:              4
    Integrals threads:           4
    Memory (MB):              1430
    Schwarz Cutoff:          0E+00
    Fitting Condition:       1E-12

   => Auxiliary Basis Set <=

  Basis Set: 
    Number of shells: 205
    Number of basis function: 635
    Number of Cartesian functions: 760
    Spherical Harmonics?: true
    Max angular momentum: 4


  -Total Gradient:
     Atom            X                  Y                   Z
    ------   -----------------  -----------------  -----------------
       1       -0.000002358977     0.000010027630    -0.000009824153
       2        0.000002200880    -0.000032937190     0.000039369764
       3        0.002566939030    -0.000218789849     0.006644783910
       4       -0.000000904289     0.000013043878    -0.000011461205
       5       -0.001860022495    -0.002229612294    -0.006474911901
       6       -0.001835999926     0.000542858060    -0.004584974615
       7        0.000012171749    -0.000003505205    -0.000007749688
       8       -0.000003164296     0.000010970038     0.000016696192
       9        0.001129693788     0.001918843746     0.004379990249
      10       -0.000009575267    -0.000015208954     0.000003440154
      11        0.000003769714     0.000006933325    -0.000002581256
      12       -0.000007584811    -0.000000449043     0.000004986205
      13        0.000004834899    -0.000002174143     0.000002236341


*** tstop() called on cx1-27-2-1 at Sat Sep 10 15:39:54 2016
Module time:
	user time   =      14.30 seconds =       0.24 minutes
	system time =       0.34 seconds =       0.01 minutes
	total time  =          4 seconds =       0.07 minutes
Total time:
	user time   =     277.68 seconds =       4.63 minutes
	system time =       6.17 seconds =       0.10 minutes
	total time  =         80 seconds =       1.33 minutes

			-----------------------------------------
			 OPTKING 2.0: for geometry optimizations 
			  - R.A. King,  Bethel University        
			-----------------------------------------

	Previous internal coordinate definitions found.
	---Fragment 1 Geometry and Gradient---
	 H           1.7650046217       -1.9667279736       -1.8780690149
	 C           1.5360181639        0.0513693669       -1.4773825803
	 C           1.1353485802        0.7490396359        1.2564062657
	 O           1.6185223229        1.5323505083       -3.1504929529
	 C          -1.5278908416        0.0865587173        2.2447759637
	 H           1.4366849312        2.7667761063        1.3714100772
	 H           2.5607573071       -0.2245338032        2.3650554111
	 C          -2.6802284143       -2.3617139776        1.2483969908
	 H          -2.7755975490        1.6682044151        1.8778973538
	 H          -1.4097310358       -0.0303562582        4.2880335329
	 H          -3.0252314896       -2.2841400544       -0.7689997797
	 H          -4.4755808494       -2.7177049991        2.1638580664
	 H          -1.4655808472       -3.9714809584        1.6199389612
	            -0.0000023590        0.0000100276       -0.0000098242
	             0.0000022009       -0.0000329372        0.0000393698
	             0.0025669390       -0.0002187898        0.0066447839
	            -0.0000009043        0.0000130439       -0.0000114612
	            -0.0018600225       -0.0022296123       -0.0064749119
	            -0.0018359999        0.0005428581       -0.0045849746
	             0.0000121717       -0.0000035052       -0.0000077497
	            -0.0000031643        0.0000109700        0.0000166962
	             0.0011296938        0.0019188437        0.0043799902
	            -0.0000095753       -0.0000152090        0.0000034402
	             0.0000037697        0.0000069333       -0.0000025813
	            -0.0000075848       -0.0000004490        0.0000049862
	             0.0000048349       -0.0000021741        0.0000022363

	---Fragment 1 Intrafragment Coordinates---
	 - Coordinate -           - BOHR/RAD -       - ANG/DEG -
	 R(1,2)           =         2.070194	       1.095499
	 R(2,3)           =         2.849716	       1.508005
	 R(2,4)           =         2.235936	       1.183206
	 R(3,5)           =         2.916950	       1.543584
	 R(3,6)           =         2.043353	       1.081296
	 R(3,7)           =         2.051521	       1.085618
	 R(5,8)           =         2.883521	       1.525893
	 R(5,9)           =         2.047676	       1.083583
	 R(5,10)          =         2.050008	       1.084817
	 R(8,11)          =         2.048154	       1.083836
	 R(8,12)          =         2.046482	       1.082952
	 R(8,13)          =         2.050552	       1.085105
	 B(1,2,3)         =         2.026271	     116.096770
	 B(1,2,4)         =         2.090674	     119.786819
	 B(2,3,5)         =         1.979937	     113.442034
	 B(2,3,6)         =         1.849396	     105.962593
	 B(2,3,7)         =         1.880260	     107.730943
	 B(3,2,4)         =         2.166234	     124.116082
	 B(3,5,8)         =         2.027086	     116.143452
	 B(3,5,9)         =         1.896733	     108.674773
	 B(3,5,10)        =         1.873444	     107.340410
	 B(5,3,6)         =         1.917545	     109.867211
	 B(5,3,7)         =         1.921421	     110.089321
	 B(5,8,11)        =         1.955745	     112.055913
	 B(5,8,12)        =         1.921663	     110.103183
	 B(5,8,13)        =         1.946809	     111.543920
	 B(6,3,7)         =         1.913180	     109.617147
	 B(8,5,9)         =         1.928800	     110.512078
	 B(8,5,10)        =         1.895487	     108.603416
	 B(9,5,10)        =         1.831490	     104.936654
	 B(11,8,12)       =         1.874891	     107.423339
	 B(11,8,13)       =         1.883868	     107.937714
	 B(12,8,13)       =         1.877638	     107.580742
	 D(1,2,3,5)       =        -1.288111	     -73.803298
	 D(1,2,3,6)       =         2.889908	     165.579552
	 D(1,2,3,7)       =         0.843289	      48.316904
	 D(2,3,5,8)       =         0.644366	      36.919462
	 D(2,3,5,9)       =        -1.542620	     -88.385602
	 D(2,3,5,10)      =         2.768525	     158.624822
	 D(3,5,8,11)      =        -1.131285	     -64.817840
	 D(3,5,8,12)      =         3.066344	     175.688552
	 D(3,5,8,13)      =         0.983108	      56.327943
	 D(4,2,3,5)       =         1.857141	     106.406321
	 D(4,2,3,6)       =        -0.248026	     -14.210830
	 D(4,2,3,7)       =        -2.294645	    -131.473477
	 D(6,3,5,8)       =         2.710585	     155.305087
	*D(6,3,5,9)       =         0.523599	      30.000022
	 D(6,3,5,10)      =        -1.448441	     -82.989554
	 D(7,3,5,8)       =        -1.463985	     -83.880134
	 D(7,3,5,9)       =         2.632215	     150.814801
	 D(7,3,5,10)      =         0.660175	      37.825225
	 D(9,5,8,11)      =         1.039298	      59.547417
	 D(9,5,8,12)      =        -1.046258	     -59.946191
	 D(9,5,8,13)      =        -3.129494	    -179.306799
	 D(10,5,8,11)     =         3.039470	     174.148810
	 D(10,5,8,12)     =         0.953913	      54.655202
	 D(10,5,8,13)     =        -1.129322	     -64.705407

	Current energy   :      -231.0660249957

	Energy change for the previous step:
		Projected    :        -0.0000013331
		Actual       :        -0.0000004042

	Performing BFGS update.
	Previous computed or guess Hessian on step 1.
	Steps to be used in Hessian update: 9 8
	Taking RFO optimization step.
	Going to follow RFO solution 1.
	Rejecting RFO root 1 because normalization gives large value.
	Rejecting RFO root 2 because normalization gives large value.
	Using RFO vector 3.
	Norm of target step-size    0.00089
	Projected energy change by RFO approximation:         0.0000000281

	Back-transformation to cartesian coordinates...
	Successfully converged to displaced geometry.

	Back-transformation to cartesian coordinates to adjust frozen coordinates...
	Successfully converged to displaced geometry.

	--- Internal Coordinate Step in ANG or DEG, aJ/ANG or AJ/DEG ---
	 ---------------------------------------------------------------------------
	   Coordinate                Previous        Force       Change         New 
	   ----------                --------       ------       ------       ------
	    1 R(1,2)          =      1.095499     0.000067     0.000010     1.095509
	    2 R(2,3)          =      1.508005     0.000124     0.000021     1.508026
	    3 R(2,4)          =      1.183206    -0.000142    -0.000002     1.183204
	    4 R(3,5)          =      1.543584    -0.000384    -0.000061     1.543522
	    5 R(3,6)          =      1.081296    -0.000060    -0.000012     1.081284
	    6 R(3,7)          =      1.085618    -0.000049    -0.000012     1.085606
	    7 R(5,8)          =      1.525893     0.000161     0.000026     1.525919
	    8 R(5,9)          =      1.083583    -0.000074    -0.000014     1.083569
	    9 R(5,10)         =      1.084817    -0.000031    -0.000007     1.084811
	   10 R(8,11)         =      1.083836    -0.000018    -0.000004     1.083832
	   11 R(8,12)         =      1.082952    -0.000074    -0.000010     1.082941
	   12 R(8,13)         =      1.085105    -0.000041    -0.000006     1.085099
	   13 B(1,2,3)        =    116.096770    -0.000001    -0.006184   116.090587
	   14 B(1,2,4)        =    119.786819     0.000000     0.003919   119.790737
	   15 B(2,3,5)        =    113.442034     0.000001    -0.001878   113.440156
	   16 B(2,3,6)        =    105.962593    -0.000000    -0.001400   105.961193
	   17 B(2,3,7)        =    107.730943     0.000001     0.004217   107.735160
	   18 B(3,2,4)        =    124.116082     0.000001     0.002268   124.118351
	   19 B(3,5,8)        =    116.143452    -0.000001    -0.000515   116.142937
	   20 B(3,5,9)        =    108.674773    -0.000000    -0.007441   108.667332
	   21 B(3,5,10)       =    107.340410    -0.000000    -0.004649   107.335760
	   22 B(5,3,6)        =    109.867211     0.000000     0.000772   109.867983
	   23 B(5,3,7)        =    110.089321    -0.000001    -0.005355   110.083965
	   24 B(5,8,11)       =    112.055913     0.000001     0.002777   112.058690
	   25 B(5,8,12)       =    110.103183    -0.000000     0.000680   110.103863
	   26 B(5,8,13)       =    111.543920     0.000000    -0.000036   111.543884
	   27 B(6,3,7)        =    109.617147     0.000000     0.004114   109.621261
	   28 B(8,5,9)        =    110.512078     0.000001     0.000152   110.512230
	   29 B(8,5,10)       =    108.603416     0.000001     0.012312   108.615727
	   30 B(9,5,10)       =    104.936654    -0.000000     0.000236   104.936890
	   31 B(11,8,12)      =    107.423339    -0.000000    -0.001665   107.421674
	   32 B(11,8,13)      =    107.937714    -0.000000    -0.000956   107.936758
	   33 B(12,8,13)      =    107.580742    -0.000000    -0.001032   107.579710
	   34 D(1,2,3,5)      =    -73.803298     0.000000    -0.013590   -73.816888
	   35 D(1,2,3,6)      =    165.579552    -0.000000    -0.012499   165.567053
	   36 D(1,2,3,7)      =     48.316904    -0.000000    -0.018601    48.298303
	   37 D(2,3,5,8)      =     36.919462    -0.000000    -0.003990    36.915473
	   38 D(2,3,5,9)      =    -88.385602    -0.000000     0.002453   -88.383150
	   39 D(2,3,5,10)     =    158.624822     0.000000     0.008091   158.632913
	   40 D(3,5,8,11)     =    -64.817840     0.000000    -0.001397   -64.819237
	   41 D(3,5,8,12)     =    175.688552     0.000000    -0.001561   175.686990
	   42 D(3,5,8,13)     =     56.327943     0.000000    -0.000694    56.327249
	   43 D(4,2,3,5)      =    106.406321     0.000000    -0.014633   106.391688
	   44 D(4,2,3,6)      =    -14.210830     0.000000    -0.013541   -14.224371
	   45 D(4,2,3,7)      =   -131.473477    -0.000000    -0.019643  -131.493120
	   46 D(6,3,5,8)      =    155.305087     0.000000    -0.006442   155.298644
	   47 *D(6,3,5,9)     =     30.000022    -0.000000    -0.000000    30.000022
	   48 D(6,3,5,10)     =    -82.989554     0.000000     0.005638   -82.983916
	   49 D(7,3,5,8)      =    -83.880134    -0.000000    -0.004261   -83.884395
	   50 D(7,3,5,9)      =    150.814801    -0.000000     0.002182   150.816983
	   51 D(7,3,5,10)     =     37.825225     0.000000     0.007820    37.833045
	   52 D(9,5,8,11)     =     59.547417    -0.000000    -0.011830    59.535587
	   53 D(9,5,8,12)     =    -59.946191    -0.000000    -0.011995   -59.958185
	   54 D(9,5,8,13)     =   -179.306799    -0.000000    -0.011128  -179.317927
	   55 D(10,5,8,11)    =    174.148810     0.000000    -0.004501   174.144309
	   56 D(10,5,8,12)    =     54.655202     0.000000    -0.004665    54.650537
	   57 D(10,5,8,13)    =    -64.705407     0.000000    -0.003798   -64.709205
	 ---------------------------------------------------------------------------
	Successfully symmetrized geometry.

  ==> Convergence Check <==

  Measures of convergence in internal coordinates in au.
  Criteria marked as inactive (o), active & met (*), and active & unmet ( ).
  ---------------------------------------------------------------------------------------------
   Step     Total Energy     Delta E     MAX Force     RMS Force      MAX Disp      RMS Disp   
  ---------------------------------------------------------------------------------------------
    Convergence Criteria    1.00e-06 *    3.00e-04 *             o    1.20e-03 *             o
  ---------------------------------------------------------------------------------------------
     10    -231.06602500   -4.04e-07 *    4.66e-05 *    9.90e-06 o    3.43e-04 *    1.18e-04 o  ~
  ---------------------------------------------------------------------------------------------


  **** Optimization is complete! (in 10 steps) ****

  ==> Optimization Summary <==

  Measures of convergence in internal coordinates in au.
  --------------------------------------------------------------------------------------------------------------- ~
   Step         Total Energy             Delta E       MAX Force       RMS Force        MAX Disp        RMS Disp  ~
  --------------------------------------------------------------------------------------------------------------- ~
      1    -231.062927542806   -231.062927542806      0.02306966      0.00581923      0.20417910      0.06035108  ~
      2    -231.060693588545      0.002233954261      0.02811795      0.00757368      0.12351734      0.03829460  ~
      3    -231.065268663627     -0.004575075082      0.00846699      0.00203865      0.20606042      0.05318666  ~
      4    -231.061902181246      0.003366482381      0.01835244      0.00505251      0.11397004      0.03693246  ~
      5    -231.065769759192     -0.003867577946      0.00848324      0.00135038      0.05500255      0.02347505  ~
      6    -231.065959161785     -0.000189402593      0.00162441      0.00028612      0.04589240      0.01655527  ~
      7    -231.065993127194     -0.000033965409      0.00065062      0.00019289      0.05068463      0.01627871  ~
      8    -231.066018011859     -0.000024884664      0.00188069      0.00027316      0.03184806      0.00975730  ~
      9    -231.066024591523     -0.000006579664      0.00069418      0.00009970      0.00125502      0.00037824  ~
     10    -231.066024995748     -0.000000404225      0.00004662      0.00000990      0.00034284      0.00011833  ~
  --------------------------------------------------------------------------------------------------------------- ~

	Writing optimization data to binary file.
	Final energy is   -231.0660249957482
	Final (previous) structure:
	Cartesian Geometry (in Angstrom)
	    H     0.9340002189  -1.0407476191  -0.9938313188
	    C     0.8128258043   0.0271834982  -0.7817971899
	    C     0.6008005925   0.3963747036   0.6648615606
	    O     0.8564851249   0.8108849646  -1.6671690665
	    C    -0.8085250106   0.0458049004   1.1878842784
	    H     0.7602609215   1.4641148567   0.7257189565
	    H     1.3550944036  -0.1188181712   1.2515334206
	    C    -1.4183157906  -1.2497652102   0.6606232348
	    H    -1.4687829632   0.8827757557   0.9937404797
	    H    -0.7459975344  -0.0160638400   2.2691296153
	    H    -1.6008835550  -1.2087148580  -0.4069371568
	    H    -2.3683753807  -1.4381475452   1.1450643714
	    H    -0.7755519817  -2.1016172075   0.8572347775
	Saving final (previous) structure.
			--------------------------
			 OPTKING Finished Execution 
			--------------------------

    Final optimized geometry and variables:
    Molecular point group: c1
    Full point group: C1

    Geometry (in Angstrom), charge = 0, multiplicity = 1:

    H            0.934000218870    -1.040747619116    -0.993831318844
    C            0.812825804335     0.027183498178    -0.781797189861
    C            0.600800592460     0.396374703639     0.664861560555
    O            0.856485124864     0.810884964575    -1.667169066484
    C           -0.808525010576     0.045804900379     1.187884278376
    H            0.760260921517     1.464114856747     0.725718956492
    H            1.355094403648    -0.118818171235     1.251533420615
    C           -1.418315790647    -1.249765210159     0.660623234786
    H           -1.468782963158     0.882775755749     0.993740479696
    H           -0.745997534391    -0.016063839965     2.269129615255
    H           -1.600883555005    -1.208714858031    -0.406937156814
    H           -2.368375380682    -1.438147545213     1.145064371359
    H           -0.775551981682    -2.101617207546     0.857234777550

	Cleaning optimization helper files.


Properties will be evaluated at   0.000000,   0.000000,   0.000000 Bohr

Properties computed using the  density matrix

  Nuclear Dipole Moment: (a.u.)
     X:    -3.6616      Y:    -3.3496      Z:     5.4684

  Electronic Dipole Moment: (a.u.)
     X:     3.4634      Y:     2.6964      Z:    -4.4305

  Dipole Moment: (a.u.)
     X:    -0.1982      Y:    -0.6532      Z:     1.0378     Total:     1.2422

  Dipole Moment: (Debye)
     X:    -0.5038      Y:    -1.6603      Z:     2.6379     Total:     3.1573

  Quadrupole Moment: (Debye Ang)
    XX:   -31.2479     YY:   -32.7242     ZZ:   -36.4094
    XY:    -1.6623     XZ:     1.9729     YZ:     3.1177

  Traceless Quadrupole Moment: (Debye Ang)
    XX:     2.2126     YY:     0.7363     ZZ:    -2.9489
    XY:    -1.6623     XZ:     1.9729     YZ:     3.1177

  Mulliken Charges: (a.u.)
   Center  Symbol    Alpha    Beta     Spin     Total
       1     H     0.46172  0.46172  0.00000  0.07657
       2     C     2.90562  2.90562  0.00000  0.18876
       3     C     3.09072  3.09072  0.00000 -0.18143
       4     O     4.16581  4.16581  0.00000 -0.33162
       5     C     3.08980  3.08980  0.00000 -0.17960
       6     H     0.44025  0.44025  0.00000  0.11950
       7     H     0.44916  0.44916  0.00000  0.10169
       8     C     3.15830  3.15830  0.00000 -0.31661
       9     H     0.44510  0.44510  0.00000  0.10979
      10     H     0.44976  0.44976  0.00000  0.10048
      11     H     0.44920  0.44920  0.00000  0.10160
      12     H     0.44266  0.44266  0.00000  0.11468
      13     H     0.45191  0.45191  0.00000  0.09619

   Total alpha = 20.00000, Total beta = 20.00000, Total charge = -0.00000


*** Psi4 exiting successfully. Buy a developer a beer!
