    -----------------------------------------------------------------------
          Psi4: An Open-Source Ab Initio Electronic Structure Package
                              Psi4 (no tag) Driver

                          Git: Rev {detached?}  

    J. M. Turney, A. C. Simmonett, R. M. Parrish, E. G. Hohenstein,
    F. A. Evangelista, J. T. Fermann, B. J. Mintz, L. A. Burns, J. J. Wilke,
    M. L. Abrams, N. J. Russ, M. L. Leininger, C. L. Janssen, E. T. Seidl,
    W. D. Allen, H. F. Schaefer, R. A. King, E. F. Valeev, C. D. Sherrill,
    and T. D. Crawford, WIREs Comput. Mol. Sci. 2, 556-565 (2012)
    (doi: 10.1002/wcms.93)

                         Additional Contributions by
    A. E. DePrince, M. Saitow, U. Bozkaya, A. Yu. Sokolov
    -----------------------------------------------------------------------


    Psi4 started on: Fri Sep  9 21:39:42 2016

    Process ID:  40681
    PSI4DATADIR: /export131/home/mjharvey/miniconda3/share
    Memory level set to 256.000 MB

  ==> Input File <==

--------------------------------------------------------------------------
set {
	reference rhf
	basis cc-pvtz
}


set_num_threads( 4 )
memory 2 gb

molecule MOL {
0 1

H	 -2.249742	 -0.523525	 -0.688013
O	 -2.041679	 -0.058866	 0.103463
C	 -0.959304	 0.780994	 -0.094939
C	 0.354905	 0.037902	 -0.006215
H	 -0.985899	 1.279578	 -1.057596
H	 -0.969809	 1.529522	 0.682889
F	 0.412060	 -0.931028	 -0.902708
F	 1.359641	 0.856111	 -0.239961
F	 0.545380	 -0.506387	 1.171682

	symmetry c1
}
set optking {
	frozen_dihedral = ("
		1 2 3 5
	")
}

ee = optimize('scf')
oeprop('DIPOLE', 'QUADRUPOLE', 'MULLIKEN_CHARGES')
f=open( 'psi4out.xyz', 'w' )
f.write( "9  " )
f.write( str(ee) + "\n" )
f.write( MOL.save_string_xyz() )
f.close()
--------------------------------------------------------------------------

  Memory set to   2.000 GiB by Python script.
gradient() will perform analytic gradient computation.

*** tstart() called on cx1-27-3-4
*** at Fri Sep  9 21:39:42 2016


         ---------------------------------------------------------
                                   SCF
            by Justin Turney, Rob Parrish, and Andy Simmonett
                              RHF Reference
                        4 Threads,   2000 MiB Core
         ---------------------------------------------------------

  ==> Geometry <==

    Molecular point group: c1
    Full point group: C1

    Geometry (in Angstrom), charge = 0, multiplicity = 1:

       Center              X                  Y                   Z               Mass       
    ------------   -----------------  -----------------  -----------------  -----------------
           H         -2.248474293140    -0.524972875757    -0.687225094210     1.007825032070
           O         -2.040411293140    -0.060313875757     0.104250905790    15.994914619560
           C         -0.958036293140     0.779546124243    -0.094151094210    12.000000000000
           C          0.356172706860     0.036454124243    -0.005427094210    12.000000000000
           H         -0.984631293140     1.278130124243    -1.056808094210     1.007825032070
           H         -0.968541293140     1.528074124243     0.683676905790     1.007825032070
           F          0.413327706860    -0.932475875757    -0.901920094210    18.998403224000
           F          1.360908706860     0.854663124243    -0.239173094210    18.998403224000
           F          0.546647706860    -0.507834875757     1.172469905790    18.998403224000

  Running in c1 symmetry.

  Rotational constants: A =      0.18341  B =      0.09618  C =      0.09512 [cm^-1]
  Rotational constants: A =   5498.57817  B =   2883.39942  C =   2851.55634 [MHz]
  Nuclear repulsion =  277.498054005739732

  Charge       = 0
  Multiplicity = 1
  Electrons    = 50
  Nalpha       = 25
  Nbeta        = 25

  ==> Algorithm <==

  SCF Algorithm Type is DF.
  DIIS enabled.
  MOM disabled.
  Fractional occupation disabled.
  Guess Type is CORE.
  Energy threshold   = 1.00e-08
  Density threshold  = 1.00e-08
  Integral threshold = 0.00e+00

  ==> Primary Basis <==

  Basis Set: CC-PVTZ
    Number of shells: 78
    Number of basis function: 222
    Number of Cartesian functions: 255
    Spherical Harmonics?: true
    Max angular momentum: 3

  ==> Pre-Iterations <==

   -------------------------------------------------------
    Irrep   Nso     Nmo     Nalpha   Nbeta   Ndocc  Nsocc
   -------------------------------------------------------
     A        222     222       0       0       0       0
   -------------------------------------------------------
    Total     222     222      25      25      25       0
   -------------------------------------------------------

 OEINTS: Overlap, kinetic, potential, dipole, and quadrupole integrals
         stored in file 35.

  ==> Integral Setup <==

  ==> DFJK: Density-Fitted J/K Matrices <==

    J tasked:                  Yes
    K tasked:                  Yes
    wK tasked:                  No
    OpenMP threads:              4
    Integrals threads:           4
    Memory (MB):              1430
    Algorithm:                Core
    Integral Cache:           NONE
    Schwarz Cutoff:          1E-12
    Fitting Condition:       1E-12

   => Auxiliary Basis Set <=

  Basis Set: 
    Number of shells: 180
    Number of basis function: 564
    Number of Cartesian functions: 681
    Spherical Harmonics?: true
    Max angular momentum: 4

  Minimum eigenvalue in the overlap matrix is 1.0132074290E-03.
  Using Symmetric Orthogonalization.
  SCF Guess: Core (One-Electron) Hamiltonian.

  ==> Iterations <==

                           Total Energy        Delta E     RMS |[F,P]|

   @DF-RHF iter   1:  -373.72584530054382   -3.73726e+02   7.62678e-02 
   @DF-RHF iter   2:  -297.99969306084120    7.57262e+01   4.23871e-02 DIIS
   @DF-RHF iter   3:  -376.35734796871964   -7.83577e+01   4.43673e-02 DIIS
   @DF-RHF iter   4:  -415.24792883899568   -3.88906e+01   2.90627e-02 DIIS
   @DF-RHF iter   5:  -448.63614962869917   -3.33882e+01   1.17614e-02 DIIS
   @DF-RHF iter   6:  -450.54551264653901   -1.90936e+00   4.41220e-03 DIIS
   @DF-RHF iter   7:  -450.83716002774190   -2.91647e-01   6.50144e-04 DIIS
   @DF-RHF iter   8:  -450.84579767906848   -8.63765e-03   2.00204e-04 DIIS
   @DF-RHF iter   9:  -450.84679279053319   -9.95111e-04   7.73903e-05 DIIS
   @DF-RHF iter  10:  -450.84694709265773   -1.54302e-04   3.05265e-05 DIIS
   @DF-RHF iter  11:  -450.84696923580645   -2.21431e-05   7.26169e-06 DIIS
   @DF-RHF iter  12:  -450.84697079551302   -1.55971e-06   1.95020e-06 DIIS
   @DF-RHF iter  13:  -450.84697092485271   -1.29340e-07   7.84338e-07 DIIS
   @DF-RHF iter  14:  -450.84697094484829   -1.99956e-08   2.56255e-07 DIIS
   @DF-RHF iter  15:  -450.84697094698663   -2.13834e-09   6.48517e-08 DIIS
   @DF-RHF iter  16:  -450.84697094719616   -2.09525e-10   1.49797e-08 DIIS
   @DF-RHF iter  17:  -450.84697094720661   -1.04592e-11   3.66406e-09 DIIS

  ==> Post-Iterations <==

    Orbital Energies (a.u.)
    -----------------------

    Doubly Occupied:                                                      

       1A    -26.338313     2A    -26.336395     3A    -26.333912  
       4A    -20.584037     5A    -11.491823     6A    -11.310129  
       7A     -1.745710     8A     -1.643020     9A     -1.640520  
      10A     -1.407324    11A     -1.050095    12A     -0.928173  
      13A     -0.835934    14A     -0.834566    15A     -0.806983  
      16A     -0.735040    17A     -0.716871    18A     -0.704870  
      19A     -0.670162    20A     -0.663646    21A     -0.647245  
      22A     -0.633342    23A     -0.613686    24A     -0.535646  
      25A     -0.484634  

    Virtual:                                                              

      26A      0.135607    27A      0.170989    28A      0.201178  
      29A      0.275778    30A      0.319701    31A      0.341834  
      32A      0.361359    33A      0.406359    34A      0.478319  
      35A      0.489414    36A      0.511574    37A      0.519926  
      38A      0.543260    39A      0.554725    40A      0.579740  
      41A      0.609430    42A      0.623149    43A      0.649294  
      44A      0.706874    45A      0.724118    46A      0.764729  
      47A      0.797127    48A      0.816308    49A      0.866753  
      50A      0.897910    51A      0.918446    52A      0.945977  
      53A      0.986306    54A      1.031523    55A      1.050167  
      56A      1.071700    57A      1.118172    58A      1.121408  
      59A      1.140059    60A      1.148121    61A      1.161138  
      62A      1.169219    63A      1.233289    64A      1.259242  
      65A      1.318679    66A      1.346320    67A      1.362893  
      68A      1.408548    69A      1.462275    70A      1.483120  
      71A      1.496660    72A      1.532361    73A      1.548656  
      74A      1.603377    75A      1.721748    76A      1.739245  
      77A      1.936521    78A      1.992305    79A      2.060896  
      80A      2.109280    81A      2.161574    82A      2.178804  
      83A      2.205942    84A      2.249292    85A      2.251570  
      86A      2.267857    87A      2.322339    88A      2.351928  
      89A      2.373396    90A      2.400788    91A      2.467395  
      92A      2.496896    93A      2.503653    94A      2.608387  
      95A      2.645778    96A      2.691091    97A      2.759884  
      98A      2.773701    99A      2.827463   100A      2.833055  
     101A      2.880844   102A      2.926395   103A      2.980059  
     104A      3.062651   105A      3.131237   106A      3.164110  
     107A      3.236750   108A      3.248379   109A      3.265486  
     110A      3.276493   111A      3.331392   112A      3.339158  
     113A      3.352462   114A      3.376294   115A      3.427546  
     116A      3.454811   117A      3.481254   118A      3.555254  
     119A      3.576456   120A      3.633317   121A      3.656239  
     122A      3.686458   123A      3.722945   124A      3.745929  
     125A      3.774846   126A      3.789601   127A      3.832979  
     128A      3.895017   129A      3.938739   130A      3.952845  
     131A      3.974705   132A      4.032564   133A      4.078885  
     134A      4.131078   135A      4.160591   136A      4.184458  
     137A      4.199618   138A      4.261099   139A      4.309504  
     140A      4.342228   141A      4.389849   142A      4.430440  
     143A      4.472742   144A      4.515928   145A      4.546180  
     146A      4.616109   147A      4.688987   148A      4.731237  
     149A      4.939536   150A      5.050317   151A      5.155883  
     152A      5.224839   153A      5.238817   154A      5.287946  
     155A      5.329223   156A      5.368416   157A      5.394576  
     158A      5.440747   159A      5.471096   160A      5.514254  
     161A      5.558475   162A      5.571272   163A      5.662025  
     164A      5.765070   165A      6.010016   166A      6.042101  
     167A      6.185052   168A      6.266947   169A      6.423722  
     170A      6.553075   171A      6.581981   172A      6.702832  
     173A      7.041133   174A      7.130832   175A      7.202467  
     176A      7.248672   177A      7.315290   178A      7.333114  
     179A      7.356400   180A      7.359345   181A      7.362063  
     182A      7.365315   183A      7.367660   184A      7.372940  
     185A      7.379049   186A      7.380064   187A      7.467900  
     188A      7.515086   189A      7.525450   190A      7.532537  
     191A      7.600202   192A      7.631405   193A      7.634273  
     194A      7.666624   195A      7.877384   196A      7.943410  
     197A      7.956231   198A      7.993134   199A      8.100297  
     200A      8.167128   201A      8.177381   202A      8.901332  
     203A      8.907369   204A      8.932540   205A      9.028749  
     206A      9.033270   207A      9.088273   208A      9.201172  
     209A      9.322837   210A      9.404019   211A      9.408323  
     212A      9.525110   213A      9.678374   214A      9.683297  
     215A      9.730515   216A      9.735872   217A     11.147712  
     218A     12.239331   219A     12.436921   220A     12.624469  
     221A     13.122437   222A     13.829101  

    Final Occupation by Irrep:
              A 
    DOCC [    25 ]

  Energy converged.

  @DF-RHF Final Energy:  -450.84697094720661

   => Energetics <=

    Nuclear Repulsion Energy =            277.4980540057397320
    One-Electron Energy =               -1177.3058986957023535
    Two-Electron Energy =                 448.9608737427558935
    DFT Exchange-Correlation Energy =       0.0000000000000000
    Empirical Dispersion Energy =           0.0000000000000000
    PCM Polarization Energy =               0.0000000000000000
    EFP Energy =                            0.0000000000000000
    Total Energy =                       -450.8469709472067279

    Alert: EFP and PCM quantities not currently incorporated into SCF psivars.

Properties will be evaluated at   0.000000,   0.000000,   0.000000 Bohr
  ==> Properties <==


Properties computed using the SCF density matrix

  Nuclear Dipole Moment: (a.u.)
     X:    -6.1381      Y:     2.6908      Z:    -1.0232

  Electronic Dipole Moment: (a.u.)
     X:     5.6443      Y:    -2.2528      Z:     0.4199

  Dipole Moment: (a.u.)
     X:    -0.4939      Y:     0.4379      Z:    -0.6032     Total:     0.8942

  Dipole Moment: (Debye)
     X:    -1.2553      Y:     1.1131      Z:    -1.5333     Total:     2.2728


  Saving occupied orbitals to File 180.

*** tstop() called on cx1-27-3-4 at Fri Sep  9 21:39:47 2016
Module time:
	user time   =      15.60 seconds =       0.26 minutes
	system time =       0.23 seconds =       0.00 minutes
	total time  =          5 seconds =       0.08 minutes
Total time:
	user time   =      15.60 seconds =       0.26 minutes
	system time =       0.23 seconds =       0.00 minutes
	total time  =          5 seconds =       0.08 minutes

*** tstart() called on cx1-27-3-4
*** at Fri Sep  9 21:39:47 2016


         ------------------------------------------------------------
                                   SCF GRAD                          
                          Rob Parrish, Justin Turney,                
                       Andy Simmonett, and Alex Sokolov              
         ------------------------------------------------------------

  ==> Geometry <==

    Molecular point group: c1
    Full point group: C1

    Geometry (in Angstrom), charge = 0, multiplicity = 1:

       Center              X                  Y                   Z               Mass       
    ------------   -----------------  -----------------  -----------------  -----------------
           H         -2.248474293140    -0.524972875757    -0.687225094210     1.007825032070
           O         -2.040411293140    -0.060313875757     0.104250905790    15.994914619560
           C         -0.958036293140     0.779546124243    -0.094151094210    12.000000000000
           C          0.356172706860     0.036454124243    -0.005427094210    12.000000000000
           H         -0.984631293140     1.278130124243    -1.056808094210     1.007825032070
           H         -0.968541293140     1.528074124243     0.683676905790     1.007825032070
           F          0.413327706860    -0.932475875757    -0.901920094210    18.998403224000
           F          1.360908706860     0.854663124243    -0.239173094210    18.998403224000
           F          0.546647706860    -0.507834875757     1.172469905790    18.998403224000

  Nuclear repulsion =  277.498054005739732

  ==> Basis Set <==

  Basis Set: CC-PVTZ
    Number of shells: 78
    Number of basis function: 222
    Number of Cartesian functions: 255
    Spherical Harmonics?: true
    Max angular momentum: 3

  ==> DFJKGrad: Density-Fitted SCF Gradients <==

    Gradient:                    1
    J tasked:                  Yes
    K tasked:                  Yes
    wK tasked:                  No
    OpenMP threads:              4
    Integrals threads:           4
    Memory (MB):              1430
    Schwarz Cutoff:          0E+00
    Fitting Condition:       1E-12

   => Auxiliary Basis Set <=

  Basis Set: 
    Number of shells: 180
    Number of basis function: 564
    Number of Cartesian functions: 681
    Spherical Harmonics?: true
    Max angular momentum: 4


  -Total Gradient:
     Atom            X                  Y                   Z
    ------   -----------------  -----------------  -----------------
       1       -0.000993355333     0.000708666088    -0.001315065965
       2        0.000942972772     0.000095485190     0.001572561528
       3        0.000305316151    -0.001276166941    -0.000381305021
       4        0.000927440394     0.002618169412     0.001339326766
       5       -0.000077179727    -0.000109665113    -0.000493692965
       6       -0.000687723495    -0.000423412399    -0.000108584693
       7       -0.000339341303    -0.000785789878    -0.000378094264
       8       -0.000164357776    -0.000477595098    -0.000112962254
       9        0.000086228320    -0.000349691261    -0.000122183133


*** tstop() called on cx1-27-3-4 at Fri Sep  9 21:39:56 2016
Module time:
	user time   =      31.05 seconds =       0.52 minutes
	system time =       0.29 seconds =       0.00 minutes
	total time  =          9 seconds =       0.15 minutes
Total time:
	user time   =      46.68 seconds =       0.78 minutes
	system time =       0.52 seconds =       0.01 minutes
	total time  =         14 seconds =       0.23 minutes
CURRENT ENERGY: -450.8469709472

			-----------------------------------------
			 OPTKING 2.0: for geometry optimizations 
			  - R.A. King,  Bethel University        
			-----------------------------------------

	Internal coordinates to be generated automatically.
	Detected frag with atoms:  1 2 3 4 5 6 7 8 9
	---Fragment 1 Bond Connectivity---
	 1 : 2
	 2 : 1 3
	 3 : 2 4 5 6
	 4 : 3 7 8 9
	 5 : 3
	 6 : 3
	 7 : 4
	 8 : 4
	 9 : 4

	Assuming in current code that numbering for constraints corresponds to unified fragment.
	Frozen dihedral atom list: 
	     1     2     3     5
	---Fragment 1 Geometry and Gradient---
	 H          -4.2490006309       -0.9920549624       -1.2986672197
	 O          -3.8558185425       -0.1139767072        0.1970056610
	 C          -1.8104262194        1.4731286828       -0.1779197832
	 C           0.6730688720        0.0688883112       -0.0102557218
	 H          -1.8606834859        2.4153158970       -1.9970778731
	 H          -1.8302777924        2.8876416056        1.2919621153
	 F           0.7810761691       -1.7621240307       -1.7043819718
	 F           2.5717447478        1.6150792407       -0.4519716464
	 F           1.0330144571       -0.9596688359        2.2156470210
	            -0.0009933553        0.0007086661       -0.0013150660
	             0.0009429728        0.0000954852        0.0015725615
	             0.0003053162       -0.0012761669       -0.0003813050
	             0.0009274404        0.0026181694        0.0013393268
	            -0.0000771797       -0.0001096651       -0.0004936930
	            -0.0006877235       -0.0004234124       -0.0001085847
	            -0.0003393413       -0.0007857899       -0.0003780943
	            -0.0001643578       -0.0004775951       -0.0001129623
	             0.0000862283       -0.0003496913       -0.0001221831

	Previous optimization step data not found.  Starting new optimization.

	---Fragment 1 Intrafragment Coordinates---
	 - Coordinate -           - BOHR/RAD -       - ANG/DEG -
	 R(1,2)           =         1.778384	       0.941081
	 R(2,3)           =         2.615932	       1.384292
	 R(3,4)           =         2.857928	       1.512350
	 R(3,5)           =         2.049287	       1.084436
	 R(3,6)           =         2.040047	       1.079547
	 R(4,7)           =         2.496865	       1.321284
	 R(4,8)           =         2.488130	       1.316662
	 R(4,9)           =         2.478333	       1.311477
	 B(1,2,3)         =         1.930388	     110.603083
	 B(2,3,4)         =         1.952976	     111.897290
	 B(2,3,5)         =         1.968167	     112.767666
	 B(2,3,6)         =         1.885778	     108.047109
	 B(3,4,7)         =         1.937032	     110.983742
	 B(3,4,8)         =         1.925555	     110.326169
	 B(3,4,9)         =         1.963642	     112.508420
	 B(4,3,5)         =         1.874749	     107.415192
	 B(4,3,6)         =         1.882703	     107.870956
	 B(5,3,6)         =         1.897134	     108.697761
	 B(7,4,8)         =         1.877843	     107.592463
	 B(7,4,9)         =         1.874196	     107.383500
	 B(8,4,9)         =         1.882333	     107.849764
	 D(1,2,3,4)       =        -1.417782	     -81.232915
	*D(1,2,3,5)       =         0.698131	      39.999945
	 D(1,2,3,6)       =         2.795305	     160.159153
	 D(2,3,4,7)       =         1.028115	      58.906630
	 D(2,3,4,8)       =         3.107886	     178.068775
	 D(2,3,4,9)       =        -1.072417	     -61.444986
	 D(5,3,4,7)       =        -1.140937	     -65.370894
	 D(5,3,4,8)       =         0.938834	      53.791250
	 D(5,3,4,9)       =         3.041716	     174.277489
	 D(6,3,4,7)       =         3.100037	     177.619023
	 D(6,3,4,8)       =        -1.103377	     -63.218833
	 D(6,3,4,9)       =         0.999505	      57.267407

	Current energy   :      -450.8469709472

	Generating empirical Hessian (Schlegel '84) for each fragment.
	Taking RFO optimization step.
	Going to follow RFO solution 1.
	Using RFO vector 1.
	Norm of target step-size    0.07991
	Projected energy change by RFO approximation:        -0.0001155371

	Back-transformation to cartesian coordinates...
	Successfully converged to displaced geometry.

	Back-transformation to cartesian coordinates to adjust frozen coordinates...
	Successfully converged to displaced geometry.

	--- Internal Coordinate Step in ANG or DEG, aJ/ANG or AJ/DEG ---
	 ---------------------------------------------------------------------------
	   Coordinate                Previous        Force       Change         New 
	   ----------                --------       ------       ------       ------
	    1 R(1,2)          =      0.941081    -0.008039    -0.000864     0.940217
	    2 R(2,3)          =      1.384292     0.003391     0.000451     1.384743
	    3 R(3,4)          =      1.512350     0.000067     0.000014     1.512364
	    4 R(3,5)          =      1.084436    -0.003211    -0.000581     1.083855
	    5 R(3,6)          =      1.079547     0.003008     0.000536     1.080083
	    6 R(4,7)          =      1.321284    -0.006740    -0.000703     1.320582
	    7 R(4,8)          =      1.316662     0.003313     0.000339     1.317001
	    8 R(4,9)          =      1.311477    -0.000395    -0.000040     1.311438
	    9 B(1,2,3)        =    110.603083     0.000027     0.125847   110.728930
	   10 B(2,3,4)        =    111.897290    -0.000126    -0.532300   111.364990
	   11 B(2,3,5)        =    112.767666     0.000055     0.102992   112.870657
	   12 B(2,3,6)        =    108.047109     0.000071     0.601804   108.648913
	   13 B(3,4,7)        =    110.983742     0.000051     0.222505   111.206247
	   14 B(3,4,8)        =    110.326169    -0.000041    -0.193317   110.132852
	   15 B(3,4,9)        =    112.508420    -0.000031    -0.092088   112.416332
	   16 B(4,3,5)        =    107.415192    -0.000008    -0.497249   106.917943
	   17 B(4,3,6)        =    107.870956     0.000016     0.071578   107.942533
	   18 B(5,3,6)        =    108.697761    -0.000007     0.261426   108.959187
	   19 B(7,4,8)        =    107.592463    -0.000005    -0.015301   107.577161
	   20 B(7,4,9)        =    107.383500     0.000015     0.169449   107.552949
	   21 B(8,4,9)        =    107.849764     0.000012    -0.088796   107.760969
	   22 D(1,2,3,4)      =    -81.232915     0.000015     0.958150   -80.274765
	   23 *D(1,2,3,5)     =     39.999945    -0.000000    -0.000000    39.999945
	   24 D(1,2,3,6)      =    160.159153     0.000017     0.805642   160.964795
	   25 D(2,3,4,7)      =     58.906630     0.000001     1.158717    60.065347
	   26 D(2,3,4,8)      =    178.068775     0.000001     1.156279   179.225053
	   27 D(2,3,4,9)      =    -61.444986    -0.000007     0.847441   -60.597545
	   28 D(5,3,4,7)      =    -65.370894     0.000005     1.711986   -63.658908
	   29 D(5,3,4,8)      =     53.791250     0.000005     1.709548    55.500798
	   30 D(5,3,4,9)      =    174.277489    -0.000003     1.400710   175.678200
	   31 D(6,3,4,7)      =    177.619023     0.000006     1.628606   179.247630
	   32 D(6,3,4,8)      =    -63.218833     0.000006     1.626169   -61.592664
	   33 D(6,3,4,9)      =     57.267407    -0.000002     1.317331    58.584738
	 ---------------------------------------------------------------------------

  ==> Convergence Check <==

  Measures of convergence in internal coordinates in au.
  Criteria marked as inactive (o), active & met (*), and active & unmet ( ).
  --------------------------------------------------------------------------------------------- ~
   Step     Total Energy     Delta E     MAX Force     RMS Force      MAX Disp      RMS Disp    ~
  --------------------------------------------------------------------------------------------- ~
    Convergence Criteria    1.00e-06 *    3.00e-04 *             o    1.20e-03 *             o  ~
  --------------------------------------------------------------------------------------------- ~
      1    -450.84697095   -4.51e+02      1.65e-03      5.43e-04 o    2.99e-02      1.39e-02 o  ~
  ---------------------------------------------------------------------------------------------

	Writing optimization data to binary file.
	Structure for next step:
	Cartesian Geometry (in Angstrom)
	    H    -2.2400867771  -0.5370518616  -0.6724531164
	    O    -2.0378322531  -0.0584689147   0.1111657897
	    C    -0.9592613065   0.7852830581  -0.0944532056
	    C     0.3512464620   0.0354205673  -0.0077318188
	    H    -0.9820382346   1.2694875197  -1.0638698438
	    H    -0.9611115173   1.5422281309   0.6760070829
	    F     0.4152786025  -0.9211359378  -0.9159363799
	    F     1.3583435376   0.8563297972  -0.2230319243
	    F     0.5324235028  -0.5208220537   1.1659964901
			--------------------------
			 OPTKING Finished Execution 
			--------------------------

    Structure for next step:
    Molecular point group: c1
    Full point group: C1

    Geometry (in Angstrom), charge = 0, multiplicity = 1:

    H           -2.237127843230    -0.537848719501    -0.672420534588
    O           -2.034873334603    -0.059265809128     0.111198311648
    C           -0.956302470425     0.784486099191    -0.094420667951
    C            0.354205198019     0.034623665615    -0.007699287808
    H           -0.979079396755     1.268690523872    -1.063837232081
    H           -0.958152681056     1.541431114170     0.676039561746
    F            0.418237333633    -0.921932766422    -0.915903779467
    F            1.361302196696     0.855532832848    -0.222999376856
    F            0.535382224948    -0.521618912857     1.166028931514

gradient() will perform analytic gradient computation.

*** tstart() called on cx1-27-3-4
*** at Fri Sep  9 21:39:56 2016


         ---------------------------------------------------------
                                   SCF
            by Justin Turney, Rob Parrish, and Andy Simmonett
                              RHF Reference
                        4 Threads,   2000 MiB Core
         ---------------------------------------------------------

  ==> Geometry <==

    Molecular point group: c1
    Full point group: C1

    Geometry (in Angstrom), charge = 0, multiplicity = 1:

       Center              X                  Y                   Z               Mass       
    ------------   -----------------  -----------------  -----------------  -----------------
           H         -2.237127843230    -0.537848719501    -0.672420534588     1.007825032070
           O         -2.034873334603    -0.059265809128     0.111198311648    15.994914619560
           C         -0.956302470425     0.784486099191    -0.094420667951    12.000000000000
           C          0.354205198019     0.034623665615    -0.007699287808    12.000000000000
           H         -0.979079396755     1.268690523872    -1.063837232081     1.007825032070
           H         -0.958152681056     1.541431114170     0.676039561746     1.007825032070
           F          0.418237333633    -0.921932766422    -0.915903779467    18.998403224000
           F          1.361302196696     0.855532832848    -0.222999376856    18.998403224000
           F          0.535382224948    -0.521618912857     1.166028931514    18.998403224000

  Running in c1 symmetry.

  Rotational constants: A =      0.18322  B =      0.09649  C =      0.09543 [cm^-1]
  Rotational constants: A =   5492.73527  B =   2892.71564  C =   2860.91816 [MHz]
  Nuclear repulsion =  277.655255146890227

  Charge       = 0
  Multiplicity = 1
  Electrons    = 50
  Nalpha       = 25
  Nbeta        = 25

  ==> Algorithm <==

  SCF Algorithm Type is DF.
  DIIS enabled.
  MOM disabled.
  Fractional occupation disabled.
  Guess Type is READ.
  Energy threshold   = 1.00e-08
  Density threshold  = 1.00e-08
  Integral threshold = 0.00e+00

  ==> Primary Basis <==

  Basis Set: CC-PVTZ
    Number of shells: 78
    Number of basis function: 222
    Number of Cartesian functions: 255
    Spherical Harmonics?: true
    Max angular momentum: 3

  ==> Pre-Iterations <==

   -------------------------------------------------------
    Irrep   Nso     Nmo     Nalpha   Nbeta   Ndocc  Nsocc
   -------------------------------------------------------
     A        222     222       0       0       0       0
   -------------------------------------------------------
    Total     222     222      25      25      25       0
   -------------------------------------------------------

 OEINTS: Overlap, kinetic, potential, dipole, and quadrupole integrals
         stored in file 35.

  ==> Integral Setup <==

  ==> DFJK: Density-Fitted J/K Matrices <==

    J tasked:                  Yes
    K tasked:                  Yes
    wK tasked:                  No
    OpenMP threads:              4
    Integrals threads:           4
    Memory (MB):              1430
    Algorithm:                Core
    Integral Cache:           NONE
    Schwarz Cutoff:          1E-12
    Fitting Condition:       1E-12

   => Auxiliary Basis Set <=

  Basis Set: 
    Number of shells: 180
    Number of basis function: 564
    Number of Cartesian functions: 681
    Spherical Harmonics?: true
    Max angular momentum: 4

  Minimum eigenvalue in the overlap matrix is 1.0142139753E-03.
  Using Symmetric Orthogonalization.
  SCF Guess: Reading in previously saved MOs, projecting if necessary.

  Using orbitals from previous SCF, no projection.
  Recomputing DOCC and SOCC from number of alpha and beta electrons from previous calculation.
              A 
    DOCC [    25 ]

  ==> Iterations <==

                           Total Energy        Delta E     RMS |[F,P]|

   @DF-RHF iter   0:  -450.84770090410882   -4.50848e+02   1.71885e-04 
   @DF-RHF iter   1:  -450.84696841307789    7.32491e-04   2.75203e-05 
   @DF-RHF iter   2:  -450.84699548809942   -2.70750e-05   9.81261e-06 DIIS
   @DF-RHF iter   3:  -450.84699928323300   -3.79513e-06   4.72586e-06 DIIS
   @DF-RHF iter   4:  -450.84699979100799   -5.07775e-07   1.01283e-06 DIIS
   @DF-RHF iter   5:  -450.84699985191935   -6.09114e-08   3.17146e-07 DIIS
   @DF-RHF iter   6:  -450.84699985779537   -5.87602e-09   7.69348e-08 DIIS
   @DF-RHF iter   7:  -450.84699985803718   -2.41812e-10   1.56129e-08 DIIS
   @DF-RHF iter   8:  -450.84699985804878   -1.15961e-11   5.23251e-09 DIIS

  ==> Post-Iterations <==

    Orbital Energies (a.u.)
    -----------------------

    Doubly Occupied:                                                      

       1A    -26.337653     2A    -26.337201     3A    -26.333653  
       4A    -20.583825     5A    -11.491434     6A    -11.310280  
       7A     -1.745724     8A     -1.642785     9A     -1.640836  
      10A     -1.407342    11A     -1.050172    12A     -0.928211  
      13A     -0.836134    14A     -0.834431    15A     -0.806820  
      16A     -0.735259    17A     -0.716920    18A     -0.704587  
      19A     -0.670399    20A     -0.663535    21A     -0.647250  
      22A     -0.633922    23A     -0.613431    24A     -0.536019  
      25A     -0.484252  

    Virtual:                                                              

      26A      0.135992    27A      0.170709    28A      0.201221  
      29A      0.275358    30A      0.319714    31A      0.342651  
      32A      0.360565    33A      0.406124    34A      0.478239  
      35A      0.489828    36A      0.511730    37A      0.520250  
      38A      0.544095    39A      0.554575    40A      0.578350  
      41A      0.609177    42A      0.623186    43A      0.649426  
      44A      0.707423    45A      0.724139    46A      0.765230  
      47A      0.796141    48A      0.816992    49A      0.868420  
      50A      0.896206    51A      0.918884    52A      0.946499  
      53A      0.986492    54A      1.031970    55A      1.051005  
      56A      1.071340    57A      1.118661    58A      1.122136  
      59A      1.139821    60A      1.148345    61A      1.162984  
      62A      1.169194    63A      1.233091    64A      1.259778  
      65A      1.319258    66A      1.349013    67A      1.360379  
      68A      1.408240    69A      1.460367    70A      1.482438  
      71A      1.496466    72A      1.530558    73A      1.544351  
      74A      1.604447    75A      1.722785    76A      1.740911  
      77A      1.939198    78A      1.992214    79A      2.062655  
      80A      2.110635    81A      2.164946    82A      2.181972  
      83A      2.204448    84A      2.249272    85A      2.251006  
      86A      2.268411    87A      2.323832    88A      2.351230  
      89A      2.372602    90A      2.398332    91A      2.467108  
      92A      2.496304    93A      2.499879    94A      2.608578  
      95A      2.647405    96A      2.691984    97A      2.760182  
      98A      2.772651    99A      2.828165   100A      2.833980  
     101A      2.881370   102A      2.933098   103A      2.980801  
     104A      3.062895   105A      3.134114   106A      3.164721  
     107A      3.239716   108A      3.248919   109A      3.263432  
     110A      3.278469   111A      3.330461   112A      3.340850  
     113A      3.351223   114A      3.374574   115A      3.431103  
     116A      3.455680   117A      3.482006   118A      3.554622  
     119A      3.574521   120A      3.636846   121A      3.655800  
     122A      3.686951   123A      3.723441   124A      3.745480  
     125A      3.774338   126A      3.789108   127A      3.832934  
     128A      3.893624   129A      3.938474   130A      3.953729  
     131A      3.972491   132A      4.032837   133A      4.077959  
     134A      4.131068   135A      4.162691   136A      4.183673  
     137A      4.199052   138A      4.261269   139A      4.310081  
     140A      4.345089   141A      4.386287   142A      4.431134  
     143A      4.476277   144A      4.516551   145A      4.547654  
     146A      4.616741   147A      4.685719   148A      4.730311  
     149A      4.943165   150A      5.051577   151A      5.159733  
     152A      5.224522   153A      5.238698   154A      5.287377  
     155A      5.329429   156A      5.371228   157A      5.393306  
     158A      5.437511   159A      5.472535   160A      5.512635  
     161A      5.561691   162A      5.568482   163A      5.660433  
     164A      5.766026   165A      6.008242   166A      6.043344  
     167A      6.192226   168A      6.264311   169A      6.422883  
     170A      6.553362   171A      6.583049   172A      6.702430  
     173A      7.042123   174A      7.133342   175A      7.202190  
     176A      7.251523   177A      7.315276   178A      7.333124  
     179A      7.356468   180A      7.358978   181A      7.362196  
     182A      7.365633   183A      7.367188   184A      7.373037  
     185A      7.378782   186A      7.380347   187A      7.467841  
     188A      7.515479   189A      7.524959   190A      7.531351  
     191A      7.600535   192A      7.631103   193A      7.634970  
     194A      7.669542   195A      7.878337   196A      7.942505  
     197A      7.956878   198A      7.992853   199A      8.101624  
     200A      8.167912   201A      8.178012   202A      8.901722  
     203A      8.907183   204A      8.932603   205A      9.028168  
     206A      9.033155   207A      9.088469   208A      9.202091  
     209A      9.323293   210A      9.404634   211A      9.408533  
     212A      9.525885   213A      9.678338   214A      9.683914  
     215A      9.729691   216A      9.736091   217A     11.151016  
     218A     12.238452   219A     12.443472   220A     12.635008  
     221A     13.143425   222A     13.838480  

    Final Occupation by Irrep:
              A 
    DOCC [    25 ]

  Energy converged.

  @DF-RHF Final Energy:  -450.84699985804878

   => Energetics <=

    Nuclear Repulsion Energy =            277.6552551468902266
    One-Electron Energy =               -1177.6203599023322113
    Two-Electron Energy =                 449.1181048973933230
    DFT Exchange-Correlation Energy =       0.0000000000000000
    Empirical Dispersion Energy =           0.0000000000000000
    PCM Polarization Energy =               0.0000000000000000
    EFP Energy =                            0.0000000000000000
    Total Energy =                       -450.8469998580486617

    Alert: EFP and PCM quantities not currently incorporated into SCF psivars.

Properties will be evaluated at   0.000000,   0.000000,   0.000000 Bohr
  ==> Properties <==


Properties computed using the SCF density matrix

  Nuclear Dipole Moment: (a.u.)
     X:    -6.1069      Y:     2.6846      Z:    -1.0190

  Electronic Dipole Moment: (a.u.)
     X:     5.6165      Y:    -2.2564      Z:     0.4162

  Dipole Moment: (a.u.)
     X:    -0.4904      Y:     0.4282      Z:    -0.6028     Total:     0.8872

  Dipole Moment: (Debye)
     X:    -1.2465      Y:     1.0883      Z:    -1.5321     Total:     2.2551


  Saving occupied orbitals to File 180.

*** tstop() called on cx1-27-3-4 at Fri Sep  9 21:40:01 2016
Module time:
	user time   =      13.48 seconds =       0.22 minutes
	system time =       0.19 seconds =       0.00 minutes
	total time  =          5 seconds =       0.08 minutes
Total time:
	user time   =      61.39 seconds =       1.02 minutes
	system time =       0.77 seconds =       0.01 minutes
	total time  =         19 seconds =       0.32 minutes

*** tstart() called on cx1-27-3-4
*** at Fri Sep  9 21:40:01 2016


         ------------------------------------------------------------
                                   SCF GRAD                          
                          Rob Parrish, Justin Turney,                
                       Andy Simmonett, and Alex Sokolov              
         ------------------------------------------------------------

  ==> Geometry <==

    Molecular point group: c1
    Full point group: C1

    Geometry (in Angstrom), charge = 0, multiplicity = 1:

       Center              X                  Y                   Z               Mass       
    ------------   -----------------  -----------------  -----------------  -----------------
           H         -2.237127843230    -0.537848719501    -0.672420534588     1.007825032070
           O         -2.034873334603    -0.059265809128     0.111198311648    15.994914619560
           C         -0.956302470425     0.784486099191    -0.094420667951    12.000000000000
           C          0.354205198019     0.034623665615    -0.007699287808    12.000000000000
           H         -0.979079396755     1.268690523872    -1.063837232081     1.007825032070
           H         -0.958152681056     1.541431114170     0.676039561746     1.007825032070
           F          0.418237333633    -0.921932766422    -0.915903779467    18.998403224000
           F          1.361302196696     0.855532832848    -0.222999376856    18.998403224000
           F          0.535382224948    -0.521618912857     1.166028931514    18.998403224000

  Nuclear repulsion =  277.655255146890170

  ==> Basis Set <==

  Basis Set: CC-PVTZ
    Number of shells: 78
    Number of basis function: 222
    Number of Cartesian functions: 255
    Spherical Harmonics?: true
    Max angular momentum: 3

  ==> DFJKGrad: Density-Fitted SCF Gradients <==

    Gradient:                    1
    J tasked:                  Yes
    K tasked:                  Yes
    wK tasked:                  No
    OpenMP threads:              4
    Integrals threads:           4
    Memory (MB):              1430
    Schwarz Cutoff:          0E+00
    Fitting Condition:       1E-12

   => Auxiliary Basis Set <=

  Basis Set: 
    Number of shells: 180
    Number of basis function: 564
    Number of Cartesian functions: 681
    Spherical Harmonics?: true
    Max angular momentum: 4


  -Total Gradient:
     Atom            X                  Y                   Z
    ------   -----------------  -----------------  -----------------
       1       -0.000879934459     0.000843670164    -0.000266179811
       2        0.001536571088    -0.001831282839    -0.000066049065
       3       -0.001140274402     0.001958059292     0.001137784255
       4       -0.000046585766     0.000120359234    -0.000307696325
       5        0.000866587437    -0.001080530223    -0.000415695675
       6        0.000256095561     0.000421948843     0.000076735042
       7        0.000165622006    -0.000452927312    -0.000639022925
       8       -0.000757877276    -0.000369467514     0.000342450621
       9       -0.000000204192     0.000390170358     0.000137673880


*** tstop() called on cx1-27-3-4 at Fri Sep  9 21:40:09 2016
Module time:
	user time   =      30.76 seconds =       0.51 minutes
	system time =       0.31 seconds =       0.01 minutes
	total time  =          8 seconds =       0.13 minutes
Total time:
	user time   =      92.17 seconds =       1.54 minutes
	system time =       1.08 seconds =       0.02 minutes
	total time  =         27 seconds =       0.45 minutes
CURRENT ENERGY: -450.8469998580

			-----------------------------------------
			 OPTKING 2.0: for geometry optimizations 
			  - R.A. King,  Bethel University        
			-----------------------------------------

	Previous internal coordinate definitions found.
	---Fragment 1 Geometry and Gradient---
	 H          -4.2275589480       -1.0163867808       -1.2706906565
	 O          -3.8453533175       -0.1119961483        0.2101343555
	 C          -1.8071497693        1.4824638825       -0.1784292037
	 C           0.6693508191        0.0654292457       -0.0145495454
	 H          -1.8501919222        2.3974776375       -2.0103610186
	 H          -1.8106461607        2.9128826585        1.2775296267
	 F           0.7903540191       -1.7422004415       -1.7308073073
	 F           2.5724883359        1.6167227518       -0.4214077501
	 F           1.0117257816       -0.9857168910        2.2034753436
	            -0.0008799345        0.0008436702       -0.0002661798
	             0.0015365711       -0.0018312828       -0.0000660491
	            -0.0011402744        0.0019580593        0.0011377843
	            -0.0000465858        0.0001203592       -0.0003076963
	             0.0008665874       -0.0010805302       -0.0004156957
	             0.0002560956        0.0004219488        0.0000767350
	             0.0001656220       -0.0004529273       -0.0006390229
	            -0.0007578773       -0.0003694675        0.0003424506
	            -0.0000002042        0.0003901704        0.0001376739

	---Fragment 1 Intrafragment Coordinates---
	 - Coordinate -           - BOHR/RAD -       - ANG/DEG -
	 R(1,2)           =         1.776752	       0.940217
	 R(2,3)           =         2.616784	       1.384743
	 R(3,4)           =         2.857954	       1.512364
	 R(3,5)           =         2.048189	       1.083855
	 R(3,6)           =         2.041060	       1.080083
	 R(4,7)           =         2.495538	       1.320582
	 R(4,8)           =         2.488770	       1.317001
	 R(4,9)           =         2.478258	       1.311438
	 B(1,2,3)         =         1.932584	     110.728930
	 B(2,3,4)         =         1.943686	     111.364990
	 B(2,3,5)         =         1.969965	     112.870657
	 B(2,3,6)         =         1.896281	     108.648913
	 B(3,4,7)         =         1.940915	     111.206247
	 B(3,4,8)         =         1.922181	     110.132852
	 B(3,4,9)         =         1.962035	     112.416332
	 B(4,3,5)         =         1.866070	     106.917943
	 B(4,3,6)         =         1.883953	     107.942533
	 B(5,3,6)         =         1.901697	     108.959187
	 B(7,4,8)         =         1.877576	     107.577161
	 B(7,4,9)         =         1.877153	     107.552949
	 B(8,4,9)         =         1.880784	     107.760969
	 D(1,2,3,4)       =        -1.401059	     -80.274765
	*D(1,2,3,5)       =         0.698131	      39.999945
	 D(1,2,3,6)       =         2.809366	     160.964795
	 D(2,3,4,7)       =         1.048338	      60.065347
	 D(2,3,4,8)       =         3.128067	     179.225053
	 D(2,3,4,9)       =        -1.057627	     -60.597545
	 D(5,3,4,7)       =        -1.111058	     -63.658908
	 D(5,3,4,8)       =         0.968672	      55.500798
	 D(5,3,4,9)       =         3.066163	     175.678200
	 D(6,3,4,7)       =         3.128461	     179.247630
	 D(6,3,4,8)       =        -1.074995	     -61.592664
	 D(6,3,4,9)       =         1.022497	      58.584738

	Current energy   :      -450.8469998580

	Energy change for the previous step:
		Projected    :        -0.0001155371
		Actual       :        -0.0000289108

	Performing BFGS update.
	Previous computed or guess Hessian on step 1.
	Steps to be used in Hessian update: 1
	Taking RFO optimization step.
	Going to follow RFO solution 1.
	Using RFO vector 1.
	Norm of target step-size    0.01161
	Projected energy change by RFO approximation:        -0.0000157151

	Back-transformation to cartesian coordinates...
	Successfully converged to displaced geometry.

	Back-transformation to cartesian coordinates to adjust frozen coordinates...
	Successfully converged to displaced geometry.

	--- Internal Coordinate Step in ANG or DEG, aJ/ANG or AJ/DEG ---
	 ---------------------------------------------------------------------------
	   Coordinate                Previous        Force       Change         New 
	   ----------                --------       ------       ------       ------
	    1 R(1,2)          =      0.940217     0.000151    -0.000026     0.940191
	    2 R(2,3)          =      1.384743    -0.000338    -0.000013     1.384730
	    3 R(3,4)          =      1.512364     0.003509     0.000526     1.512890
	    4 R(3,5)          =      1.083855     0.001064     0.000115     1.083969
	    5 R(3,6)          =      1.080083    -0.002884    -0.000349     1.079733
	    6 R(4,7)          =      1.320582    -0.006390    -0.000514     1.320068
	    7 R(4,8)          =      1.317001     0.007133     0.000544     1.317545
	    8 R(4,9)          =      1.311438     0.000349     0.000024     1.311461
	    9 B(1,2,3)        =    110.728930    -0.000020    -0.062751   110.666179
	   10 B(2,3,4)        =    111.364990     0.000055     0.132681   111.497672
	   11 B(2,3,5)        =    112.870657    -0.000021    -0.005747   112.864911
	   12 B(2,3,6)        =    108.648913    -0.000033    -0.190103   108.458809
	   13 B(3,4,7)        =    111.206247    -0.000024    -0.085703   111.120544
	   14 B(3,4,8)        =    110.132852     0.000027     0.087828   110.220680
	   15 B(3,4,9)        =    112.416332     0.000023     0.052173   112.468505
	   16 B(4,3,5)        =    106.917943     0.000003     0.133615   107.051558
	   17 B(4,3,6)        =    107.942533    -0.000013    -0.058597   107.883937
	   18 B(5,3,6)        =    108.959187     0.000010    -0.012766   108.946421
	   19 B(7,4,8)        =    107.577161    -0.000006    -0.025750   107.551411
	   20 B(7,4,9)        =    107.552949    -0.000019    -0.101453   107.451496
	   21 B(8,4,9)        =    107.760969    -0.000003     0.070083   107.831051
	   22 D(1,2,3,4)      =    -80.274765    -0.000006    -0.264160   -80.538926
	   23 *D(1,2,3,5)     =     39.999945    -0.000000    -0.000000    39.999945
	   24 D(1,2,3,6)      =    160.964795    -0.000005    -0.151403   160.813392
	   25 D(2,3,4,7)      =     60.065347     0.000000    -0.028168    60.037179
	   26 D(2,3,4,8)      =    179.225053    -0.000001    -0.057913   179.167141
	   27 D(2,3,4,9)      =    -60.597545     0.000006     0.126761   -60.470784
	   28 D(5,3,4,7)      =    -63.658908    -0.000002    -0.195108   -63.854016
	   29 D(5,3,4,8)      =     55.500798    -0.000003    -0.224853    55.275945
	   30 D(5,3,4,9)      =    175.678200     0.000004    -0.040179   175.638021
	   31 D(6,3,4,7)      =    179.247630    -0.000004    -0.219812   179.027818
	   32 D(6,3,4,8)      =    -61.592664    -0.000005    -0.249557   -61.842221
	   33 D(6,3,4,9)      =     58.584738     0.000002    -0.064883    58.519855
	 ---------------------------------------------------------------------------

  ==> Convergence Check <==

  Measures of convergence in internal coordinates in au.
  Criteria marked as inactive (o), active & met (*), and active & unmet ( ).
  ---------------------------------------------------------------------------------------------
   Step     Total Energy     Delta E     MAX Force     RMS Force      MAX Disp      RMS Disp   
  ---------------------------------------------------------------------------------------------
    Convergence Criteria    1.00e-06 *    3.00e-04 *             o    1.20e-03 *             o
  ---------------------------------------------------------------------------------------------
      2    -450.84699986   -2.89e-05      8.66e-04      3.27e-04 o    4.61e-03      2.02e-03 o  ~
  ---------------------------------------------------------------------------------------------

	Writing optimization data to binary file.
	Structure for next step:
	Cartesian Geometry (in Angstrom)
	    H    -2.2396484623  -0.5353744453  -0.6734593011
	    O    -2.0357319539  -0.0590477203   0.1110722355
	    C    -0.9562731736   0.7833617186  -0.0953033198
	    C     0.3556961755   0.0351787925  -0.0070157893
	    H    -0.9804536530   1.2693926890  -1.0638996515
	    H    -0.9597520684   1.5387702316   0.6761690038
	    F     0.4191742493  -0.9223097185  -0.9135289255
	    F     1.3633719950   0.8556732820  -0.2245066936
	    F     0.5372077752  -0.5215466151   1.1664582893
			--------------------------
			 OPTKING Finished Execution 
			--------------------------

    Structure for next step:
    Molecular point group: c1
    Full point group: C1

    Geometry (in Angstrom), charge = 0, multiplicity = 1:

    H           -2.240555945759    -0.535314984745    -0.673651755187
    O           -2.036639452914    -0.058988296108     0.110879721508
    C           -0.957180755032     0.783421078488    -0.095495818011
    C            0.354788493888     0.035238209455    -0.007208294306
    H           -0.981361232651     1.269452011705    -1.064092075728
    H           -0.960659649543     1.538829533805     0.675976446660
    F            0.418266562765    -0.922250228383    -0.913721361209
    F            1.362464236415     0.855732636385    -0.224699181959
    F            0.536300079714    -0.521487155601     1.166265694736

gradient() will perform analytic gradient computation.

*** tstart() called on cx1-27-3-4
*** at Fri Sep  9 21:40:09 2016


         ---------------------------------------------------------
                                   SCF
            by Justin Turney, Rob Parrish, and Andy Simmonett
                              RHF Reference
                        4 Threads,   2000 MiB Core
         ---------------------------------------------------------

  ==> Geometry <==

    Molecular point group: c1
    Full point group: C1

    Geometry (in Angstrom), charge = 0, multiplicity = 1:

       Center              X                  Y                   Z               Mass       
    ------------   -----------------  -----------------  -----------------  -----------------
           H         -2.240555945759    -0.535314984745    -0.673651755187     1.007825032070
           O         -2.036639452914    -0.058988296108     0.110879721508    15.994914619560
           C         -0.957180755032     0.783421078488    -0.095495818011    12.000000000000
           C          0.354788493888     0.035238209455    -0.007208294306    12.000000000000
           H         -0.981361232651     1.269452011705    -1.064092075728     1.007825032070
           H         -0.960659649543     1.538829533805     0.675976446660     1.007825032070
           F          0.418266562765    -0.922250228383    -0.913721361209    18.998403224000
           F          1.362464236415     0.855732636385    -0.224699181959    18.998403224000
           F          0.536300079714    -0.521487155601     1.166265694736    18.998403224000

  Running in c1 symmetry.

  Rotational constants: A =      0.18334  B =      0.09639  C =      0.09530 [cm^-1]
  Rotational constants: A =   5496.35408  B =   2889.57491  C =   2857.09660 [MHz]
  Nuclear repulsion =  277.599611484621107

  Charge       = 0
  Multiplicity = 1
  Electrons    = 50
  Nalpha       = 25
  Nbeta        = 25

  ==> Algorithm <==

  SCF Algorithm Type is DF.
  DIIS enabled.
  MOM disabled.
  Fractional occupation disabled.
  Guess Type is READ.
  Energy threshold   = 1.00e-08
  Density threshold  = 1.00e-08
  Integral threshold = 0.00e+00

  ==> Primary Basis <==

  Basis Set: CC-PVTZ
    Number of shells: 78
    Number of basis function: 222
    Number of Cartesian functions: 255
    Spherical Harmonics?: true
    Max angular momentum: 3

  ==> Pre-Iterations <==

   -------------------------------------------------------
    Irrep   Nso     Nmo     Nalpha   Nbeta   Ndocc  Nsocc
   -------------------------------------------------------
     A        222     222       0       0       0       0
   -------------------------------------------------------
    Total     222     222      25      25      25       0
   -------------------------------------------------------

 OEINTS: Overlap, kinetic, potential, dipole, and quadrupole integrals
         stored in file 35.

  ==> Integral Setup <==

  ==> DFJK: Density-Fitted J/K Matrices <==

    J tasked:                  Yes
    K tasked:                  Yes
    wK tasked:                  No
    OpenMP threads:              4
    Integrals threads:           4
    Memory (MB):              1430
    Algorithm:                Core
    Integral Cache:           NONE
    Schwarz Cutoff:          1E-12
    Fitting Condition:       1E-12

   => Auxiliary Basis Set <=

  Basis Set: 
    Number of shells: 180
    Number of basis function: 564
    Number of Cartesian functions: 681
    Spherical Harmonics?: true
    Max angular momentum: 4

  Minimum eigenvalue in the overlap matrix is 1.0149439696E-03.
  Using Symmetric Orthogonalization.
  SCF Guess: Reading in previously saved MOs, projecting if necessary.

  Using orbitals from previous SCF, no projection.
  Recomputing DOCC and SOCC from number of alpha and beta electrons from previous calculation.
              A 
    DOCC [    25 ]

  ==> Iterations <==

                           Total Energy        Delta E     RMS |[F,P]|

   @DF-RHF iter   0:  -450.84658362731278   -4.50847e+02   2.65834e-05 
   @DF-RHF iter   1:  -450.84700556053400   -4.21933e-04   3.72490e-06 
   @DF-RHF iter   2:  -450.84700607744145   -5.16907e-07   1.43192e-06 DIIS
   @DF-RHF iter   3:  -450.84700617263894   -9.51975e-08   6.90860e-07 DIIS
   @DF-RHF iter   4:  -450.84700618599135   -1.33524e-08   1.60156e-07 DIIS
   @DF-RHF iter   5:  -450.84700618746302   -1.47168e-09   3.24086e-08 DIIS
   @DF-RHF iter   6:  -450.84700618752828   -6.52562e-11   7.88093e-09 DIIS

  ==> Post-Iterations <==

    Orbital Energies (a.u.)
    -----------------------

    Doubly Occupied:                                                      

       1A    -26.337705     2A    -26.337025     3A    -26.333715  
       4A    -20.583928     5A    -11.491542     6A    -11.310303  
       7A     -1.745718     8A     -1.642726     9A     -1.640804  
      10A     -1.407413    11A     -1.050049    12A     -0.928224  
      13A     -0.836030    14A     -0.834446    15A     -0.806864  
      16A     -0.735277    17A     -0.716865    18A     -0.704650  
      19A     -0.670280    20A     -0.663524    21A     -0.647210  
      22A     -0.633768    23A     -0.613504    24A     -0.536073  
      25A     -0.484357  

    Virtual:                                                              

      26A      0.135893    27A      0.170810    28A      0.201154  
      29A      0.275468    30A      0.319672    31A      0.342353  
      32A      0.360787    33A      0.406037    34A      0.478198  
      35A      0.489761    36A      0.511885    37A      0.520208  
      38A      0.544144    39A      0.554410    40A      0.578573  
      41A      0.609148    42A      0.623102    43A      0.649443  
      44A      0.707192    45A      0.724057    46A      0.765003  
      47A      0.796420    48A      0.816919    49A      0.868150  
      50A      0.896429    51A      0.918859    52A      0.946003  
      53A      0.986585    54A      1.031783    55A      1.051131  
      56A      1.071522    57A      1.118634    58A      1.121730  
      59A      1.139875    60A      1.148032    61A      1.162477  
      62A      1.169043    63A      1.233211    64A      1.259620  
      65A      1.319150    66A      1.348327    67A      1.361053  
      68A      1.408421    69A      1.460980    70A      1.482577  
      71A      1.496497    72A      1.530790    73A      1.545238  
      74A      1.604454    75A      1.722731    76A      1.740561  
      77A      1.938595    78A      1.991734    79A      2.062467  
      80A      2.109930    81A      2.164737    82A      2.180755  
      83A      2.204445    84A      2.249177    85A      2.251452  
      86A      2.268304    87A      2.323594    88A      2.351262  
      89A      2.372715    90A      2.398168    91A      2.467475  
      92A      2.496485    93A      2.500459    94A      2.608994  
      95A      2.646930    96A      2.690936    97A      2.760651  
      98A      2.773114    99A      2.828017   100A      2.833789  
     101A      2.881435   102A      2.931043   103A      2.980492  
     104A      3.062547   105A      3.133032   106A      3.164154  
     107A      3.239069   108A      3.248926   109A      3.264112  
     110A      3.278405   111A      3.330585   112A      3.340679  
     113A      3.351305   114A      3.374790   115A      3.430280  
     116A      3.455548   117A      3.481791   118A      3.554204  
     119A      3.575052   120A      3.636231   121A      3.656019  
     122A      3.686398   123A      3.723536   124A      3.745366  
     125A      3.774556   126A      3.788929   127A      3.833027  
     128A      3.893364   129A      3.938659   130A      3.953526  
     131A      3.972806   132A      4.033073   133A      4.078218  
     134A      4.131277   135A      4.161949   136A      4.183873  
     137A      4.199042   138A      4.261411   139A      4.310012  
     140A      4.344270   141A      4.387131   142A      4.430881  
     143A      4.475164   144A      4.515729   145A      4.547401  
     146A      4.616868   147A      4.686299   148A      4.730091  
     149A      4.942364   150A      5.052167   151A      5.159276  
     152A      5.224590   153A      5.238873   154A      5.287457  
     155A      5.329561   156A      5.371217   157A      5.393873  
     158A      5.437998   159A      5.472352   160A      5.512433  
     161A      5.561178   162A      5.569717   163A      5.660932  
     164A      5.765617   165A      6.008724   166A      6.042443  
     167A      6.190359   168A      6.264935   169A      6.422781  
     170A      6.553206   171A      6.582933   172A      6.702248  
     173A      7.042050   174A      7.133333   175A      7.202294  
     176A      7.251560   177A      7.315316   178A      7.332926  
     179A      7.356499   180A      7.359078   181A      7.362197  
     182A      7.365628   183A      7.367278   184A      7.372954  
     185A      7.378802   186A      7.380224   187A      7.468303  
     188A      7.515390   189A      7.525108   190A      7.531609  
     191A      7.600397   192A      7.631713   193A      7.634472  
     194A      7.668643   195A      7.878040   196A      7.942900  
     197A      7.956718   198A      7.992982   199A      8.101015  
     200A      8.167874   201A      8.177655   202A      8.901598  
     203A      8.907335   204A      8.932691   205A      9.028186  
     206A      9.033088   207A      9.088359   208A      9.201626  
     209A      9.323150   210A      9.404401   211A      9.408536  
     212A      9.525781   213A      9.678091   214A      9.684042  
     215A      9.730514   216A      9.735552   217A     11.149675  
     218A     12.238591   219A     12.443471   220A     12.629411  
     221A     13.140098   222A     13.835032  

    Final Occupation by Irrep:
              A 
    DOCC [    25 ]

  Energy converged.

  @DF-RHF Final Energy:  -450.84700618752828

   => Energetics <=

    Nuclear Repulsion Energy =            277.5996114846211071
    One-Electron Energy =               -1177.5092329702847564
    Two-Electron Energy =                 449.0626152981351424
    DFT Exchange-Correlation Energy =       0.0000000000000000
    Empirical Dispersion Energy =           0.0000000000000000
    PCM Polarization Energy =               0.0000000000000000
    EFP Energy =                            0.0000000000000000
    Total Energy =                       -450.8470061875284500

    Alert: EFP and PCM quantities not currently incorporated into SCF psivars.

Properties will be evaluated at   0.000000,   0.000000,   0.000000 Bohr
  ==> Properties <==


Properties computed using the SCF density matrix

  Nuclear Dipole Moment: (a.u.)
     X:    -6.1166      Y:     2.6853      Z:    -1.0211

  Electronic Dipole Moment: (a.u.)
     X:     5.6241      Y:    -2.2562      Z:     0.4175

  Dipole Moment: (a.u.)
     X:    -0.4925      Y:     0.4290      Z:    -0.6036     Total:     0.8894

  Dipole Moment: (Debye)
     X:    -1.2519      Y:     1.0905      Z:    -1.5342     Total:     2.2606


  Saving occupied orbitals to File 180.

*** tstop() called on cx1-27-3-4 at Fri Sep  9 21:40:13 2016
Module time:
	user time   =      13.25 seconds =       0.22 minutes
	system time =       0.20 seconds =       0.00 minutes
	total time  =          4 seconds =       0.07 minutes
Total time:
	user time   =     105.96 seconds =       1.77 minutes
	system time =       1.29 seconds =       0.02 minutes
	total time  =         31 seconds =       0.52 minutes

*** tstart() called on cx1-27-3-4
*** at Fri Sep  9 21:40:13 2016


         ------------------------------------------------------------
                                   SCF GRAD                          
                          Rob Parrish, Justin Turney,                
                       Andy Simmonett, and Alex Sokolov              
         ------------------------------------------------------------

  ==> Geometry <==

    Molecular point group: c1
    Full point group: C1

    Geometry (in Angstrom), charge = 0, multiplicity = 1:

       Center              X                  Y                   Z               Mass       
    ------------   -----------------  -----------------  -----------------  -----------------
           H         -2.240555945759    -0.535314984745    -0.673651755187     1.007825032070
           O         -2.036639452914    -0.058988296108     0.110879721508    15.994914619560
           C         -0.957180755032     0.783421078488    -0.095495818011    12.000000000000
           C          0.354788493888     0.035238209455    -0.007208294306    12.000000000000
           H         -0.981361232651     1.269452011705    -1.064092075728     1.007825032070
           H         -0.960659649543     1.538829533805     0.675976446660     1.007825032070
           F          0.418266562765    -0.922250228383    -0.913721361209    18.998403224000
           F          1.362464236415     0.855732636385    -0.224699181959    18.998403224000
           F          0.536300079714    -0.521487155601     1.166265694736    18.998403224000

  Nuclear repulsion =  277.599611484621107

  ==> Basis Set <==

  Basis Set: CC-PVTZ
    Number of shells: 78
    Number of basis function: 222
    Number of Cartesian functions: 255
    Spherical Harmonics?: true
    Max angular momentum: 3

  ==> DFJKGrad: Density-Fitted SCF Gradients <==

    Gradient:                    1
    J tasked:                  Yes
    K tasked:                  Yes
    wK tasked:                  No
    OpenMP threads:              4
    Integrals threads:           4
    Memory (MB):              1430
    Schwarz Cutoff:          0E+00
    Fitting Condition:       1E-12

   => Auxiliary Basis Set <=

  Basis Set: 
    Number of shells: 180
    Number of basis function: 564
    Number of Cartesian functions: 681
    Spherical Harmonics?: true
    Max angular momentum: 4


  -Total Gradient:
     Atom            X                  Y                   Z
    ------   -----------------  -----------------  -----------------
       1       -0.000783851611     0.000992966679    -0.000308992648
       2        0.001168987710    -0.001497124462     0.000307938892
       3       -0.001121600304     0.001285354888     0.000387562576
       4        0.000131003853     0.000457213058     0.000133972215
       5        0.000627617162    -0.000855213972    -0.000460716229
       6        0.000049596898    -0.000000933415     0.000007701675
       7        0.000026514407    -0.000052313054     0.000022738301
       8       -0.000069350999    -0.000141196497    -0.000073160946
       9       -0.000028917116    -0.000188753223    -0.000017043834


*** tstop() called on cx1-27-3-4 at Fri Sep  9 21:40:22 2016
Module time:
	user time   =      31.07 seconds =       0.52 minutes
	system time =       0.35 seconds =       0.01 minutes
	total time  =          9 seconds =       0.15 minutes
Total time:
	user time   =     137.05 seconds =       2.28 minutes
	system time =       1.64 seconds =       0.03 minutes
	total time  =         40 seconds =       0.67 minutes
CURRENT ENERGY: -450.8470061875

			-----------------------------------------
			 OPTKING 2.0: for geometry optimizations 
			  - R.A. King,  Bethel University        
			-----------------------------------------

	Previous internal coordinate definitions found.
	---Fragment 1 Geometry and Gradient---
	 H          -4.2340371229       -1.0115987160       -1.2730173262
	 O          -3.8486907974       -0.1114717247        0.2095323073
	 C          -1.8088094867        1.4804512851       -0.1804609429
	 C           0.6704530885        0.0665905653       -0.0136217021
	 H          -1.8545039671        2.3989166410       -2.0108426033
	 H          -1.8153836446        2.9079663841        1.2774103565
	 F           0.7904092542       -1.7428003576       -1.7266831345
	 F           2.5746842727        1.6171003257       -0.4246199162
	 F           1.0134602757       -0.9854679059        2.2039227612
	            -0.0007838516        0.0009929667       -0.0003089926
	             0.0011689877       -0.0014971245        0.0003079389
	            -0.0011216003        0.0012853549        0.0003875626
	             0.0001310039        0.0004572131        0.0001339722
	             0.0006276172       -0.0008552140       -0.0004607162
	             0.0000495969       -0.0000009334        0.0000077017
	             0.0000265144       -0.0000523131        0.0000227383
	            -0.0000693510       -0.0001411965       -0.0000731609
	            -0.0000289171       -0.0001887532       -0.0000170438

	---Fragment 1 Intrafragment Coordinates---
	 - Coordinate -           - BOHR/RAD -       - ANG/DEG -
	 R(1,2)           =         1.776703	       0.940191
	 R(2,3)           =         2.616759	       1.384730
	 R(3,4)           =         2.858947	       1.512890
	 R(3,5)           =         2.048405	       1.083969
	 R(3,6)           =         2.040400	       1.079733
	 R(4,7)           =         2.494567	       1.320068
	 R(4,8)           =         2.489798	       1.317545
	 R(4,9)           =         2.478303	       1.311461
	 B(1,2,3)         =         1.931489	     110.666179
	 B(2,3,4)         =         1.946001	     111.497672
	 B(2,3,5)         =         1.969864	     112.864911
	 B(2,3,6)         =         1.892963	     108.458809
	 B(3,4,7)         =         1.939419	     111.120544
	 B(3,4,8)         =         1.923714	     110.220680
	 B(3,4,9)         =         1.962946	     112.468505
	 B(4,3,5)         =         1.868402	     107.051558
	 B(4,3,6)         =         1.882930	     107.883937
	 B(5,3,6)         =         1.901474	     108.946421
	 B(7,4,8)         =         1.877126	     107.551411
	 B(7,4,9)         =         1.875382	     107.451496
	 B(8,4,9)         =         1.882007	     107.831051
	 D(1,2,3,4)       =        -1.405669	     -80.538926
	*D(1,2,3,5)       =         0.698131	      39.999945
	 D(1,2,3,6)       =         2.806723	     160.813392
	 D(2,3,4,7)       =         1.047846	      60.037179
	 D(2,3,4,8)       =         3.127057	     179.167141
	 D(2,3,4,9)       =        -1.055414	     -60.470784
	 D(5,3,4,7)       =        -1.114463	     -63.854016
	 D(5,3,4,8)       =         0.964747	      55.275945
	 D(5,3,4,9)       =         3.065462	     175.638021
	 D(6,3,4,7)       =         3.124625	     179.027818
	 D(6,3,4,8)       =        -1.079350	     -61.842221
	 D(6,3,4,9)       =         1.021364	      58.519855

	Current energy   :      -450.8470061875

	Energy change for the previous step:
		Projected    :        -0.0000157151
		Actual       :        -0.0000063295

	Performing BFGS update.
	Previous computed or guess Hessian on step 1.
	Steps to be used in Hessian update: 2 1
	Taking RFO optimization step.
	Going to follow RFO solution 1.
	Using RFO vector 1.
	Norm of target step-size    0.00632
	Projected energy change by RFO approximation:        -0.0000020688

	Back-transformation to cartesian coordinates...
	Successfully converged to displaced geometry.

	Back-transformation to cartesian coordinates to adjust frozen coordinates...
	Successfully converged to displaced geometry.

	--- Internal Coordinate Step in ANG or DEG, aJ/ANG or AJ/DEG ---
	 ---------------------------------------------------------------------------
	   Coordinate                Previous        Force       Change         New 
	   ----------                --------       ------       ------       ------
	    1 R(1,2)          =      0.940191     0.000620     0.000042     0.940233
	    2 R(2,3)          =      1.384730    -0.000052     0.000001     1.384730
	    3 R(3,4)          =      1.512890    -0.000150     0.000018     1.512908
	    4 R(3,5)          =      1.083969    -0.000117    -0.000020     1.083950
	    5 R(3,6)          =      1.079733    -0.000039    -0.000026     1.079707
	    6 R(4,7)          =      1.320068    -0.000194    -0.000075     1.319993
	    7 R(4,8)          =      1.317545     0.001062     0.000150     1.317695
	    8 R(4,9)          =      1.311461    -0.000502    -0.000044     1.311418
	    9 B(1,2,3)        =    110.666179     0.000002     0.004549   110.670728
	   10 B(2,3,4)        =    111.497672     0.000001     0.004008   111.501679
	   11 B(2,3,5)        =    112.864911    -0.000003    -0.026471   112.838439
	   12 B(2,3,6)        =    108.458809    -0.000002    -0.008265   108.450544
	   13 B(3,4,7)        =    111.120544    -0.000000     0.016498   111.137042
	   14 B(3,4,8)        =    110.220680    -0.000008    -0.033438   110.187241
	   15 B(3,4,9)        =    112.468505    -0.000005    -0.014646   112.453859
	   16 B(4,3,5)        =    107.051558     0.000001     0.004996   107.056554
	   17 B(4,3,6)        =    107.883937     0.000004     0.024966   107.908903
	   18 B(5,3,6)        =    108.946421    -0.000000     0.003266   108.949687
	   19 B(7,4,8)        =    107.551411     0.000006     0.022648   107.574059
	   20 B(7,4,9)        =    107.451496     0.000009     0.048759   107.500255
	   21 B(8,4,9)        =    107.831051    -0.000002    -0.037961   107.793091
	   22 D(1,2,3,4)      =    -80.538926     0.000000     0.009326   -80.529600
	   23 *D(1,2,3,5)     =     39.999945     0.000000    -0.000000    39.999945
	   24 D(1,2,3,6)      =    160.813392    -0.000001    -0.018522   160.794870
	   25 D(2,3,4,7)      =     60.037179     0.000000    -0.106833    59.930346
	   26 D(2,3,4,8)      =    179.167141     0.000001    -0.089742   179.077398
	   27 D(2,3,4,9)      =    -60.470784    -0.000002    -0.171015   -60.641798
	   28 D(5,3,4,7)      =    -63.854016     0.000001    -0.079742   -63.933758
	   29 D(5,3,4,8)      =     55.275945     0.000001    -0.062651    55.213294
	   30 D(5,3,4,9)      =    175.638021    -0.000001    -0.143924   175.494097
	   31 D(6,3,4,7)      =    179.027818     0.000000    -0.098891   178.928927
	   32 D(6,3,4,8)      =    -61.842221     0.000001    -0.081800   -61.924021
	   33 D(6,3,4,9)      =     58.519855    -0.000002    -0.163073    58.356782
	 ---------------------------------------------------------------------------

  ==> Convergence Check <==

  Measures of convergence in internal coordinates in au.
  Criteria marked as inactive (o), active & met (*), and active & unmet ( ).
  ---------------------------------------------------------------------------------------------
   Step     Total Energy     Delta E     MAX Force     RMS Force      MAX Disp      RMS Disp   
  ---------------------------------------------------------------------------------------------
    Convergence Criteria    1.00e-06 *    3.00e-04 *             o    1.20e-03 *             o
  ---------------------------------------------------------------------------------------------
      3    -450.84700619   -6.33e-06      1.29e-04 *    5.77e-05 o    2.98e-03      1.10e-03 o  ~
  ---------------------------------------------------------------------------------------------

	Writing optimization data to binary file.
	Structure for next step:
	Cartesian Geometry (in Angstrom)
	    H    -2.2405625229  -0.5347631408  -0.6748636544
	    O    -2.0367459312  -0.0591071119   0.1101509654
	    C    -0.9570586237   0.7832770884  -0.0951347984
	    C     0.3547975881   0.0348048906  -0.0073179798
	    H    -0.9812583998   1.2699160847  -1.0634031814
	    H    -0.9609612711   1.5381226608   0.6768493033
	    F     0.4177324677  -0.9232941932  -0.9131143621
	    F     1.3621670292   0.8556584672  -0.2257825872
	    F     0.5373116567  -0.5199817541   1.1668695929
			--------------------------
			 OPTKING Finished Execution 
			--------------------------

    Structure for next step:
    Molecular point group: c1
    Full point group: C1

    Geometry (in Angstrom), charge = 0, multiplicity = 1:

    H           -2.240593243177    -0.534751509257    -0.674804954400
    O           -2.036776666987    -0.059095516626     0.110209605454
    C           -0.957089441997     0.783288619273    -0.095076142634
    C            0.354766669637     0.034816478613    -0.007259330752
    H           -0.981289216217     1.269927578490    -1.063344451646
    H           -0.960992089050     1.538134134052     0.676907900085
    F            0.417701544488    -0.923282531946    -0.913055643837
    F            1.362136033882     0.855669992537    -0.225723921463
    F            0.537280724300    -0.519970123656     1.166928152294

gradient() will perform analytic gradient computation.

*** tstart() called on cx1-27-3-4
*** at Fri Sep  9 21:40:22 2016


         ---------------------------------------------------------
                                   SCF
            by Justin Turney, Rob Parrish, and Andy Simmonett
                              RHF Reference
                        4 Threads,   2000 MiB Core
         ---------------------------------------------------------

  ==> Geometry <==

    Molecular point group: c1
    Full point group: C1

    Geometry (in Angstrom), charge = 0, multiplicity = 1:

       Center              X                  Y                   Z               Mass       
    ------------   -----------------  -----------------  -----------------  -----------------
           H         -2.240593243177    -0.534751509257    -0.674804954400     1.007825032070
           O         -2.036776666987    -0.059095516626     0.110209605454    15.994914619560
           C         -0.957089441997     0.783288619273    -0.095076142634    12.000000000000
           C          0.354766669637     0.034816478613    -0.007259330752    12.000000000000
           H         -0.981289216217     1.269927578490    -1.063344451646     1.007825032070
           H         -0.960992089050     1.538134134052     0.676907900085     1.007825032070
           F          0.417701544488    -0.923282531946    -0.913055643837    18.998403224000
           F          1.362136033882     0.855669992537    -0.225723921463    18.998403224000
           F          0.537280724300    -0.519970123656     1.166928152294    18.998403224000

  Running in c1 symmetry.

  Rotational constants: A =      0.18331  B =      0.09638  C =      0.09530 [cm^-1]
  Rotational constants: A =   5495.49738  B =   2889.29292  C =   2857.14314 [MHz]
  Nuclear repulsion =  277.593002774377737

  Charge       = 0
  Multiplicity = 1
  Electrons    = 50
  Nalpha       = 25
  Nbeta        = 25

  ==> Algorithm <==

  SCF Algorithm Type is DF.
  DIIS enabled.
  MOM disabled.
  Fractional occupation disabled.
  Guess Type is READ.
  Energy threshold   = 1.00e-08
  Density threshold  = 1.00e-08
  Integral threshold = 0.00e+00

  ==> Primary Basis <==

  Basis Set: CC-PVTZ
    Number of shells: 78
    Number of basis function: 222
    Number of Cartesian functions: 255
    Spherical Harmonics?: true
    Max angular momentum: 3

  ==> Pre-Iterations <==

   -------------------------------------------------------
    Irrep   Nso     Nmo     Nalpha   Nbeta   Ndocc  Nsocc
   -------------------------------------------------------
     A        222     222       0       0       0       0
   -------------------------------------------------------
    Total     222     222      25      25      25       0
   -------------------------------------------------------

 OEINTS: Overlap, kinetic, potential, dipole, and quadrupole integrals
         stored in file 35.

  ==> Integral Setup <==

  ==> DFJK: Density-Fitted J/K Matrices <==

    J tasked:                  Yes
    K tasked:                  Yes
    wK tasked:                  No
    OpenMP threads:              4
    Integrals threads:           4
    Memory (MB):              1430
    Algorithm:                Core
    Integral Cache:           NONE
    Schwarz Cutoff:          1E-12
    Fitting Condition:       1E-12

   => Auxiliary Basis Set <=

  Basis Set: 
    Number of shells: 180
    Number of basis function: 564
    Number of Cartesian functions: 681
    Spherical Harmonics?: true
    Max angular momentum: 4

  Minimum eigenvalue in the overlap matrix is 1.0150227511E-03.
  Using Symmetric Orthogonalization.
  SCF Guess: Reading in previously saved MOs, projecting if necessary.

  Using orbitals from previous SCF, no projection.
[...]
     113A      3.351443   114A      3.374809   115A      3.430157  
     116A      3.455517   117A      3.481744   118A      3.554436  
     119A      3.575017   120A      3.636081   121A      3.656021  
     122A      3.686606   123A      3.723379   124A      3.745448  
     125A      3.774574   126A      3.788981   127A      3.833016  
     128A      3.893684   129A      3.938551   130A      3.953470  
     131A      3.972848   132A      4.032933   133A      4.078318  
     134A      4.131178   135A      4.161922   136A      4.183826  
     137A      4.199124   138A      4.261261   139A      4.309933  
     140A      4.344204   141A      4.387116   142A      4.431030  
     143A      4.475075   144A      4.515706   145A      4.547267  
     146A      4.616731   147A      4.686446   148A      4.730166  
     149A      4.942426   150A      5.052330   151A      5.159141  
     152A      5.224562   153A      5.238960   154A      5.287552  
     155A      5.329599   156A      5.370987   157A      5.393922  
     158A      5.438105   159A      5.472036   160A      5.512713  
     161A      5.561046   162A      5.569787   163A      5.661054  
     164A      5.765563   165A      6.008780   166A      6.042289  
     167A      6.190111   168A      6.264983   169A      6.422612  
     170A      6.552978   171A      6.583052   172A      6.702355  
     173A      7.042020   174A      7.133237   175A      7.202301  
     176A      7.251432   177A      7.315281   178A      7.332935  
     179A      7.356476   180A      7.359058   181A      7.362198  
     182A      7.365663   183A      7.367206   184A      7.372925  
     185A      7.378720   186A      7.380266   187A      7.468243  
     188A      7.515363   189A      7.525127   190A      7.531582  
     191A      7.600337   192A      7.631392   193A      7.634576  
     194A      7.668579   195A      7.878022   196A      7.942518  
     197A      7.956874   198A      7.992909   199A      8.101214  
     200A      8.167765   201A      8.177519   202A      8.901598  
     203A      8.907253   204A      8.932583   205A      9.028248  
     206A      9.033041   207A      9.088365   208A      9.201528  
     209A      9.323143   210A      9.404506   211A      9.408400  
     212A      9.525625   213A      9.678122   214A      9.683963  
     215A      9.730146   216A      9.735708   217A     11.149574  
     218A     12.238575   219A     12.443343   220A     12.629035  
     221A     13.139883   222A     13.834672  

    Final Occupation by Irrep:
              A 
    DOCC [    25 ]

  Energy converged.

  @DF-RHF Final Energy:  -450.84700655809866

   => Energetics <=

    Nuclear Repulsion Energy =            277.5930027743777373
    One-Electron Energy =               -1177.4957149277356621
    Two-Electron Energy =                 449.0557055952591554
    DFT Exchange-Correlation Energy =       0.0000000000000000
    Empirical Dispersion Energy =           0.0000000000000000
    PCM Polarization Energy =               0.0000000000000000
    EFP Energy =                            0.0000000000000000
    Total Energy =                       -450.8470065580987693

    Alert: EFP and PCM quantities not currently incorporated into SCF psivars.

Properties will be evaluated at   0.000000,   0.000000,   0.000000 Bohr
  ==> Properties <==


Properties computed using the SCF density matrix

  Nuclear Dipole Moment: (a.u.)
     X:    -6.1170      Y:     2.6852      Z:    -1.0209

  Electronic Dipole Moment: (a.u.)
     X:     5.6246      Y:    -2.2569      Z:     0.4172

  Dipole Moment: (a.u.)
     X:    -0.4924      Y:     0.4283      Z:    -0.6037     Total:     0.8890

  Dipole Moment: (Debye)
     X:    -1.2515      Y:     1.0886      Z:    -1.5345     Total:     2.2597


  Saving occupied orbitals to File 180.

*** tstop() called on cx1-27-3-4 at Fri Sep  9 21:40:26 2016
Module time:
	user time   =      12.22 seconds =       0.20 minutes
	system time =       0.17 seconds =       0.00 minutes
	total time  =          4 seconds =       0.07 minutes
Total time:
	user time   =     149.67 seconds =       2.49 minutes
	system time =       1.82 seconds =       0.03 minutes
	total time  =         44 seconds =       0.73 minutes

*** tstart() called on cx1-27-3-4
*** at Fri Sep  9 21:40:26 2016


         ------------------------------------------------------------
                                   SCF GRAD                          
                          Rob Parrish, Justin Turney,                
                       Andy Simmonett, and Alex Sokolov              
         ------------------------------------------------------------

  ==> Geometry <==

    Molecular point group: c1
    Full point group: C1

    Geometry (in Angstrom), charge = 0, multiplicity = 1:

       Center              X                  Y                   Z               Mass       
    ------------   -----------------  -----------------  -----------------  -----------------
           H         -2.240593243177    -0.534751509257    -0.674804954400     1.007825032070
           O         -2.036776666987    -0.059095516626     0.110209605454    15.994914619560
           C         -0.957089441997     0.783288619273    -0.095076142634    12.000000000000
           C          0.354766669637     0.034816478613    -0.007259330752    12.000000000000
           H         -0.981289216217     1.269927578490    -1.063344451646     1.007825032070
           H         -0.960992089050     1.538134134052     0.676907900085     1.007825032070
           F          0.417701544488    -0.923282531946    -0.913055643837    18.998403224000
           F          1.362136033882     0.855669992537    -0.225723921463    18.998403224000
           F          0.537280724300    -0.519970123656     1.166928152294    18.998403224000

  Nuclear repulsion =  277.593002774377737

  ==> Basis Set <==

  Basis Set: CC-PVTZ
    Number of shells: 78
    Number of basis function: 222
    Number of Cartesian functions: 255
    Spherical Harmonics?: true
    Max angular momentum: 3

  ==> DFJKGrad: Density-Fitted SCF Gradients <==

    Gradient:                    1
    J tasked:                  Yes
    K tasked:                  Yes
    wK tasked:                  No
    OpenMP threads:              4
    Integrals threads:           4
    Memory (MB):              1430
    Schwarz Cutoff:          0E+00
    Fitting Condition:       1E-12

   => Auxiliary Basis Set <=

  Basis Set: 
    Number of shells: 180
    Number of basis function: 564
    Number of Cartesian functions: 681
    Spherical Harmonics?: true
    Max angular momentum: 4


  -Total Gradient:
     Atom            X                  Y                   Z
    ------   -----------------  -----------------  -----------------
       1       -0.000802226659     0.000960983646    -0.000352105158
       2        0.001209883315    -0.001424785041     0.000292125348
       3       -0.001001805554     0.001364707714     0.000533932473
       4        0.000095548247     0.000053155064     0.000003549787
       5        0.000588292923    -0.000883006850    -0.000452491755
       6       -0.000013048789     0.000004498326    -0.000001795661
       7       -0.000018061125    -0.000080227742    -0.000104929770
       8       -0.000063468565    -0.000036081494     0.000050093613
       9        0.000004886211     0.000040756382     0.000031621121


*** tstop() called on cx1-27-3-4 at Fri Sep  9 21:40:34 2016
Module time:
	user time   =      31.51 seconds =       0.53 minutes
	system time =       0.30 seconds =       0.01 minutes
	total time  =          8 seconds =       0.13 minutes
Total time:
	user time   =     181.20 seconds =       3.02 minutes
	system time =       2.12 seconds =       0.04 minutes
	total time  =         52 seconds =       0.87 minutes
CURRENT ENERGY: -450.8470065581

			-----------------------------------------
			 OPTKING 2.0: for geometry optimizations 
			  - R.A. King,  Bethel University        
			-----------------------------------------

	Previous internal coordinate definitions found.
	---Fragment 1 Geometry and Gradient---
	 H          -4.2341076048       -1.0105339016       -1.2751965569
	 O          -3.8489500945       -0.1116743421        0.2082659715
	 C          -1.8086369301        1.4802009734       -0.1796678713
	 C           0.6704118467        0.0657936095       -0.0137181470
	 H          -1.8543678758        2.3998153319       -2.0094297985
	 H          -1.8160118642        2.9066522690        1.2791705483
	 F           0.7893415244       -1.7447511287       -1.7254251109
	 F           2.5740640598        1.6169819460       -0.4265563932
	 F           1.0153134254       -0.9826011310        2.2051746246
	            -0.0008022267        0.0009609836       -0.0003521052
	             0.0012098833       -0.0014247850        0.0002921253
	            -0.0010018056        0.0013647077        0.0005339325
	             0.0000955482        0.0000531551        0.0000035498
	             0.0005882929       -0.0008830068       -0.0004524918
	            -0.0000130488        0.0000044983       -0.0000017957
	            -0.0000180611       -0.0000802277       -0.0001049298
	            -0.0000634686       -0.0000360815        0.0000500936
	             0.0000048862        0.0000407564        0.0000316211

	---Fragment 1 Intrafragment Coordinates---
	 - Coordinate -           - BOHR/RAD -       - ANG/DEG -
	 R(1,2)           =         1.776782	       0.940233
	 R(2,3)           =         2.616761	       1.384730
	 R(3,4)           =         2.858981	       1.512908
	 R(3,5)           =         2.048368	       1.083950
	 R(3,6)           =         2.040350	       1.079707
	 R(4,7)           =         2.494425	       1.319993
	 R(4,8)           =         2.490083	       1.317695
	 R(4,9)           =         2.478220	       1.311418
	 B(1,2,3)         =         1.931569	     110.670728
	 B(2,3,4)         =         1.946071	     111.501679
	 B(2,3,5)         =         1.969402	     112.838439
	 B(2,3,6)         =         1.892819	     108.450544
	 B(3,4,7)         =         1.939707	     111.137042
	 B(3,4,8)         =         1.923130	     110.187241
	 B(3,4,9)         =         1.962690	     112.453859
	 B(4,3,5)         =         1.868489	     107.056554
	 B(4,3,6)         =         1.883366	     107.908903
	 B(5,3,6)         =         1.901531	     108.949687
	 B(7,4,8)         =         1.877522	     107.574059
	 B(7,4,9)         =         1.876233	     107.500255
	 B(8,4,9)         =         1.881344	     107.793091
	 D(1,2,3,4)       =        -1.405507	     -80.529600
	*D(1,2,3,5)       =         0.698131	      39.999945
	 D(1,2,3,6)       =         2.806400	     160.794870
	 D(2,3,4,7)       =         1.045982	      59.930346
	 D(2,3,4,8)       =         3.125490	     179.077398
	 D(2,3,4,9)       =        -1.058399	     -60.641798
	 D(5,3,4,7)       =        -1.115855	     -63.933758
	 D(5,3,4,8)       =         0.963654	      55.213294
	 D(5,3,4,9)       =         3.062950	     175.494097
	 D(6,3,4,7)       =         3.122899	     178.928927
	 D(6,3,4,8)       =        -1.080778	     -61.924021
	 D(6,3,4,9)       =         1.018518	      58.356782

	Current energy   :      -450.8470065581

	Energy change for the previous step:
		Projected    :        -0.0000020688
		Actual       :        -0.0000003706
	Energy ratio indicates iffy step: Trust radius decreased to 1.250e-01.


	Performing BFGS update.
	Previous computed or guess Hessian on step 1.
	Steps to be used in Hessian update: 3 2
	Taking RFO optimization step.
	Going to follow RFO solution 1.
	Using RFO vector 1.
	Norm of target step-size    0.00136
	Projected energy change by RFO approximation:        -0.0000001681

	Back-transformation to cartesian coordinates...
	Successfully converged to displaced geometry.

	Back-transformation to cartesian coordinates to adjust frozen coordinates...
	Successfully converged to displaced geometry.

	--- Internal Coordinate Step in ANG or DEG, aJ/ANG or AJ/DEG ---
	 ---------------------------------------------------------------------------
	   Coordinate                Previous        Force       Change         New 
	   ----------                --------       ------       ------       ------
	    1 R(1,2)          =      0.940233     0.000150     0.000020     0.940253
	    2 R(2,3)          =      1.384730     0.000367     0.000047     1.384777
	    3 R(3,4)          =      1.512908    -0.000217    -0.000042     1.512865
	    4 R(3,5)          =      1.083950     0.000044     0.000003     1.083953
	    5 R(3,6)          =      1.079707    -0.000016    -0.000004     1.079703
	    6 R(4,7)          =      1.319993    -0.001066    -0.000114     1.319879
	    7 R(4,8)          =      1.317695     0.000653     0.000082     1.317777
	    8 R(4,9)          =      1.311418    -0.000097    -0.000015     1.311402
	    9 B(1,2,3)        =    110.670728     0.000001     0.004231   110.674959
	   10 B(2,3,4)        =    111.501679     0.000000     0.000594   111.502273
	   11 B(2,3,5)        =    112.838439     0.000000     0.003408   112.841848
	   12 B(2,3,6)        =    108.450544     0.000000     0.000338   108.450882
	   13 B(3,4,7)        =    111.137042     0.000002     0.004644   111.141686
	   14 B(3,4,8)        =    110.187241     0.000001    -0.000511   110.186731
	   15 B(3,4,9)        =    112.453859     0.000002     0.005727   112.459586
	   16 B(4,3,5)        =    107.056554     0.000000     0.002941   107.059496
	   17 B(4,3,6)        =    107.908903    -0.000001    -0.006543   107.902360
	   18 B(5,3,6)        =    108.949687     0.000000    -0.001255   108.948432
	   19 B(7,4,8)        =    107.574059    -0.000002    -0.007848   107.566211
	   20 B(7,4,9)        =    107.500255    -0.000004    -0.009213   107.491043
	   21 B(8,4,9)        =    107.793091     0.000001     0.006507   107.799598
	   22 D(1,2,3,4)      =    -80.529600    -0.000000    -0.006641   -80.536241
	   23 *D(1,2,3,5)     =     39.999945    -0.000000     0.000000    39.999945
	   24 D(1,2,3,6)      =    160.794870     0.000000     0.000831   160.795702
	   25 D(2,3,4,7)      =     59.930346     0.000000    -0.019719    59.910627
	   26 D(2,3,4,8)      =    179.077398    -0.000000    -0.026879   179.050519
	   27 D(2,3,4,9)      =    -60.641798     0.000000    -0.015141   -60.656939
	   28 D(5,3,4,7)      =    -63.933758    -0.000000    -0.026350   -63.960108
	   29 D(5,3,4,8)      =     55.213294    -0.000000    -0.033510    55.179784
	   30 D(5,3,4,9)      =    175.494097     0.000000    -0.021771   175.472326
	   31 D(6,3,4,7)      =    178.928927    -0.000000    -0.023074   178.905852
	   32 D(6,3,4,8)      =    -61.924021    -0.000000    -0.030235   -61.954256
	   33 D(6,3,4,9)      =     58.356782     0.000000    -0.018496    58.338286
	 ---------------------------------------------------------------------------

  ==> Convergence Check <==

  Measures of convergence in internal coordinates in au.
  Criteria marked as inactive (o), active & met (*), and active & unmet ( ).
  ---------------------------------------------------------------------------------------------
   Step     Total Energy     Delta E     MAX Force     RMS Force      MAX Disp      RMS Disp   
  ---------------------------------------------------------------------------------------------
    Convergence Criteria    1.00e-06 *    3.00e-04 *             o    1.20e-03 *             o
  ---------------------------------------------------------------------------------------------
      4    -450.84700656   -3.71e-07 *    1.29e-04 *    3.25e-05 o    5.85e-04 *    2.37e-04 o  ~
  ---------------------------------------------------------------------------------------------


  **** Optimization is complete! (in 4 steps) ****

  ==> Optimization Summary <==

  Measures of convergence in internal coordinates in au.
  --------------------------------------------------------------------------------------------------------------- ~
   Step         Total Energy             Delta E       MAX Force       RMS Force        MAX Disp        RMS Disp  ~
  --------------------------------------------------------------------------------------------------------------- ~
      1    -450.846970947207   -450.846970947207      0.00165211      0.00054349      0.02987979      0.01391062  ~
      2    -450.846999858049     -0.000028910842      0.00086582      0.00032655      0.00461047      0.00202033  ~
      3    -450.847006187528     -0.000006329480      0.00012889      0.00005767      0.00298477      0.00109964  ~
      4    -450.847006558099     -0.000000370570      0.00012937      0.00003250      0.00058486      0.00023684  ~
  --------------------------------------------------------------------------------------------------------------- ~

	Writing optimization data to binary file.
	Final energy is   -450.8470065580987
	Final (previous) structure:
	Cartesian Geometry (in Angstrom)
	    H    -2.2405934143  -0.5347515501  -0.6748050059
	    O    -2.0367768225  -0.0590955211   0.1102096139
	    C    -0.9570895151   0.7832886791  -0.0950761499
	    C     0.3547666967   0.0348164813  -0.0072593313
	    H    -0.9812892912   1.2699276755  -1.0633445328
	    H    -0.9609921624   1.5381342515   0.6769079518
	    F     0.4177015764  -0.9232826025  -0.9130557136
	    F     1.3621361379   0.8556700579  -0.2257239387
	    F     0.5372807653  -0.5199701634   1.1669282414
	Saving final (previous) structure.
			--------------------------
			 OPTKING Finished Execution 
			--------------------------

    Final optimized geometry and variables:
    Molecular point group: c1
    Full point group: C1

    Geometry (in Angstrom), charge = 0, multiplicity = 1:

    H           -2.240593243177    -0.534751509257    -0.674804954400
    O           -2.036776666987    -0.059095516626     0.110209605454
    C           -0.957089441997     0.783288619273    -0.095076142634
    C            0.354766669637     0.034816478613    -0.007259330752
    H           -0.981289216217     1.269927578490    -1.063344451646
    H           -0.960992089050     1.538134134052     0.676907900085
    F            0.417701544488    -0.923282531946    -0.913055643837
    F            1.362136033882     0.855669992537    -0.225723921463
    F            0.537280724300    -0.519970123656     1.166928152294

	Cleaning optimization helper files.


Properties will be evaluated at   0.000000,   0.000000,   0.000000 Bohr

Properties computed using the  density matrix

  Nuclear Dipole Moment: (a.u.)
     X:    -6.1170      Y:     2.6852      Z:    -1.0209

  Electronic Dipole Moment: (a.u.)
     X:     5.6246      Y:    -2.2569      Z:     0.4172

  Dipole Moment: (a.u.)
     X:    -0.4924      Y:     0.4283      Z:    -0.6037     Total:     0.8890

  Dipole Moment: (Debye)
     X:    -1.2515      Y:     1.0886      Z:    -1.5345     Total:     2.2597

  Quadrupole Moment: (Debye Ang)
    XX:   -34.3626     YY:   -31.4251     ZZ:   -32.1522
    XY:    -0.1191     XZ:     3.7632     YZ:     0.9338

  Traceless Quadrupole Moment: (Debye Ang)
    XX:    -1.7160     YY:     1.2215     ZZ:     0.4944
    XY:    -0.1191     XZ:     3.7632     YZ:     0.9338

  Mulliken Charges: (a.u.)
   Center  Symbol    Alpha    Beta     Spin     Total
       1     H     0.38627  0.38627  0.00000  0.22746
       2     O     4.19228  4.19228  0.00000 -0.38457
       3     C     2.99354  2.99354  0.00000  0.01292
       4     C     2.68198  2.68198  0.00000  0.63604
       5     H     0.46113  0.46113  0.00000  0.07775
       6     H     0.44729  0.44729  0.00000  0.10543
       7     F     4.61659  4.61659  0.00000 -0.23318
       8     F     4.61324  4.61324  0.00000 -0.22648
       9     F     4.60768  4.60768  0.00000 -0.21536

   Total alpha = 25.00000, Total beta = 25.00000, Total charge = -0.00000


*** PSI4 exiting successfully. Buy a developer a beer!
